unknown system                          
   1.00000000000000     
     3.263418    0.000000    0.000000
     0.000000    3.263418    0.000000
     0.000000    0.000000    3.263418
   Fe
     4
Direct
  0.000000  0.000000  0.000000
  0.500000  0.500000  0.000000
  0.500000  0.000000  0.500000
  0.000000  0.500000  0.500000
 
   28   28   28
  291.37      276.07      235.02      180.02      124.05      76.816      43.348      24.331      16.536      13.932    
  12.302      11.250      10.648      10.395      10.339      10.395      10.648      11.250      12.302      13.932    
  16.536      24.331      43.348      76.816      124.05      180.02      235.02      276.07      276.07      261.58    
  222.67      170.51      117.44      72.751      41.261      23.556      16.402      13.929      12.335      11.305    
  10.710      10.453      10.395      10.453      10.710      11.305      12.335      13.929      16.402      23.556    
  41.261      72.751      117.44      170.51      222.67      261.58      235.02      222.67      189.47      144.94    
  99.716      61.937      35.809      21.611      16.104      13.939      12.466      11.516      10.960      10.710    
  10.648      10.710      10.960      11.516      12.466      13.939      16.104      21.611      35.809      61.937    
  99.716      144.94      189.47      222.67      180.02      170.51      144.94      110.68      76.156      47.846    
  28.996      19.395      15.835      14.010      12.762      11.974      11.516      11.305      11.250      11.305    
  11.516      11.974      12.762      14.010      15.835      19.395      28.996      47.846      76.156      110.68    
  144.94      170.51      124.05      117.44      99.716      76.156      52.842      34.439      23.003      17.751    
  15.645      14.217      13.302      12.762      12.466      12.335      12.302      12.335      12.466      12.762    
  13.302      14.217      15.645      17.751      23.003      34.439      52.842      76.156      99.716      117.44    
  76.816      72.751      61.937      47.846      34.439      24.590      19.164      16.912      15.581      14.690    
  14.217      14.010      13.939      13.929      13.932      13.929      13.939      14.010      14.217      14.690    
  15.581      16.912      19.164      24.590      34.439      47.846      61.937      72.751      43.348      41.261    
  35.809      28.996      23.003      19.164      17.394      16.432      15.808      15.581      15.645      15.835    
  16.104      16.402      16.536      16.402      16.104      15.835      15.645      15.581      15.808      16.432    
  17.394      19.164      23.003      28.996      35.809      41.261      24.331      23.556      21.611      19.395    
  17.751      16.912      16.432      16.246      16.432      16.912      17.751      19.395      21.611      23.556    
  24.331      23.556      21.611      19.395      17.751      16.912      16.432      16.246      16.432      16.912    
  17.751      19.395      21.611      23.556      16.536      16.402      16.104      15.835      15.645      15.581    
  15.808      16.432      17.394      19.164      23.003      28.996      35.809      41.261      43.348      41.261    
  35.809      28.996      23.003      19.164      17.394      16.432      15.808      15.581      15.645      15.835    
  16.104      16.402      13.932      13.929      13.939      14.010      14.217      14.690      15.581      16.912    
  19.164      24.590      34.439      47.846      61.937      72.751      76.816      72.751      61.937      47.846    
  34.439      24.590      19.164      16.912      15.581      14.690      14.217      14.010      13.939      13.929    
  12.302      12.335      12.466      12.762      13.302      14.217      15.645      17.751      23.003      34.439    
  52.842      76.156      99.716      117.44      124.05      117.44      99.716      76.156      52.842      34.439    
  23.003      17.751      15.645      14.217      13.302      12.762      12.466      12.335      11.250      11.305    
  11.516      11.974      12.762      14.010      15.835      19.395      28.996      47.846      76.156      110.68    
  144.94      170.51      180.02      170.51      144.94      110.68      76.156      47.846      28.996      19.395    
  15.835      14.010      12.762      11.974      11.516      11.305      10.648      10.710      10.960      11.516    
  12.466      13.939      16.104      21.611      35.809      61.937      99.716      144.94      189.47      222.67    
  235.02      222.67      189.47      144.94      99.716      61.937      35.809      21.611      16.104      13.939    
  12.466      11.516      10.960      10.710      10.395      10.453      10.710      11.305      12.335      13.929    
  16.402      23.556      41.261      72.751      117.44      170.51      222.67      261.58      276.07      261.58    
  222.67      170.51      117.44      72.751      41.261      23.556      16.402      13.929      12.335      11.305    
  10.710      10.453      10.339      10.395      10.648      11.250      12.302      13.932      16.536      24.331    
  43.348      76.816      124.05      180.02      235.02      276.07      291.37      276.07      235.02      180.02    
  124.05      76.816      43.348      24.331      16.536      13.932      12.302      11.250      10.648      10.395    
  10.395      10.453      10.710      11.305      12.335      13.929      16.402      23.556      41.261      72.751    
  117.44      170.51      222.67      261.58      276.07      261.58      222.67      170.51      117.44      72.751    
  41.261      23.556      16.402      13.929      12.335      11.305      10.710      10.453      10.648      10.710    
  10.960      11.516      12.466      13.939      16.104      21.611      35.809      61.937      99.716      144.94    
  189.47      222.67      235.02      222.67      189.47      144.94      99.716      61.937      35.809      21.611    
  16.104      13.939      12.466      11.516      10.960      10.710      11.250      11.305      11.516      11.974    
  12.762      14.010      15.835      19.395      28.996      47.846      76.156      110.68      144.94      170.51    
  180.02      170.51      144.94      110.68      76.156      47.846      28.996      19.395      15.835      14.010    
  12.762      11.974      11.516      11.305      12.302      12.335      12.466      12.762      13.302      14.217    
  15.645      17.751      23.003      34.439      52.842      76.156      99.716      117.44      124.05      117.44    
  99.716      76.156      52.842      34.439      23.003      17.751      15.645      14.217      13.302      12.762    
  12.466      12.335      13.932      13.929      13.939      14.010      14.217      14.690      15.581      16.912    
  19.164      24.590      34.439      47.846      61.937      72.751      76.816      72.751      61.937      47.846    
  34.439      24.590      19.164      16.912      15.581      14.690      14.217      14.010      13.939      13.929    
  16.536      16.402      16.104      15.835      15.645      15.581      15.808      16.432      17.394      19.164    
  23.003      28.996      35.809      41.261      43.348      41.261      35.809      28.996      23.003      19.164    
  17.394      16.432      15.808      15.581      15.645      15.835      16.104      16.402      24.331      23.556    
  21.611      19.395      17.751      16.912      16.432      16.246      16.432      16.912      17.751      19.395    
  21.611      23.556      24.331      23.556      21.611      19.395      17.751      16.912      16.432      16.246    
  16.432      16.912      17.751      19.395      21.611      23.556      43.348      41.261      35.809      28.996    
  23.003      19.164      17.394      16.432      15.808      15.581      15.645      15.835      16.104      16.402    
  16.536      16.402      16.104      15.835      15.645      15.581      15.808      16.432      17.394      19.164    
  23.003      28.996      35.809      41.261      76.816      72.751      61.937      47.846      34.439      24.590    
  19.164      16.912      15.581      14.690      14.217      14.010      13.939      13.929      13.932      13.929    
  13.939      14.010      14.217      14.690      15.581      16.912      19.164      24.590      34.439      47.846    
  61.937      72.751      124.05      117.44      99.716      76.156      52.842      34.439      23.003      17.751    
  15.645      14.217      13.302      12.762      12.466      12.335      12.302      12.335      12.466      12.762    
  13.302      14.217      15.645      17.751      23.003      34.439      52.842      76.156      99.716      117.44    
  180.02      170.51      144.94      110.68      76.156      47.846      28.996      19.395      15.835      14.010    
  12.762      11.974      11.516      11.305      11.250      11.305      11.516      11.974      12.762      14.010    
  15.835      19.395      28.996      47.846      76.156      110.68      144.94      170.51      235.02      222.67    
  189.47      144.94      99.716      61.937      35.809      21.611      16.104      13.939      12.466      11.516    
  10.960      10.710      10.648      10.710      10.960      11.516      12.466      13.939      16.104      21.611    
  35.809      61.937      99.716      144.94      189.47      222.67      276.07      261.58      222.67      170.51    
  117.44      72.751      41.261      23.556      16.402      13.929      12.335      11.305      10.710      10.453    
  10.395      10.453      10.710      11.305      12.335      13.929      16.402      23.556      41.261      72.751    
  117.44      170.51      222.67      261.58      276.07      261.58      222.67      170.51      117.44      72.751    
  41.261      23.556      16.402      13.929      12.335      11.305      10.710      10.453      10.395      10.453    
  10.710      11.305      12.335      13.929      16.402      23.556      41.261      72.751      117.44      170.51    
  222.67      261.58      261.58      247.85      210.96      161.48      111.18      68.913      39.307      22.842    
  16.283      13.925      12.368      11.360      10.773      10.514      10.453      10.514      10.773      11.360    
  12.368      13.925      16.283      22.842      39.307      68.913      111.18      161.48      210.96      247.85    
  222.67      210.96      179.47      137.24      94.397      58.720      34.214      21.058      16.016      13.931    
  12.496      11.570      11.023      10.773      10.710      10.773      11.023      11.570      12.496      13.931    
  16.016      21.058      34.214      58.720      94.397      137.24      179.47      210.96      170.51      161.48    
  137.24      104.78      72.126      45.472      27.877      19.039      15.765      13.992      12.783      12.018    
  11.570      11.360      11.305      11.360      11.570      12.018      12.783      13.992      15.765      19.039    
  27.877      45.472      72.126      104.78      137.24      161.48      117.44      111.18      94.397      72.126    
  50.161      32.934      22.347      17.553      15.565      14.185      13.303      12.783      12.496      12.368    
  12.335      12.368      12.496      12.783      13.303      14.185      15.565      17.553      22.347      32.934    
  50.161      72.126      94.397      111.18      72.751      68.913      58.720      45.472      32.934      23.806    
  18.847      16.777      15.488      14.634      14.185      13.992      13.931      13.925      13.929      13.925    
  13.931      13.992      14.185      14.634      15.488      16.777      18.847      23.806      32.934      45.472    
  58.720      68.913      41.261      39.307      34.214      27.877      22.347      18.847      17.233      16.298    
  15.698      15.488      15.565      15.765      16.016      16.283      16.402      16.283      16.016      15.765    
  15.565      15.488      15.698      16.298      17.233      18.847      22.347      27.877      34.214      39.307    
  23.556      22.842      21.058      19.039      17.553      16.777      16.298      16.112      16.298      16.777    
  17.553      19.039      21.058      22.842      23.556      22.842      21.058      19.039      17.553      16.777    
  16.298      16.112      16.298      16.777      17.553      19.039      21.058      22.842      16.402      16.283    
  16.016      15.765      15.565      15.488      15.698      16.298      17.233      18.847      22.347      27.877    
  34.214      39.307      41.261      39.307      34.214      27.877      22.347      18.847      17.233      16.298    
  15.698      15.488      15.565      15.765      16.016      16.283      13.929      13.925      13.931      13.992    
  14.185      14.634      15.488      16.777      18.847      23.806      32.934      45.472      58.720      68.913    
  72.751      68.913      58.720      45.472      32.934      23.806      18.847      16.777      15.488      14.634    
  14.185      13.992      13.931      13.925      12.335      12.368      12.496      12.783      13.303      14.185    
  15.565      17.553      22.347      32.934      50.161      72.126      94.397      111.18      117.44      111.18    
  94.397      72.126      50.161      32.934      22.347      17.553      15.565      14.185      13.303      12.783    
  12.496      12.368      11.305      11.360      11.570      12.018      12.783      13.992      15.765      19.039    
  27.877      45.472      72.126      104.78      137.24      161.48      170.51      161.48      137.24      104.78    
  72.126      45.472      27.877      19.039      15.765      13.992      12.783      12.018      11.570      11.360    
  10.710      10.773      11.023      11.570      12.496      13.931      16.016      21.058      34.214      58.720    
  94.397      137.24      179.47      210.96      222.67      210.96      179.47      137.24      94.397      58.720    
  34.214      21.058      16.016      13.931      12.496      11.570      11.023      10.773      10.453      10.514    
  10.773      11.360      12.368      13.925      16.283      22.842      39.307      68.913      111.18      161.48    
  210.96      247.85      261.58      247.85      210.96      161.48      111.18      68.913      39.307      22.842    
  16.283      13.925      12.368      11.360      10.773      10.514      10.395      10.453      10.710      11.305    
  12.335      13.929      16.402      23.556      41.261      72.751      117.44      170.51      222.67      261.58    
  276.07      261.58      222.67      170.51      117.44      72.751      41.261      23.556      16.402      13.929    
  12.335      11.305      10.710      10.453      10.453      10.514      10.773      11.360      12.368      13.925    
  16.283      22.842      39.307      68.913      111.18      161.48      210.96      247.85      261.58      247.85    
  210.96      161.48      111.18      68.913      39.307      22.842      16.283      13.925      12.368      11.360    
  10.773      10.514      10.710      10.773      11.023      11.570      12.496      13.931      16.016      21.058    
  34.214      58.720      94.397      137.24      179.47      210.96      222.67      210.96      179.47      137.24    
  94.397      58.720      34.214      21.058      16.016      13.931      12.496      11.570      11.023      10.773    
  11.305      11.360      11.570      12.018      12.783      13.992      15.765      19.039      27.877      45.472    
  72.126      104.78      137.24      161.48      170.51      161.48      137.24      104.78      72.126      45.472    
  27.877      19.039      15.765      13.992      12.783      12.018      11.570      11.360      12.335      12.368    
  12.496      12.783      13.303      14.185      15.565      17.553      22.347      32.934      50.161      72.126    
  94.397      111.18      117.44      111.18      94.397      72.126      50.161      32.934      22.347      17.553    
  15.565      14.185      13.303      12.783      12.496      12.368      13.929      13.925      13.931      13.992    
  14.185      14.634      15.488      16.777      18.847      23.806      32.934      45.472      58.720      68.913    
  72.751      68.913      58.720      45.472      32.934      23.806      18.847      16.777      15.488      14.634    
  14.185      13.992      13.931      13.925      16.402      16.283      16.016      15.765      15.565      15.488    
  15.698      16.298      17.233      18.847      22.347      27.877      34.214      39.307      41.261      39.307    
  34.214      27.877      22.347      18.847      17.233      16.298      15.698      15.488      15.565      15.765    
  16.016      16.283      23.556      22.842      21.058      19.039      17.553      16.777      16.298      16.112    
  16.298      16.777      17.553      19.039      21.058      22.842      23.556      22.842      21.058      19.039    
  17.553      16.777      16.298      16.112      16.298      16.777      17.553      19.039      21.058      22.842    
  41.261      39.307      34.214      27.877      22.347      18.847      17.233      16.298      15.698      15.488    
  15.565      15.765      16.016      16.283      16.402      16.283      16.016      15.765      15.565      15.488    
  15.698      16.298      17.233      18.847      22.347      27.877      34.214      39.307      72.751      68.913    
  58.720      45.472      32.934      23.806      18.847      16.777      15.488      14.634      14.185      13.992    
  13.931      13.925      13.929      13.925      13.931      13.992      14.185      14.634      15.488      16.777    
  18.847      23.806      32.934      45.472      58.720      68.913      117.44      111.18      94.397      72.126    
  50.161      32.934      22.347      17.553      15.565      14.185      13.303      12.783      12.496      12.368    
  12.335      12.368      12.496      12.783      13.303      14.185      15.565      17.553      22.347      32.934    
  50.161      72.126      94.397      111.18      170.51      161.48      137.24      104.78      72.126      45.472    
  27.877      19.039      15.765      13.992      12.783      12.018      11.570      11.360      11.305      11.360    
  11.570      12.018      12.783      13.992      15.765      19.039      27.877      45.472      72.126      104.78    
  137.24      161.48      222.67      210.96      179.47      137.24      94.397      58.720      34.214      21.058    
  16.016      13.931      12.496      11.570      11.023      10.773      10.710      10.773      11.023      11.570    
  12.496      13.931      16.016      21.058      34.214      58.720      94.397      137.24      179.47      210.96    
  261.58      247.85      210.96      161.48      111.18      68.913      39.307      22.842      16.283      13.925    
  12.368      11.360      10.773      10.514      10.453      10.514      10.773      11.360      12.368      13.925    
  16.283      22.842      39.307      68.913      111.18      161.48      210.96      247.85      235.02      222.67    
  189.47      144.94      99.716      61.937      35.809      21.611      16.104      13.939      12.466      11.516    
  10.960      10.710      10.648      10.710      10.960      11.516      12.466      13.939      16.104      21.611    
  35.809      61.937      99.716      144.94      189.47      222.67      222.67      210.96      179.47      137.24    
  94.397      58.720      34.214      21.058      16.016      13.931      12.496      11.570      11.023      10.773    
  10.710      10.773      11.023      11.570      12.496      13.931      16.016      21.058      34.214      58.720    
  94.397      137.24      179.47      210.96      189.47      179.47      152.59      116.57      80.175      50.206    
  30.082      19.689      15.812      13.922      12.611      11.766      11.262      11.023      10.960      11.023    
  11.262      11.766      12.611      13.922      15.812      19.689      30.082      50.206      80.175      116.57    
  152.59      179.47      144.94      137.24      116.57      88.971      61.405      39.241      25.013      18.169    
  15.578      13.957      12.864      12.174      11.766      11.570      11.516      11.570      11.766      12.174    
  12.864      13.957      15.578      18.169      25.013      39.241      61.405      88.971      116.57      137.24    
  99.716      94.397      80.175      61.405      43.098      29.038      20.700      17.066      15.349      14.107    
  13.324      12.864      12.611      12.496      12.466      12.496      12.611      12.864      13.324      14.107    
  15.349      17.066      20.700      29.038      43.098      61.405      80.175      94.397      61.937      58.720    
  50.206      39.241      29.038      21.826      18.066      16.408      15.241      14.489      14.107      13.957    
  13.922      13.931      13.939      13.931      13.922      13.957      14.107      14.489      15.241      16.408    
  18.066      21.826      29.038      39.241      50.206      58.720      35.809      34.214      30.082      25.013    
  20.700      18.066      16.801      15.935      15.403      15.241      15.349      15.578      15.812      16.016    
  16.104      16.016      15.812      15.578      15.349      15.241      15.403      15.935      16.801      18.066    
  20.700      25.013      30.082      34.214      21.611      21.058      19.689      18.169      17.066      16.408    
  15.935      15.756      15.935      16.408      17.066      18.169      19.689      21.058      21.611      21.058    
  19.689      18.169      17.066      16.408      15.935      15.756      15.935      16.408      17.066      18.169    
  19.689      21.058      16.104      16.016      15.812      15.578      15.349      15.241      15.403      15.935    
  16.801      18.066      20.700      25.013      30.082      34.214      35.809      34.214      30.082      25.013    
  20.700      18.066      16.801      15.935      15.403      15.241      15.349      15.578      15.812      16.016    
  13.939      13.931      13.922      13.957      14.107      14.489      15.241      16.408      18.066      21.826    
  29.038      39.241      50.206      58.720      61.937      58.720      50.206      39.241      29.038      21.826    
  18.066      16.408      15.241      14.489      14.107      13.957      13.922      13.931      12.466      12.496    
  12.611      12.864      13.324      14.107      15.349      17.066      20.700      29.038      43.098      61.405    
  80.175      94.397      99.716      94.397      80.175      61.405      43.098      29.038      20.700      17.066    
  15.349      14.107      13.324      12.864      12.611      12.496      11.516      11.570      11.766      12.174    
  12.864      13.957      15.578      18.169      25.013      39.241      61.405      88.971      116.57      137.24    
  144.94      137.24      116.57      88.971      61.405      39.241      25.013      18.169      15.578      13.957    
  12.864      12.174      11.766      11.570      10.960      11.023      11.262      11.766      12.611      13.922    
  15.812      19.689      30.082      50.206      80.175      116.57      152.59      179.47      189.47      179.47    
  152.59      116.57      80.175      50.206      30.082      19.689      15.812      13.922      12.611      11.766    
  11.262      11.023      10.710      10.773      11.023      11.570      12.496      13.931      16.016      21.058    
  34.214      58.720      94.397      137.24      179.47      210.96      222.67      210.96      179.47      137.24    
  94.397      58.720      34.214      21.058      16.016      13.931      12.496      11.570      11.023      10.773    
  10.648      10.710      10.960      11.516      12.466      13.939      16.104      21.611      35.809      61.937    
  99.716      144.94      189.47      222.67      235.02      222.67      189.47      144.94      99.716      61.937    
  35.809      21.611      16.104      13.939      12.466      11.516      10.960      10.710      10.710      10.773    
  11.023      11.570      12.496      13.931      16.016      21.058      34.214      58.720      94.397      137.24    
  179.47      210.96      222.67      210.96      179.47      137.24      94.397      58.720      34.214      21.058    
  16.016      13.931      12.496      11.570      11.023      10.773      10.960      11.023      11.262      11.766    
  12.611      13.922      15.812      19.689      30.082      50.206      80.175      116.57      152.59      179.47    
  189.47      179.47      152.59      116.57      80.175      50.206      30.082      19.689      15.812      13.922    
  12.611      11.766      11.262      11.023      11.516      11.570      11.766      12.174      12.864      13.957    
  15.578      18.169      25.013      39.241      61.405      88.971      116.57      137.24      144.94      137.24    
  116.57      88.971      61.405      39.241      25.013      18.169      15.578      13.957      12.864      12.174    
  11.766      11.570      12.466      12.496      12.611      12.864      13.324      14.107      15.349      17.066    
  20.700      29.038      43.098      61.405      80.175      94.397      99.716      94.397      80.175      61.405    
  43.098      29.038      20.700      17.066      15.349      14.107      13.324      12.864      12.611      12.496    
  13.939      13.931      13.922      13.957      14.107      14.489      15.241      16.408      18.066      21.826    
  29.038      39.241      50.206      58.720      61.937      58.720      50.206      39.241      29.038      21.826    
  18.066      16.408      15.241      14.489      14.107      13.957      13.922      13.931      16.104      16.016    
  15.812      15.578      15.349      15.241      15.403      15.935      16.801      18.066      20.700      25.013    
  30.082      34.214      35.809      34.214      30.082      25.013      20.700      18.066      16.801      15.935    
  15.403      15.241      15.349      15.578      15.812      16.016      21.611      21.058      19.689      18.169    
  17.066      16.408      15.935      15.756      15.935      16.408      17.066      18.169      19.689      21.058    
  21.611      21.058      19.689      18.169      17.066      16.408      15.935      15.756      15.935      16.408    
  17.066      18.169      19.689      21.058      35.809      34.214      30.082      25.013      20.700      18.066    
  16.801      15.935      15.403      15.241      15.349      15.578      15.812      16.016      16.104      16.016    
  15.812      15.578      15.349      15.241      15.403      15.935      16.801      18.066      20.700      25.013    
  30.082      34.214      61.937      58.720      50.206      39.241      29.038      21.826      18.066      16.408    
  15.241      14.489      14.107      13.957      13.922      13.931      13.939      13.931      13.922      13.957    
  14.107      14.489      15.241      16.408      18.066      21.826      29.038      39.241      50.206      58.720    
  99.716      94.397      80.175      61.405      43.098      29.038      20.700      17.066      15.349      14.107    
  13.324      12.864      12.611      12.496      12.466      12.496      12.611      12.864      13.324      14.107    
  15.349      17.066      20.700      29.038      43.098      61.405      80.175      94.397      144.94      137.24    
  116.57      88.971      61.405      39.241      25.013      18.169      15.578      13.957      12.864      12.174    
  11.766      11.570      11.516      11.570      11.766      12.174      12.864      13.957      15.578      18.169    
  25.013      39.241      61.405      88.971      116.57      137.24      189.47      179.47      152.59      116.57    
  80.175      50.206      30.082      19.689      15.812      13.922      12.611      11.766      11.262      11.023    
  10.960      11.023      11.262      11.766      12.611      13.922      15.812      19.689      30.082      50.206    
  80.175      116.57      152.59      179.47      222.67      210.96      179.47      137.24      94.397      58.720    
  34.214      21.058      16.016      13.931      12.496      11.570      11.023      10.773      10.710      10.773    
  11.023      11.570      12.496      13.931      16.016      21.058      34.214      58.720      94.397      137.24    
  179.47      210.96      180.02      170.51      144.94      110.68      76.156      47.846      28.996      19.395    
  15.835      14.010      12.762      11.974      11.516      11.305      11.250      11.305      11.516      11.974    
  12.762      14.010      15.835      19.395      28.996      47.846      76.156      110.68      144.94      170.51    
  170.51      161.48      137.24      104.78      72.126      45.472      27.877      19.039      15.765      13.992    
  12.783      12.018      11.570      11.360      11.305      11.360      11.570      12.018      12.783      13.992    
  15.765      19.039      27.877      45.472      72.126      104.78      137.24      161.48      144.94      137.24    
  116.57      88.971      61.405      39.241      25.013      18.169      15.578      13.957      12.864      12.174    
  11.766      11.570      11.516      11.570      11.766      12.174      12.864      13.957      15.578      18.169    
  25.013      39.241      61.405      88.971      116.57      137.24      110.68      104.78      88.971      68.020    
  47.420      31.361      21.594      17.220      15.315      13.946      13.050      12.497      12.174      12.018    