unknown system                          
   1.00000000000000     
     3.263418    0.000000    0.000000
     0.000000    3.263418    0.000000
     0.000000    0.000000    3.263418
   Fe
     4
Direct
  0.000000  0.000000  0.000000
  0.500000  0.500000  0.000000
  0.500000  0.000000  0.500000
  0.000000  0.500000  0.500000
 
   28   28   28
 0.29136665762E+03 0.27607209520E+03 0.23502371078E+03 0.18002074157E+03 0.12405289233E+03
 0.76816307933E+02 0.43347692186E+02 0.24330813159E+02 0.16535583546E+02 0.13931853675E+02
 0.12302263103E+02 0.11250448942E+02 0.10648428685E+02 0.10394523753E+02 0.10339156610E+02
 0.10394523753E+02 0.10648428685E+02 0.11250448942E+02 0.12302263103E+02 0.13931853675E+02
 0.16535583546E+02 0.24330813159E+02 0.43347692186E+02 0.76816307933E+02 0.12405289233E+03
 0.18002074157E+03 0.23502371078E+03 0.27607209520E+03 0.27607209520E+03 0.26158033532E+03
 0.22267024701E+03 0.17050724599E+03 0.11744146659E+03 0.72750567028E+02 0.41260716802E+02
 0.23555804301E+02 0.16401973005E+02 0.13928958416E+02 0.12334977351E+02 0.11304624996E+02
 0.10709729684E+02 0.10452891221E+02 0.10394523753E+02 0.10452891221E+02 0.10709729684E+02
 0.11304624996E+02 0.12334977351E+02 0.13928958416E+02 0.16401973005E+02 0.23555804301E+02
 0.41260716802E+02 0.72750567028E+02 0.11744146659E+03 0.17050724599E+03 0.22267024701E+03
 0.26158033532E+03 0.23502371078E+03 0.22267024701E+03 0.18947201931E+03 0.14493626314E+03
 0.99715565735E+02 0.61937164765E+02 0.35809315565E+02 0.21611160649E+02 0.16104095752E+02
 0.13939147639E+02 0.12465916675E+02 0.11516108790E+02 0.10960347910E+02 0.10709729684E+02
 0.10648428685E+02 0.10709729684E+02 0.10960347910E+02 0.11516108790E+02 0.12465916675E+02
 0.13939147639E+02 0.16104095752E+02 0.21611160649E+02 0.35809315565E+02 0.61937164765E+02
 0.99715565735E+02 0.14493626314E+03 0.18947201931E+03 0.22267024701E+03 0.18002074157E+03
 0.17050724599E+03 0.14493626314E+03 0.11068478235E+03 0.76155635415E+02 0.47845882462E+02
 0.28995954167E+02 0.19395091020E+02 0.15834562678E+02 0.14009665446E+02 0.12762008701E+02
 0.11974419252E+02 0.11516108790E+02 0.11304624996E+02 0.11250448942E+02 0.11304624996E+02
 0.11516108790E+02 0.11974419252E+02 0.12762008701E+02 0.14009665446E+02 0.15834562678E+02
 0.19395091020E+02 0.28995954167E+02 0.47845882462E+02 0.76155635415E+02 0.11068478235E+03
 0.14493626314E+03 0.17050724599E+03 0.12405289233E+03 0.11744146659E+03 0.99715565735E+02
 0.76155635415E+02 0.52841547094E+02 0.34438914342E+02 0.23002870549E+02 0.17751103028E+02
 0.15644524821E+02 0.14216886942E+02 0.13302313745E+02 0.12762008701E+02 0.12465916675E+02
 0.12334977351E+02 0.12302263103E+02 0.12334977351E+02 0.12465916675E+02 0.12762008701E+02
 0.13302313745E+02 0.14216886942E+02 0.15644524821E+02 0.17751103028E+02 0.23002870549E+02
 0.34438914342E+02 0.52841547094E+02 0.76155635415E+02 0.99715565735E+02 0.11744146659E+03
 0.76816307933E+02 0.72750567028E+02 0.61937164765E+02 0.47845882462E+02 0.34438914342E+02
 0.24589926912E+02 0.19164098681E+02 0.16911970821E+02 0.15580701467E+02 0.14690165562E+02
 0.14216886942E+02 0.14009665446E+02 0.13939147639E+02 0.13928958416E+02 0.13931853675E+02
 0.13928958416E+02 0.13939147639E+02 0.14009665446E+02 0.14216886942E+02 0.14690165562E+02
 0.15580701467E+02 0.16911970821E+02 0.19164098681E+02 0.24589926912E+02 0.34438914342E+02
 0.47845882462E+02 0.61937164765E+02 0.72750567028E+02 0.43347692186E+02 0.41260716802E+02
 0.35809315565E+02 0.28995954167E+02 0.23002870549E+02 0.19164098681E+02 0.17393872628E+02
 0.16432317734E+02 0.15808093652E+02 0.15580701467E+02 0.15644524821E+02 0.15834562678E+02
 0.16104095752E+02 0.16401973005E+02 0.16535583546E+02 0.16401973005E+02 0.16104095752E+02
 0.15834562678E+02 0.15644524821E+02 0.15580701467E+02 0.15808093652E+02 0.16432317734E+02
 0.17393872628E+02 0.19164098681E+02 0.23002870549E+02 0.28995954167E+02 0.35809315565E+02
 0.41260716802E+02 0.24330813159E+02 0.23555804301E+02 0.21611160649E+02 0.19395091020E+02
 0.17751103028E+02 0.16911970821E+02 0.16432317734E+02 0.16245715205E+02 0.16432317734E+02
 0.16911970821E+02 0.17751103028E+02 0.19395091020E+02 0.21611160649E+02 0.23555804301E+02
 0.24330813159E+02 0.23555804301E+02 0.21611160649E+02 0.19395091020E+02 0.17751103028E+02
 0.16911970821E+02 0.16432317734E+02 0.16245715205E+02 0.16432317734E+02 0.16911970821E+02
 0.17751103028E+02 0.19395091020E+02 0.21611160649E+02 0.23555804301E+02 0.16535583546E+02
 0.16401973005E+02 0.16104095752E+02 0.15834562678E+02 0.15644524821E+02 0.15580701467E+02
 0.15808093652E+02 0.16432317734E+02 0.17393872628E+02 0.19164098681E+02 0.23002870549E+02
 0.28995954167E+02 0.35809315565E+02 0.41260716802E+02 0.43347692186E+02 0.41260716802E+02
 0.35809315565E+02 0.28995954167E+02 0.23002870549E+02 0.19164098681E+02 0.17393872628E+02
 0.16432317734E+02 0.15808093652E+02 0.15580701467E+02 0.15644524821E+02 0.15834562678E+02
 0.16104095752E+02 0.16401973005E+02 0.13931853675E+02 0.13928958416E+02 0.13939147639E+02
 0.14009665446E+02 0.14216886942E+02 0.14690165562E+02 0.15580701467E+02 0.16911970821E+02
 0.19164098681E+02 0.24589926912E+02 0.34438914342E+02 0.47845882462E+02 0.61937164765E+02
 0.72750567028E+02 0.76816307933E+02 0.72750567028E+02 0.61937164765E+02 0.47845882462E+02
 0.34438914342E+02 0.24589926912E+02 0.19164098681E+02 0.16911970821E+02 0.15580701467E+02
 0.14690165562E+02 0.14216886942E+02 0.14009665446E+02 0.13939147639E+02 0.13928958416E+02
 0.12302263103E+02 0.12334977351E+02 0.12465916675E+02 0.12762008701E+02 0.13302313745E+02
 0.14216886942E+02 0.15644524821E+02 0.17751103028E+02 0.23002870549E+02 0.34438914342E+02
 0.52841547094E+02 0.76155635415E+02 0.99715565735E+02 0.11744146659E+03 0.12405289233E+03
 0.11744146659E+03 0.99715565735E+02 0.76155635415E+02 0.52841547094E+02 0.34438914342E+02
 0.23002870549E+02 0.17751103028E+02 0.15644524821E+02 0.14216886942E+02 0.13302313745E+02
 0.12762008701E+02 0.12465916675E+02 0.12334977351E+02 0.11250448942E+02 0.11304624996E+02
 0.11516108790E+02 0.11974419252E+02 0.12762008701E+02 0.14009665446E+02 0.15834562678E+02
 0.19395091020E+02 0.28995954167E+02 0.47845882462E+02 0.76155635415E+02 0.11068478235E+03
 0.14493626314E+03 0.17050724599E+03 0.18002074157E+03 0.17050724599E+03 0.14493626314E+03
 0.11068478235E+03 0.76155635415E+02 0.47845882462E+02 0.28995954167E+02 0.19395091020E+02
 0.15834562678E+02 0.14009665446E+02 0.12762008701E+02 0.11974419252E+02 0.11516108790E+02
 0.11304624996E+02 0.10648428685E+02 0.10709729684E+02 0.10960347910E+02 0.11516108790E+02
 0.12465916675E+02 0.13939147639E+02 0.16104095752E+02 0.21611160649E+02 0.35809315565E+02
 0.61937164765E+02 0.99715565735E+02 0.14493626314E+03 0.18947201931E+03 0.22267024701E+03
 0.23502371078E+03 0.22267024701E+03 0.18947201931E+03 0.14493626314E+03 0.99715565735E+02
 0.61937164765E+02 0.35809315565E+02 0.21611160649E+02 0.16104095752E+02 0.13939147639E+02
 0.12465916675E+02 0.11516108790E+02 0.10960347910E+02 0.10709729684E+02 0.10394523753E+02
 0.10452891221E+02 0.10709729684E+02 0.11304624996E+02 0.12334977351E+02 0.13928958416E+02
 0.16401973005E+02 0.23555804301E+02 0.41260716802E+02 0.72750567028E+02 0.11744146659E+03
 0.17050724599E+03 0.22267024701E+03 0.26158033532E+03 0.27607209520E+03 0.26158033532E+03
 0.22267024701E+03 0.17050724599E+03 0.11744146659E+03 0.72750567028E+02 0.41260716802E+02
 0.23555804301E+02 0.16401973005E+02 0.13928958416E+02 0.12334977351E+02 0.11304624996E+02
 0.10709729684E+02 0.10452891221E+02 0.10339156610E+02 0.10394523753E+02 0.10648428685E+02
 0.11250448942E+02 0.12302263103E+02 0.13931853675E+02 0.16535583546E+02 0.24330813159E+02
 0.43347692186E+02 0.76816307933E+02 0.12405289233E+03 0.18002074157E+03 0.23502371078E+03
 0.27607209520E+03 0.29136665762E+03 0.27607209520E+03 0.23502371078E+03 0.18002074157E+03
 0.12405289233E+03 0.76816307933E+02 0.43347692186E+02 0.24330813159E+02 0.16535583546E+02
 0.13931853675E+02 0.12302263103E+02 0.11250448942E+02 0.10648428685E+02 0.10394523753E+02
 0.10394523753E+02 0.10452891221E+02 0.10709729684E+02 0.11304624996E+02 0.12334977351E+02
 0.13928958416E+02 0.16401973005E+02 0.23555804301E+02 0.41260716802E+02 0.72750567028E+02
 0.11744146659E+03 0.17050724599E+03 0.22267024701E+03 0.26158033532E+03 0.27607209520E+03
 0.26158033532E+03 0.22267024701E+03 0.17050724599E+03 0.11744146659E+03 0.72750567028E+02
 0.41260716802E+02 0.23555804301E+02 0.16401973005E+02 0.13928958416E+02 0.12334977351E+02
 0.11304624996E+02 0.10709729684E+02 0.10452891221E+02 0.10648428685E+02 0.10709729684E+02
 0.10960347910E+02 0.11516108790E+02 0.12465916675E+02 0.13939147639E+02 0.16104095752E+02
 0.21611160649E+02 0.35809315565E+02 0.61937164765E+02 0.99715565735E+02 0.14493626314E+03
 0.18947201931E+03 0.22267024701E+03 0.23502371078E+03 0.22267024701E+03 0.18947201931E+03
 0.14493626314E+03 0.99715565735E+02 0.61937164765E+02 0.35809315565E+02 0.21611160649E+02
 0.16104095752E+02 0.13939147639E+02 0.12465916675E+02 0.11516108790E+02 0.10960347910E+02
 0.10709729684E+02 0.11250448942E+02 0.11304624996E+02 0.11516108790E+02 0.11974419252E+02
 0.12762008701E+02 0.14009665446E+02 0.15834562678E+02 0.19395091020E+02 0.28995954167E+02
 0.47845882462E+02 0.76155635415E+02 0.11068478235E+03 0.14493626314E+03 0.17050724599E+03
 0.18002074157E+03 0.17050724599E+03 0.14493626314E+03 0.11068478235E+03 0.76155635415E+02
 0.47845882462E+02 0.28995954167E+02 0.19395091020E+02 0.15834562678E+02 0.14009665446E+02
 0.12762008701E+02 0.11974419252E+02 0.11516108790E+02 0.11304624996E+02 0.12302263103E+02
 0.12334977351E+02 0.12465916675E+02 0.12762008701E+02 0.13302313745E+02 0.14216886942E+02
 0.15644524821E+02 0.17751103028E+02 0.23002870549E+02 0.34438914342E+02 0.52841547094E+02
 0.76155635415E+02 0.99715565735E+02 0.11744146659E+03 0.12405289233E+03 0.11744146659E+03
 0.99715565735E+02 0.76155635415E+02 0.52841547094E+02 0.34438914342E+02 0.23002870549E+02
 0.17751103028E+02 0.15644524821E+02 0.14216886942E+02 0.13302313745E+02 0.12762008701E+02
 0.12465916675E+02 0.12334977351E+02 0.13931853675E+02 0.13928958416E+02 0.13939147639E+02
 0.14009665446E+02 0.14216886942E+02 0.14690165562E+02 0.15580701467E+02 0.16911970821E+02
 0.19164098681E+02 0.24589926912E+02 0.34438914342E+02 0.47845882462E+02 0.61937164765E+02
 0.72750567028E+02 0.76816307933E+02 0.72750567028E+02 0.61937164765E+02 0.47845882462E+02
 0.34438914342E+02 0.24589926912E+02 0.19164098681E+02 0.16911970821E+02 0.15580701467E+02
 0.14690165562E+02 0.14216886942E+02 0.14009665446E+02 0.13939147639E+02 0.13928958416E+02
 0.16535583546E+02 0.16401973005E+02 0.16104095752E+02 0.15834562678E+02 0.15644524821E+02
 0.15580701467E+02 0.15808093652E+02 0.16432317734E+02 0.17393872628E+02 0.19164098681E+02
 0.23002870549E+02 0.28995954167E+02 0.35809315565E+02 0.41260716802E+02 0.43347692186E+02
 0.41260716802E+02 0.35809315565E+02 0.28995954167E+02 0.23002870549E+02 0.19164098681E+02
 0.17393872628E+02 0.16432317734E+02 0.15808093652E+02 0.15580701467E+02 0.15644524821E+02
 0.15834562678E+02 0.16104095752E+02 0.16401973005E+02 0.24330813159E+02 0.23555804301E+02
 0.21611160649E+02 0.19395091020E+02 0.17751103028E+02 0.16911970821E+02 0.16432317734E+02
 0.16245715205E+02 0.16432317734E+02 0.16911970821E+02 0.17751103028E+02 0.19395091020E+02
 0.21611160649E+02 0.23555804301E+02 0.24330813159E+02 0.23555804301E+02 0.21611160649E+02
 0.19395091020E+02 0.17751103028E+02 0.16911970821E+02 0.16432317734E+02 0.16245715205E+02
 0.16432317734E+02 0.16911970821E+02 0.17751103028E+02 0.19395091020E+02 0.21611160649E+02
 0.23555804301E+02 0.43347692186E+02 0.41260716802E+02 0.35809315565E+02 0.28995954167E+02
 0.23002870549E+02 0.19164098681E+02 0.17393872628E+02 0.16432317734E+02 0.15808093652E+02
 0.15580701467E+02 0.15644524821E+02 0.15834562678E+02 0.16104095752E+02 0.16401973005E+02
 0.16535583546E+02 0.16401973005E+02 0.16104095752E+02 0.15834562678E+02 0.15644524821E+02
 0.15580701467E+02 0.15808093652E+02 0.16432317734E+02 0.17393872628E+02 0.19164098681E+02
 0.23002870549E+02 0.28995954167E+02 0.35809315565E+02 0.41260716802E+02 0.76816307933E+02
 0.72750567028E+02 0.61937164765E+02 0.47845882462E+02 0.34438914342E+02 0.24589926912E+02
 0.19164098681E+02 0.16911970821E+02 0.15580701467E+02 0.14690165562E+02 0.14216886942E+02
 0.14009665446E+02 0.13939147639E+02 0.13928958416E+02 0.13931853675E+02 0.13928958416E+02
 0.13939147639E+02 0.14009665446E+02 0.14216886942E+02 0.14690165562E+02 0.15580701467E+02
 0.16911970821E+02 0.19164098681E+02 0.24589926912E+02 0.34438914342E+02 0.47845882462E+02
 0.61937164765E+02 0.72750567028E+02 0.12405289233E+03 0.11744146659E+03 0.99715565735E+02
 0.76155635415E+02 0.52841547094E+02 0.34438914342E+02 0.23002870549E+02 0.17751103028E+02
 0.15644524821E+02 0.14216886942E+02 0.13302313745E+02 0.12762008701E+02 0.12465916675E+02
 0.12334977351E+02 0.12302263103E+02 0.12334977351E+02 0.12465916675E+02 0.12762008701E+02
 0.13302313745E+02 0.14216886942E+02 0.15644524821E+02 0.17751103028E+02 0.23002870549E+02
 0.34438914342E+02 0.52841547094E+02 0.76155635415E+02 0.99715565735E+02 0.11744146659E+03
 0.18002074157E+03 0.17050724599E+03 0.14493626314E+03 0.11068478235E+03 0.76155635415E+02
 0.47845882462E+02 0.28995954167E+02 0.19395091020E+02 0.15834562678E+02 0.14009665446E+02
 0.12762008701E+02 0.11974419252E+02 0.11516108790E+02 0.11304624996E+02 0.11250448942E+02
 0.11304624996E+02 0.11516108790E+02 0.11974419252E+02 0.12762008701E+02 0.14009665446E+02
 0.15834562678E+02 0.19395091020E+02 0.28995954167E+02 0.47845882462E+02 0.76155635415E+02
 0.11068478235E+03 0.14493626314E+03 0.17050724599E+03 0.23502371078E+03 0.22267024701E+03
 0.18947201931E+03 0.14493626314E+03 0.99715565735E+02 0.61937164765E+02 0.35809315565E+02
 0.21611160649E+02 0.16104095752E+02 0.13939147639E+02 0.12465916675E+02 0.11516108790E+02
 0.10960347910E+02 0.10709729684E+02 0.10648428685E+02 0.10709729684E+02 0.10960347910E+02
 0.11516108790E+02 0.12465916675E+02 0.13939147639E+02 0.16104095752E+02 0.21611160649E+02
 0.35809315565E+02 0.61937164765E+02 0.99715565735E+02 0.14493626314E+03 0.18947201931E+03
 0.22267024701E+03 0.27607209520E+03 0.26158033532E+03 0.22267024701E+03 0.17050724599E+03
 0.11744146659E+03 0.72750567028E+02 0.41260716802E+02 0.23555804301E+02 0.16401973005E+02
 0.13928958416E+02 0.12334977351E+02 0.11304624996E+02 0.10709729684E+02 0.10452891221E+02
 0.10394523753E+02 0.10452891221E+02 0.10709729684E+02 0.11304624996E+02 0.12334977351E+02
 0.13928958416E+02 0.16401973005E+02 0.23555804301E+02 0.41260716802E+02 0.72750567028E+02
 0.11744146659E+03 0.17050724599E+03 0.22267024701E+03 0.26158033532E+03 0.27607209520E+03
 0.26158033532E+03 0.22267024701E+03 0.17050724599E+03 0.11744146659E+03 0.72750567028E+02
 0.41260716802E+02 0.23555804301E+02 0.16401973005E+02 0.13928958416E+02 0.12334977351E+02
 0.11304624996E+02 0.10709729684E+02 0.10452891221E+02 0.10394523753E+02 0.10452891221E+02
 0.10709729684E+02 0.11304624996E+02 0.12334977351E+02 0.13928958416E+02 0.16401973005E+02
 0.23555804301E+02 0.41260716802E+02 0.72750567028E+02 0.11744146659E+03 0.17050724599E+03
 0.22267024701E+03 0.26158033532E+03 0.26158033532E+03 0.24784610125E+03 0.21095672184E+03
 0.16148497992E+03 0.11117849445E+03 0.68913462471E+02 0.39307146345E+02 0.22842423449E+02
 0.16282892643E+02 0.13924832586E+02 0.12367612301E+02 0.11359535835E+02 0.10772679541E+02
 0.10513837260E+02 0.10452891221E+02 0.10513837260E+02 0.10772679541E+02 0.11359535835E+02
 0.12367612301E+02 0.13924832586E+02 0.16282892643E+02 0.22842423449E+02 0.39307146345E+02
 0.68913462471E+02 0.11117849445E+03 0.16148497992E+03 0.21095672184E+03 0.24784610125E+03
 0.22267024701E+03 0.21095672184E+03 0.17947278958E+03 0.13723784614E+03 0.94396653165E+02
 0.58719903104E+02 0.34214124306E+02 0.21058181512E+02 0.16016453749E+02 0.13930632214E+02
 0.12495953410E+02 0.11569524692E+02 0.11023384086E+02 0.10772679541E+02 0.10709729684E+02
 0.10772679541E+02 0.11023384086E+02 0.11569524692E+02 0.12495953410E+02 0.13930632214E+02
 0.16016453749E+02 0.21058181512E+02 0.34214124306E+02 0.58719903104E+02 0.94396653165E+02
 0.13723784614E+03 0.17947278958E+03 0.21095672184E+03 0.17050724599E+03 0.16148497992E+03
 0.13723784614E+03 0.10478126624E+03 0.72126113827E+02 0.45472417219E+02 0.27876701586E+02
 0.19038744299E+02 0.15765444889E+02 0.13992368144E+02 0.12782651165E+02 0.12017704470E+02
 0.11569524692E+02 0.11359535835E+02 0.11304624996E+02 0.11359535835E+02 0.11569524692E+02
 0.12017704470E+02 0.12782651165E+02 0.13992368144E+02 0.15765444889E+02 0.19038744299E+02
 0.27876701586E+02 0.45472417219E+02 0.72126113827E+02 0.10478126624E+03 0.13723784614E+03
 0.16148497992E+03 0.11744146659E+03 0.11117849445E+03 0.94396653165E+02 0.72126113827E+02
 0.50161068097E+02 0.32933512995E+02 0.22346583875E+02 0.17553351582E+02 0.15565098485E+02
 0.14184900033E+02 0.13303485005E+02 0.12782651165E+02 0.12495953410E+02 0.12367612301E+02
 0.12334977351E+02 0.12367612301E+02 0.12495953410E+02 0.12782651165E+02 0.13303485005E+02
 0.14184900033E+02 0.15565098485E+02 0.17553351582E+02 0.22346583875E+02 0.32933512995E+02
 0.50161068097E+02 0.72126113827E+02 0.94396653165E+02 0.11117849445E+03 0.72750567028E+02
 0.68913462471E+02 0.58719903104E+02 0.45472417219E+02 0.32933512995E+02 0.23806207223E+02
 0.18847462310E+02 0.16777251919E+02 0.15488442854E+02 0.14634223843E+02 0.14184900033E+02
 0.13992368144E+02 0.13930632214E+02 0.13924832586E+02 0.13928958416E+02 0.13924832586E+02
 0.13930632214E+02 0.13992368144E+02 0.14184900033E+02 0.14634223843E+02 0.15488442854E+02
 0.16777251919E+02 0.18847462310E+02 0.23806207223E+02 0.32933512995E+02 0.45472417219E+02
 0.58719903104E+02 0.68913462471E+02 0.41260716802E+02 0.39307146345E+02 0.34214124306E+02
 0.27876701586E+02 0.22346583875E+02 0.18847462310E+02 0.17232717134E+02 0.16297778230E+02
 0.15697854030E+02 0.15488442854E+02 0.15565098485E+02 0.15765444889E+02 0.16016453749E+02
 0.16282892643E+02 0.16401973005E+02 0.16282892643E+02 0.16016453749E+02 0.15765444889E+02
 0.15565098485E+02 0.15488442854E+02 0.15697854030E+02 0.16297778230E+02 0.17232717134E+02
 0.18847462310E+02 0.22346583875E+02 0.27876701586E+02 0.34214124306E+02 0.39307146345E+02
 0.23555804301E+02 0.22842423449E+02 0.21058181512E+02 0.19038744299E+02 0.17553351582E+02
 0.16777251919E+02 0.16297778230E+02 0.16112438887E+02 0.16297778230E+02 0.16777251919E+02
 0.17553351582E+02 0.19038744299E+02 0.21058181512E+02 0.22842423449E+02 0.23555804301E+02
 0.22842423449E+02 0.21058181512E+02 0.19038744299E+02 0.17553351582E+02 0.16777251919E+02
 0.16297778230E+02 0.16112438887E+02 0.16297778230E+02 0.16777251919E+02 0.17553351582E+02
 0.19038744299E+02 0.21058181512E+02 0.22842423449E+02 0.16401973005E+02 0.16282892643E+02
 0.16016453749E+02 0.15765444889E+02 0.15565098485E+02 0.15488442854E+02 0.15697854030E+02
 0.16297778230E+02 0.17232717134E+02 0.18847462310E+02 0.22346583875E+02 0.27876701586E+02
 0.34214124306E+02 0.39307146345E+02 0.41260716802E+02 0.39307146345E+02 0.34214124306E+02
 0.27876701586E+02 0.22346583875E+02 0.18847462310E+02 0.17232717134E+02 0.16297778230E+02
 0.15697854030E+02 0.15488442854E+02 0.15565098485E+02 0.15765444889E+02 0.16016453749E+02
 0.16282892643E+02 0.13928958416E+02 0.13924832586E+02 0.13930632214E+02 0.13992368144E+02
 0.14184900033E+02 0.14634223843E+02 0.15488442854E+02 0.16777251919E+02 0.18847462310E+02
 0.23806207223E+02 0.32933512995E+02 0.45472417219E+02 0.58719903104E+02 0.68913462471E+02
 0.72750567028E+02 0.68913462471E+02 0.58719903104E+02 0.45472417219E+02 0.32933512995E+02
 0.23806207223E+02 0.18847462310E+02 0.16777251919E+02 0.15488442854E+02 0.14634223843E+02
 0.14184900033E+02 0.13992368144E+02 0.13930632214E+02 0.13924832586E+02 0.12334977351E+02
 0.12367612301E+02 0.12495953410E+02 0.12782651165E+02 0.13303485005E+02 0.14184900033E+02
 0.15565098485E+02 0.17553351582E+02 0.22346583875E+02 0.32933512995E+02 0.50161068097E+02
 0.72126113827E+02 0.94396653165E+02 0.11117849445E+03 0.11744146659E+03 0.11117849445E+03
 0.94396653165E+02 0.72126113827E+02 0.50161068097E+02 0.32933512995E+02 0.22346583875E+02
 0.17553351582E+02 0.15565098485E+02 0.14184900033E+02 0.13303485005E+02 0.12782651165E+02
 0.12495953410E+02 0.12367612301E+02 0.11304624996E+02 0.11359535835E+02 0.11569524692E+02
 0.12017704470E+02 0.12782651165E+02 0.13992368144E+02 0.15765444889E+02 0.19038744299E+02
 0.27876701586E+02 0.45472417219E+02 0.72126113827E+02 0.10478126624E+03 0.13723784614E+03
 0.16148497992E+03 0.17050724599E+03 0.16148497992E+03 0.13723784614E+03 0.10478126624E+03
 0.72126113827E+02 0.45472417219E+02 0.27876701586E+02 0.19038744299E+02 0.15765444889E+02
 0.13992368144E+02 0.12782651165E+02 0.12017704470E+02 0.11569524692E+02 0.11359535835E+02
 0.10709729684E+02 0.10772679541E+02 0.11023384086E+02 0.11569524692E+02 0.12495953410E+02
 0.13930632214E+02 0.16016453749E+02 0.21058181512E+02 0.34214124306E+02 0.58719903104E+02
 0.94396653165E+02 0.13723784614E+03 0.17947278958E+03 0.21095672184E+03 0.22267024701E+03
 0.21095672184E+03 0.17947278958E+03 0.13723784614E+03 0.94396653165E+02 0.58719903104E+02
 0.34214124306E+02 0.21058181512E+02 0.16016453749E+02 0.13930632214E+02 0.12495953410E+02
 0.11569524692E+02 0.11023384086E+02 0.10772679541E+02 0.10452891221E+02 0.10513837260E+02
 0.10772679541E+02 0.11359535835E+02 0.12367612301E+02 0.13924832586E+02 0.16282892643E+02
 0.22842423449E+02 0.39307146345E+02 0.68913462471E+02 0.11117849445E+03 0.16148497992E+03
 0.21095672184E+03 0.24784610125E+03 0.26158033532E+03 0.24784610125E+03 0.21095672184E+03
 0.16148497992E+03 0.11117849445E+03 0.68913462471E+02 0.39307146345E+02 0.22842423449E+02
 0.16282892643E+02 0.13924832586E+02 0.12367612301E+02 0.11359535835E+02 0.10772679541E+02
 0.10513837260E+02 0.10394523753E+02 0.10452891221E+02 0.10709729684E+02 0.11304624996E+02
 0.12334977351E+02 0.13928958416E+02 0.16401973005E+02 0.23555804301E+02 0.41260716802E+02
 0.72750567028E+02 0.11744146659E+03 0.17050724599E+03 0.22267024701E+03 0.26158033532E+03
 0.27607209520E+03 0.26158033532E+03 0.22267024701E+03 0.17050724599E+03 0.11744146659E+03
 0.72750567028E+02 0.41260716802E+02 0.23555804301E+02 0.16401973005E+02 0.13928958416E+02
 0.12334977351E+02 0.11304624996E+02 0.10709729684E+02 0.10452891221E+02 0.10452891221E+02
 0.10513837260E+02 0.10772679541E+02 0.11359535835E+02 0.12367612301E+02 0.13924832586E+02
 0.16282892643E+02 0.22842423449E+02 0.39307146345E+02 0.68913462471E+02 0.11117849445E+03
 0.16148497992E+03 0.21095672184E+03 0.24784610125E+03 0.26158033532E+03 0.24784610125E+03
 0.21095672184E+03 0.16148497992E+03 0.11117849445E+03 0.68913462471E+02 0.39307146345E+02
 0.22842423449E+02 0.16282892643E+02 0.13924832586E+02 0.12367612301E+02 0.11359535835E+02
 0.10772679541E+02 0.10513837260E+02 0.10709729684E+02 0.10772679541E+02 0.11023384086E+02
 0.11569524692E+02 0.12495953410E+02 0.13930632214E+02 0.16016453749E+02 0.21058181512E+02
 0.34214124306E+02 0.58719903104E+02 0.94396653165E+02 0.13723784614E+03 0.17947278958E+03
 0.21095672184E+03 0.22267024701E+03 0.21095672184E+03 0.17947278958E+03 0.13723784614E+03
 0.94396653165E+02 0.58719903104E+02 0.34214124306E+02 0.21058181512E+02 0.16016453749E+02
 0.13930632214E+02 0.12495953410E+02 0.11569524692E+02 0.11023384086E+02 0.10772679541E+02
 0.11304624996E+02 0.11359535835E+02 0.11569524692E+02 0.12017704470E+02 0.12782651165E+02
 0.13992368144E+02 0.15765444889E+02 0.19038744299E+02 0.27876701586E+02 0.45472417219E+02
 0.72126113827E+02 0.10478126624E+03 0.13723784614E+03 0.16148497992E+03 0.17050724599E+03
 0.16148497992E+03 0.13723784614E+03 0.10478126624E+03 0.72126113827E+02 0.45472417219E+02
 0.27876701586E+02 0.19038744299E+02 0.15765444889E+02 0.13992368144E+02 0.12782651165E+02
 0.12017704470E+02 0.11569524692E+02 0.11359535835E+02 0.12334977351E+02 0.12367612301E+02
 0.12495953410E+02 0.12782651165E+02 0.13303485005E+02 0.14184900033E+02 0.15565098485E+02
 0.17553351582E+02 0.22346583875E+02 0.32933512995E+02 0.50161068097E+02 0.72126113827E+02
 0.94396653165E+02 0.11117849445E+03 0.11744146659E+03 0.11117849445E+03 0.94396653165E+02
 0.72126113827E+02 0.50161068097E+02 0.32933512995E+02 0.22346583875E+02 0.17553351582E+02
 0.15565098485E+02 0.14184900033E+02 0.13303485005E+02 0.12782651165E+02 0.12495953410E+02
 0.12367612301E+02 0.13928958416E+02 0.13924832586E+02 0.13930632214E+02 0.13992368144E+02
 0.14184900033E+02 0.14634223843E+02 0.15488442854E+02 0.16777251919E+02 0.18847462310E+02
 0.23806207223E+02 0.32933512995E+02 0.45472417219E+02 0.58719903104E+02 0.68913462471E+02
 0.72750567028E+02 0.68913462471E+02 0.58719903104E+02 0.45472417219E+02 0.32933512995E+02
 0.23806207223E+02 0.18847462310E+02 0.16777251919E+02 0.15488442854E+02 0.14634223843E+02
 0.14184900033E+02 0.13992368144E+02 0.13930632214E+02 0.13924832586E+02 0.16401973005E+02
 0.16282892643E+02 0.16016453749E+02 0.15765444889E+02 0.15565098485E+02 0.15488442854E+02
 0.15697854030E+02 0.16297778230E+02 0.17232717134E+02 0.18847462310E+02 0.22346583875E+02
 0.27876701586E+02 0.34214124306E+02 0.39307146345E+02 0.41260716802E+02 0.39307146345E+02
 0.34214124306E+02 0.27876701586E+02 0.22346583875E+02 0.18847462310E+02 0.17232717134E+02
 0.16297778230E+02 0.15697854030E+02 0.15488442854E+02 0.15565098485E+02 0.15765444889E+02
 0.16016453749E+02 0.16282892643E+02 0.23555804301E+02 0.22842423449E+02 0.21058181512E+02
 0.19038744299E+02 0.17553351582E+02 0.16777251919E+02 0.16297778230E+02 0.16112438887E+02
 0.16297778230E+02 0.16777251919E+02 0.17553351582E+02 0.19038744299E+02 0.21058181512E+02
 0.22842423449E+02 0.23555804301E+02 0.22842423449E+02 0.21058181512E+02 0.19038744299E+02
 0.17553351582E+02 0.16777251919E+02 0.16297778230E+02 0.16112438887E+02 0.16297778230E+02
 0.16777251919E+02 0.17553351582E+02 0.19038744299E+02 0.21058181512E+02 0.22842423449E+02
 0.41260716802E+02 0.39307146345E+02 0.34214124306E+02 0.27876701586E+02 0.22346583875E+02
 0.18847462310E+02 0.17232717134E+02 0.16297778230E+02 0.15697854030E+02 0.15488442854E+02
 0.15565098485E+02 0.15765444889E+02 0.16016453749E+02 0.16282892643E+02 0.16401973005E+02
 0.16282892643E+02 0.16016453749E+02 0.15765444889E+02 0.15565098485E+02 0.15488442854E+02
 0.15697854030E+02 0.16297778230E+02 0.17232717134E+02 0.18847462310E+02 0.22346583875E+02
 0.27876701586E+02 0.34214124306E+02 0.39307146345E+02 0.72750567028E+02 0.68913462471E+02
 0.58719903104E+02 0.45472417219E+02 0.32933512995E+02 0.23806207223E+02 0.18847462310E+02
 0.16777251919E+02 0.15488442854E+02 0.14634223843E+02 0.14184900033E+02 0.13992368144E+02
 0.13930632214E+02 0.13924832586E+02 0.13928958416E+02 0.13924832586E+02 0.13930632214E+02
 0.13992368144E+02 0.14184900033E+02 0.14634223843E+02 0.15488442854E+02 0.16777251919E+02
 0.18847462310E+02 0.23806207223E+02 0.32933512995E+02 0.45472417219E+02 0.58719903104E+02
 0.68913462471E+02 0.11744146659E+03 0.11117849445E+03 0.94396653165E+02 0.72126113827E+02
 0.50161068097E+02 0.32933512995E+02 0.22346583875E+02 0.17553351582E+02 0.15565098485E+02
 0.14184900033E+02 0.13303485005E+02 0.12782651165E+02 0.12495953410E+02 0.12367612301E+02
 0.12334977351E+02 0.12367612301E+02 0.12495953410E+02 0.12782651165E+02 0.13303485005E+02
 0.14184900033E+02 0.15565098485E+02 0.17553351582E+02 0.22346583875E+02 0.32933512995E+02
 0.50161068097E+02 0.72126113827E+02 0.94396653165E+02 0.11117849445E+03 0.17050724599E+03
 0.16148497992E+03 0.13723784614E+03 0.10478126624E+03 0.72126113827E+02 0.45472417219E+02
 0.27876701586E+02 0.19038744299E+02 0.15765444889E+02 0.13992368144E+02 0.12782651165E+02
 0.12017704470E+02 0.11569524692E+02 0.11359535835E+02 0.11304624996E+02 0.11359535835E+02
 0.11569524692E+02 0.12017704470E+02 0.12782651165E+02 0.13992368144E+02 0.15765444889E+02
 0.19038744299E+02 0.27876701586E+02 0.45472417219E+02 0.72126113827E+02 0.10478126624E+03
 0.13723784614E+03 0.16148497992E+03 0.22267024701E+03 0.21095672184E+03 0.17947278958E+03
 0.13723784614E+03 0.94396653165E+02 0.58719903104E+02 0.34214124306E+02 0.21058181512E+02
 0.16016453749E+02 0.13930632214E+02 0.12495953410E+02 0.11569524692E+02 0.11023384086E+02
 0.10772679541E+02 0.10709729684E+02 0.10772679541E+02 0.11023384086E+02 0.11569524692E+02
 0.12495953410E+02 0.13930632214E+02 0.16016453749E+02 0.21058181512E+02 0.34214124306E+02
 0.58719903104E+02 0.94396653165E+02 0.13723784614E+03 0.17947278958E+03 0.21095672184E+03
 0.26158033532E+03 0.24784610125E+03 0.21095672184E+03 0.16148497992E+03 0.11117849445E+03
 0.68913462471E+02 0.39307146345E+02 0.22842423449E+02 0.16282892643E+02 0.13924832586E+02
 0.12367612301E+02 0.11359535835E+02 0.10772679541E+02 0.10513837260E+02 0.10452891221E+02
 0.10513837260E+02 0.10772679541E+02 0.11359535835E+02 0.12367612301E+02 0.13924832586E+02
 0.16282892643E+02 0.22842423449E+02 0.39307146345E+02 0.68913462471E+02 0.11117849445E+03
 0.16148497992E+03 0.21095672184E+03 0.24784610125E+03 0.23502371078E+03 0.22267024701E+03
 0.18947201931E+03 0.14493626314E+03 0.99715565735E+02 0.61937164765E+02 0.35809315565E+02
 0.21611160649E+02 0.16104095752E+02 0.13939147639E+02 0.12465916675E+02 0.11516108790E+02
 0.10960347910E+02 0.10709729684E+02 0.10648428685E+02 0.10709729684E+02 0.10960347910E+02
 0.11516108790E+02 0.12465916675E+02 0.13939147639E+02 0.16104095752E+02 0.21611160649E+02
 0.35809315565E+02 0.61937164765E+02 0.99715565735E+02 0.14493626314E+03 0.18947201931E+03
 0.22267024701E+03 0.22267024701E+03 0.21095672184E+03 0.17947278958E+03 0.13723784614E+03
 0.94396653165E+02 0.58719903104E+02 0.34214124306E+02 0.21058181512E+02 0.16016453749E+02
 0.13930632214E+02 0.12495953410E+02 0.11569524692E+02 0.11023384086E+02 0.10772679541E+02
 0.10709729684E+02 0.10772679541E+02 0.11023384086E+02 0.11569524692E+02 0.12495953410E+02
 0.13930632214E+02 0.16016453749E+02 0.21058181512E+02 0.34214124306E+02 0.58719903104E+02
 0.94396653165E+02 0.13723784614E+03 0.17947278958E+03 0.21095672184E+03 0.18947201931E+03