<?xml version="1.0" encoding="ISO-8859-1"?>
<modeling>
 <generator>
  <i name="program" type="string">vasp </i>
  <i name="version" type="string">6.2.0  </i>
  <i name="subversion" type="string">18Jan21 (build Mar 17 2021 09:06:54) complex                          serial </i>
  <i name="platform" type="string">LinuxIFC </i>
  <i name="date" type="string">2021 09 09 </i>
  <i name="time" type="string">09:03:17 </i>
 </generator>
 <incar>
  <i type="string" name="PREC">normal</i>
  <i type="int" name="ICHARG">     1</i>
  <i type="int" name="IBRION">     1</i>
  <i name="EDIFF">      0.00000100</i>
  <i type="int" name="NSW">     0</i>
  <i type="int" name="ISIF">     2</i>
  <i name="ENCUT">    300.00000000</i>
  <i type="int" name="NBANDS">    40</i>
  <i type="int" name="ISMEAR">     1</i>
  <i name="SIGMA">      0.20000000</i>
  <i type="logical" name="LCHARG"> T  </i>
  <i type="int" name="KPAR">     1</i>
  <i type="int" name="NCORE">     1</i>
  <i type="string" name="GGA">PE</i>
 </incar>
 <primitive_cell>
  <structure name="primitive_cell" >
   <crystal>
    <varray name="basis" >
     <v>       1.63170885      -1.63170885       0.00000000 </v>
     <v>       1.63170885       0.00000000       1.63170885 </v>
     <v>       0.00000000      -1.63170885       1.63170885 </v>
    </varray>
    <i name="volume">      8.68876403 </i>
    <varray name="rec_basis" >
     <v>       0.30642722      -0.30642722      -0.30642722 </v>
     <v>       0.30642722       0.30642722       0.30642722 </v>
     <v>      -0.30642722      -0.30642722       0.30642722 </v>
    </varray>
   </crystal>
   <varray name="positions" >
    <v>       0.00000000       0.00000000       0.00000000 </v>
   </varray>
  </structure>
  <varray name="primitive_index" >
   <v type="int" >        1 </v>
  </varray>
 </primitive_cell>
 <kpoints>
  <generation param="Monkhorst-Pack">
   <v type="int" name="divisions">      11       11       11 </v>
   <v name="usershift">      0.00000000       0.00000000       0.00000000 </v>
   <v name="genvec1">      0.09090909       0.00000000       0.00000000 </v>
   <v name="genvec2">      0.00000000       0.09090909       0.00000000 </v>
   <v name="genvec3">      0.00000000       0.00000000       0.09090909 </v>
   <v name="shift">      0.00000000       0.00000000       0.00000000 </v>
  </generation>
  <varray name="kpointlist" >
   <v>       0.00000000       0.00000000       0.00000000 </v>
   <v>       0.09090909       0.00000000       0.00000000 </v>
   <v>       0.18181818       0.00000000       0.00000000 </v>
   <v>       0.27272727       0.00000000       0.00000000 </v>
   <v>       0.36363636       0.00000000       0.00000000 </v>
   <v>       0.45454545       0.00000000       0.00000000 </v>
   <v>       0.09090909       0.09090909       0.00000000 </v>
   <v>       0.18181818       0.09090909       0.00000000 </v>
   <v>       0.27272727       0.09090909       0.00000000 </v>
   <v>       0.36363636       0.09090909       0.00000000 </v>
   <v>       0.45454545       0.09090909       0.00000000 </v>
   <v>       0.18181818       0.18181818       0.00000000 </v>
   <v>       0.27272727       0.18181818       0.00000000 </v>
   <v>       0.36363636       0.18181818       0.00000000 </v>
   <v>       0.45454545       0.18181818       0.00000000 </v>
   <v>       0.27272727       0.27272727       0.00000000 </v>
   <v>       0.36363636       0.27272727       0.00000000 </v>
   <v>       0.45454545       0.27272727       0.00000000 </v>
   <v>       0.36363636       0.36363636       0.00000000 </v>
   <v>       0.45454545       0.36363636       0.00000000 </v>
   <v>       0.45454545       0.45454545       0.00000000 </v>
   <v>       0.09090909       0.09090909       0.09090909 </v>
   <v>       0.18181818       0.09090909       0.09090909 </v>
   <v>       0.27272727       0.09090909       0.09090909 </v>
   <v>       0.36363636       0.09090909       0.09090909 </v>
   <v>       0.45454545       0.09090909       0.09090909 </v>
   <v>       0.18181818       0.18181818       0.09090909 </v>
   <v>       0.27272727       0.18181818       0.09090909 </v>
   <v>       0.36363636       0.18181818       0.09090909 </v>
   <v>       0.45454545       0.18181818       0.09090909 </v>
   <v>       0.27272727       0.27272727       0.09090909 </v>
   <v>       0.36363636       0.27272727       0.09090909 </v>
   <v>       0.45454545       0.27272727       0.09090909 </v>
   <v>       0.36363636       0.36363636       0.09090909 </v>
   <v>       0.45454545       0.36363636       0.09090909 </v>
   <v>       0.45454545       0.45454545       0.09090909 </v>
   <v>       0.18181818       0.18181818       0.18181818 </v>
   <v>       0.27272727       0.18181818       0.18181818 </v>
   <v>       0.36363636       0.18181818       0.18181818 </v>
   <v>       0.45454545       0.18181818       0.18181818 </v>
   <v>       0.27272727       0.27272727       0.18181818 </v>
   <v>       0.36363636       0.27272727       0.18181818 </v>
   <v>       0.45454545       0.27272727       0.18181818 </v>
   <v>       0.36363636       0.36363636       0.18181818 </v>
   <v>       0.45454545       0.36363636       0.18181818 </v>
   <v>       0.45454545       0.45454545       0.18181818 </v>
   <v>       0.27272727       0.27272727       0.27272727 </v>
   <v>       0.36363636       0.27272727       0.27272727 </v>
   <v>       0.45454545       0.27272727       0.27272727 </v>
   <v>       0.36363636       0.36363636       0.27272727 </v>
   <v>       0.45454545       0.36363636       0.27272727 </v>
   <v>       0.45454545       0.45454545       0.27272727 </v>
   <v>       0.36363636       0.36363636       0.36363636 </v>
   <v>       0.45454545       0.36363636       0.36363636 </v>
   <v>       0.45454545       0.45454545       0.36363636 </v>
   <v>       0.45454545       0.45454545       0.45454545 </v>
  </varray>
  <varray name="weights" >
   <v>       0.00075131 </v>
   <v>       0.00450789 </v>
   <v>       0.00450789 </v>
   <v>       0.00450789 </v>
   <v>       0.00450789 </v>
   <v>       0.00450789 </v>
   <v>       0.00901578 </v>
   <v>       0.01803156 </v>
   <v>       0.01803156 </v>
   <v>       0.01803156 </v>
   <v>       0.01803156 </v>
   <v>       0.00901578 </v>
   <v>       0.01803156 </v>
   <v>       0.01803156 </v>
   <v>       0.01803156 </v>
   <v>       0.00901578 </v>
   <v>       0.01803156 </v>
   <v>       0.01803156 </v>
   <v>       0.00901578 </v>
   <v>       0.01803156 </v>
   <v>       0.00901578 </v>
   <v>       0.00601052 </v>
   <v>       0.01803156 </v>
   <v>       0.01803156 </v>
   <v>       0.01803156 </v>
   <v>       0.01803156 </v>
   <v>       0.01803156 </v>
   <v>       0.03606311 </v>
   <v>       0.03606311 </v>
   <v>       0.03606311 </v>
   <v>       0.01803156 </v>
   <v>       0.03606311 </v>
   <v>       0.03606311 </v>
   <v>       0.01803156 </v>
   <v>       0.03606311 </v>
   <v>       0.01803156 </v>
   <v>       0.00601052 </v>
   <v>       0.01803156 </v>
   <v>       0.01803156 </v>
   <v>       0.01803156 </v>
   <v>       0.01803156 </v>
   <v>       0.03606311 </v>
   <v>       0.03606311 </v>
   <v>       0.01803156 </v>
   <v>       0.03606311 </v>
   <v>       0.01803156 </v>
   <v>       0.00601052 </v>
   <v>       0.01803156 </v>
   <v>       0.01803156 </v>
   <v>       0.01803156 </v>
   <v>       0.03606311 </v>
   <v>       0.01803156 </v>
   <v>       0.00601052 </v>
   <v>       0.01803156 </v>
   <v>       0.01803156 </v>
   <v>       0.00601052 </v>
  </varray>
 </kpoints>
 <parameters>
  <separator name="general" >
   <i type="string" name="SYSTEM">unknown system</i>
   <i type="logical" name="LCOMPAT"> F  </i>
  </separator>
  <separator name="electronic" >
   <i type="string" name="PREC">normal</i>
   <i name="ENMAX">    300.00000000</i>
   <i name="ENAUG">    511.36800000</i>
   <i name="EDIFF">      0.00000100</i>
   <i type="int" name="IALGO">    38</i>
   <i type="int" name="IWAVPR">     0</i>
   <i type="int" name="NBANDS">    40</i>
   <i type="int" name="NBANDSLOW">    -1</i>
   <i type="int" name="NBANDSHIGH">    -1</i>
   <i name="NELECT">     32.00000000</i>
   <i type="int" name="TURBO">     0</i>
   <i type="int" name="IRESTART">     0</i>
   <i type="int" name="NREBOOT">     0</i>
   <i type="int" name="NMIN">     0</i>
   <i name="EREF">      0.00000000</i>
   <separator name="electronic smearing" >
    <i type="int" name="ISMEAR">     1</i>
    <i name="SIGMA">      0.20000000</i>
    <i name="KSPACING">      0.50000000</i>
    <i type="logical" name="KGAMMA"> T  </i>
    <i type="logical" name="KBLOWUP"> T  </i>
   </separator>
   <separator name="electronic projectors" >
    <i type="logical" name="LREAL"> F  </i>
    <v name="ROPT">      0.00000000</v>
    <i type="int" name="LMAXPAW">  -100</i>
    <i type="int" name="LMAXMIX">     2</i>
    <i type="logical" name="NLSPLINE"> F  </i>
   </separator>
   <separator name="electronic startup" >
    <i type="int" name="ISTART">     0</i>
    <i type="int" name="ICHARG">     1</i>
    <i type="int" name="INIWAV">     1</i>
   </separator>
   <separator name="electronic spin" >
    <i type="int" name="ISPIN">     1</i>
    <i type="logical" name="LNONCOLLINEAR"> F  </i>
    <v name="MAGMOM">      1.00000000      1.00000000      1.00000000      1.00000000</v>
    <i name="NUPDOWN">     -1.00000000</i>
    <i type="logical" name="LSORBIT"> F  </i>
    <v name="SAXIS">      0.00000000      0.00000000      1.00000000</v>
    <i type="logical" name="LSPIRAL"> F  </i>
    <v name="QSPIRAL">      0.00000000      0.00000000      0.00000000</v>
    <i type="logical" name="LZEROZ"> F  </i>
   </separator>
   <separator name="electronic exchange-correlation" >
    <i type="logical" name="LASPH"> F  </i>
    <i type="logical" name="LMETAGGA"> F  </i>
   </separator>
   <separator name="electronic convergence" >
    <i type="int" name="NELM">    60</i>
    <i type="int" name="NELMDL">    -5</i>
    <i type="int" name="NELMIN">     2</i>
    <i name="ENINI">    300.00000000</i>
    <separator name="electronic convergence detail" >
     <i type="logical" name="LDIAG"> T  </i>
     <i type="logical" name="LSUBROT"> F  </i>
     <i name="WEIMIN">      0.00000000</i>
     <i name="EBREAK">      0.00000001</i>
     <i name="DEPER">      0.30000000</i>
     <i type="int" name="NRMM">     4</i>
     <i name="TIME">      0.40000000</i>
    </separator>
   </separator>
   <separator name="electronic mixer" >
    <i name="AMIX">      0.40000000</i>
    <i name="BMIX">      1.00000000</i>
    <i name="AMIN">      0.10000000</i>
    <i name="AMIX_MAG">      1.60000000</i>
    <i name="BMIX_MAG">      1.00000000</i>
    <separator name="electronic mixer details" >
     <i type="int" name="IMIX">     4</i>
     <i type="logical" name="MIXFIRST"> F  </i>
     <i type="int" name="MAXMIX">   -45</i>
     <i name="WC">    100.00000000</i>
     <i type="int" name="INIMIX">     1</i>
     <i type="int" name="MIXPRE">     1</i>
     <i type="int" name="MREMOVE">     5</i>
    </separator>
   </separator>
   <separator name="electronic dipolcorrection" >
    <i type="logical" name="LDIPOL"> F  </i>
    <i type="logical" name="LMONO"> F  </i>
    <i type="int" name="IDIPOL">     0</i>
    <i name="EPSILON">      1.00000000</i>
    <v name="DIPOL">   -100.00000000   -100.00000000   -100.00000000</v>
    <i name="EFIELD">      0.00000000</i>
   </separator>
  </separator>
  <separator name="grids" >
   <i type="int" name="NGX">    14</i>
   <i type="int" name="NGY">    14</i>
   <i type="int" name="NGZ">    14</i>
   <i type="int" name="NGXF">    28</i>
   <i type="int" name="NGYF">    28</i>
   <i type="int" name="NGZF">    28</i>
   <i type="logical" name="ADDGRID"> F  </i>
  </separator>
  <separator name="ionic" >
   <i type="int" name="NSW">     0</i>
   <i type="int" name="IBRION">    -1</i>
   <i type="int" name="MDALGO">     0</i>
   <i type="int" name="ISIF">     2</i>
   <i name="PSTRESS">      0.00000000</i>
   <i name="EDIFFG">      0.00001000</i>
   <i type="int" name="NFREE">     0</i>
   <i name="POTIM">      0.50000000</i>
   <i name="SMASS">     -3.00000000</i>
   <i name="SCALEE">      1.00000000</i>
  </separator>
  <separator name="ionic md" >
   <i name="TEBEG">      0.00010000</i>
   <i name="TEEND">      0.00010000</i>
   <i type="int" name="NBLOCK">     1</i>
   <i type="int" name="KBLOCK">     1</i>
   <i type="int" name="NPACO">   256</i>
   <i name="APACO">     16.00000000</i>
  </separator>
  <separator name="symmetry" >
   <i type="int" name="ISYM">     2</i>
   <i name="SYMPREC">      0.00001000</i>
  </separator>
  <separator name="dos" >
   <i type="int" name="LORBIT">     0</i>
   <v name="RWIGS">     -1.00000000</v>
   <i type="int" name="NEDOS">   301</i>
   <i name="EMIN">     10.00000000</i>
   <i name="EMAX">    -10.00000000</i>
   <i name="EFERMI">      0.00000000</i>
  </separator>
  <separator name="writing" >
   <i type="int" name="NWRITE">     2</i>
   <i type="logical" name="LWAVE"> T  </i>
   <i type="logical" name="LDOWNSAMPLE"> F  </i>
   <i type="logical" name="LCHARG"> T  </i>
   <i type="logical" name="LPARD"> F  </i>
   <i type="logical" name="LVTOT"> F  </i>
   <i type="logical" name="LVHAR"> F  </i>
   <i type="logical" name="LELF"> F  </i>
   <i type="logical" name="LOPTICS"> F  </i>
   <v name="STM">      0.00000000      0.00000000      0.00000000      0.00000000      0.00000000      0.00000000      0.00000000</v>
  </separator>
  <separator name="performance" >
   <i type="int" name="NPAR">     1</i>
   <i type="int" name="NSIM">     4</i>
   <i type="int" name="NBLK">    -1</i>
   <i type="logical" name="LPLANE"> T  </i>
   <i type="logical" name="LSCALAPACK"> F  </i>
   <i type="logical" name="LSCAAWARE"> F  </i>
   <i type="logical" name="LSCALU"> F  </i>
   <i type="logical" name="LASYNC"> F  </i>
   <i type="logical" name="LORBITALREAL"> F  </i>
  </separator>
  <separator name="miscellaneous" >
   <i type="int" name="IDIOT">     3</i>
   <i type="int" name="PHON_NSTRUCT">    -1</i>
   <i type="logical" name="LMUSIC"> F  </i>
   <v name="POMASS">     55.84700000</v>
   <v name="DARWINR">      0.00000000</v>
   <v name="DARWINV">      1.00000000</v>
   <i type="logical" name="LCORR"> T  </i>
  </separator>
  <i type="logical" name="GGA_COMPAT"> T  </i>
  <i type="logical" name="LBERRY"> F  </i>
  <i type="int" name="ICORELEVEL">     0</i>
  <i type="logical" name="LDAU"> F  </i>
  <i type="int" name="I_CONSTRAINED_M">     0</i>
  <separator name="electronic exchange-correlation" >
   <i type="string" name="GGA">PE</i>
   <i type="int" name="VOSKOWN">     0</i>
   <i type="logical" name="LHFCALC"> F  </i>
   <i type="string" name="PRECFOCK"></i>
   <i type="logical" name="LSYMGRAD"> F  </i>
   <i type="logical" name="LHFONE"> F  </i>
   <i type="logical" name="LRHFCALC"> F  </i>
   <i type="logical" name="LTHOMAS"> F  </i>
   <i type="logical" name="LMODELHF"> F  </i>
   <i type="logical" name="LFOCKACE"> F  </i>
   <i name="ENCUT4O">     -1.00000000</i>
   <i type="int" name="EXXOEP">     0</i>
   <i type="int" name="FOURORBIT">     0</i>
   <i name="AEXX">      0.00000000</i>
   <i name="HFALPHA">      0.00000000</i>
   <i name="MCALPHA">      0.00000000</i>
   <i name="ALDAX">      1.00000000</i>
   <i name="AGGAX">      1.00000000</i>
   <i name="ALDAC">      1.00000000</i>
   <i name="AGGAC">      1.00000000</i>
   <i type="int" name="NKREDX">     1</i>
   <i type="int" name="NKREDY">     1</i>
   <i type="int" name="NKREDZ">     1</i>
   <i type="logical" name="SHIFTRED"> F  </i>
   <i type="logical" name="ODDONLY"> F  </i>
   <i type="logical" name="EVENONLY"> F  </i>
   <i type="int" name="LMAXFOCK">     0</i>
   <i type="int" name="NMAXFOCKAE">     0</i>
   <i type="logical" name="LFOCKAEDFT"> F  </i>
   <i name="HFSCREEN">      0.00000000</i>
   <i name="HFSCREENC">      0.00000000</i>
   <i type="int" name="NBANDSGWLOW">     0</i>
  </separator>
  <separator name="vdW DFT" >
   <i type="logical" name="LUSE_VDW"> F  </i>
   <i name="Zab_VDW">     -0.84910000</i>
   <i name="PARAM1">      0.12340000</i>
   <i name="PARAM2">      1.00000000</i>
   <i name="PARAM3">      0.00000000</i>
  </separator>
  <separator name="model GW" >
   <i type="int" name="MODEL_GW">     0</i>
   <i name="MODEL_EPS0">      5.21325842</i>
   <i name="MODEL_ALPHA">      1.00000000</i>
  </separator>
  <separator name="linear response parameters" >
   <i type="logical" name="LEPSILON"> F  </i>
   <i type="logical" name="LRPA"> F  </i>
   <i type="logical" name="LNABLA"> F  </i>
   <i type="logical" name="LVEL"> F  </i>
   <i type="int" name="KINTER">     0</i>
   <i name="CSHIFT">      0.10000000</i>
   <i name="OMEGAMAX">     -1.00000000</i>
   <i name="DEG_THRESHOLD">      0.00200000</i>
   <i name="RTIME">     -0.10000000</i>
   <i name="WPLASMAI">      0.00000000</i>
   <v name="DFIELD">      0.00000000      0.00000000      0.00000000</v>
   <v name="WPLASMA">      0.00000000      0.00000000      0.00000000      0.00000000      0.00000000      0.00000000      0.00000000      0.00000000      0.00000000</v>
  </separator>
  <separator name="orbital magnetization" >
   <i type="logical" name="NUCIND"> F  </i>
   <v name="MAGPOS">      0.00000000      0.00000000      0.00000000</v>
   <i type="logical" name="LNICSALL"> T  </i>
   <i type="logical" name="ORBITALMAG"> F  </i>
   <i type="logical" name="LMAGBLOCH"> F  </i>
   <i type="logical" name="LCHIMAG"> F  </i>
   <i type="logical" name="LGAUGE"> T  </i>
   <i type="int" name="MAGATOM">     0</i>
   <v name="MAGDIPOL">      0.00000000      0.00000000      0.00000000</v>
   <v name="AVECCONST">      0.00000000      0.00000000      0.00000000</v>
  </separator>
  <separator name="response functions" >
   <i type="logical" name="LFINITE_TEMPERATURE"> F  </i>
   <i type="logical" name="LADDER"> F  </i>
   <i type="logical" name="LRPAFORCE"> F  </i>
   <i type="logical" name="LFXC"> F  </i>
   <i type="logical" name="LHARTREE"> T  </i>
   <i type="int" name="IBSE">     0</i>
   <v type="int" name="KPOINT">    -1     0     0     0</v>
   <i type="logical" name="LTCTC"> F  </i>
   <i type="logical" name="LTCTE"> F  </i>
   <i type="logical" name="LTETE"> F  </i>
   <i type="logical" name="LTRIPLET"> F  </i>
   <i type="logical" name="LFXCEPS"> F  </i>
   <i type="logical" name="LFXHEG"> F  </i>
   <i type="int" name="NATURALO">     2</i>
   <i type="logical" name="LHOLEGF"> F  </i>
   <i type="logical" name="L2ORDER"> F  </i>
   <i type="logical" name="LDMP1"> F  </i>
   <i type="logical" name="LMP2LT"> F  </i>
   <i type="logical" name="LSMP2LT"> F  </i>
   <i type="logical" name="LGWLF"> F  </i>
   <i name="ENCUTGW">     -2.00000000</i>
   <i name="ENCUTGWSOFT">     -2.00000000</i>
   <i name="ENCUTLF">     -1.00000000</i>
   <i type="logical" name="LESF_SPLINES"> F  </i>
   <i type="int" name="LMAXMP2">    -1</i>
   <i name="SCISSOR">      0.00000000</i>
   <i type="int" name="NOMEGA">     0</i>
   <i type="int" name="NOMEGAR">     0</i>
   <i type="int" name="NBANDSGW">    -1</i>
   <i type="int" name="NBANDSO">    -1</i>
   <i type="int" name="NBANDSV">    -1</i>
   <i type="int" name="NELM">     1</i>
   <i type="int" name="NELMHF">     1</i>
   <i type="int" name="DIM">     3</i>
   <i type="int" name="IESPILON">     4</i>
   <i type="int" name="ANTIRES">     0</i>
   <i name="OMEGAMAX">    -30.00000000</i>
   <i name="OMEGAMIN">    -30.00000000</i>
   <i name="OMEGATL">   -200.00000000</i>
   <i type="int" name="OMEGAGRID">     0</i>
   <i name="CSHIFT">     -0.10000000</i>
   <i type="logical" name="LSELFENERGY"> F  </i>
   <i type="logical" name="LSPECTRAL"> F  </i>
   <i type="logical" name="LSPECTRALGW"> F  </i>
   <i type="logical" name="LSINGLES"> F  </i>
   <i type="logical" name="LFERMIGW"> F  </i>
   <i type="logical" name="ODDONLYGW"> F  </i>
   <i type="logical" name="EVENONLYGW"> F  </i>
   <i type="int" name="NKREDLFX">     1</i>
   <i type="int" name="NKREDLFY">     1</i>
   <i type="int" name="NKREDLFZ">     1</i>
   <i type="int" name="MAXMEM">  2800</i>
   <i type="int" name="TELESCOPE">     0</i>
   <i type="int" name="NTAUPAR">    -1</i>
   <i type="int" name="NOMEGAPAR">    -1</i>
   <i name="DAMP_NEWTON">      0.80000001</i>
   <i name="LAMBDA">      1.00000000</i>
  </separator>
  <separator name="External order field" >
   <i name="OFIELD_KAPPA">      0.00000000</i>
   <v name="OFIELD_K">      0.00000000      0.00000000      0.00000000</v>
   <i name="OFIELD_Q6_NEAR">      0.00000000</i>
   <i name="OFIELD_Q6_FAR">      0.00000000</i>
   <i name="OFIELD_A">      0.00000000</i>
  </separator>
 </parameters>
 <atominfo>
  <atoms>       4 </atoms>
  <types>       1 </types>
  <array name="atoms" >
   <dimension dim="1">ion</dimension>
   <field type="string">element</field>
   <field type="int">atomtype</field>
   <set>
    <rc><c>Fe</c><c>   1</c></rc>
    <rc><c>Fe</c><c>   1</c></rc>
    <rc><c>Fe</c><c>   1</c></rc>
    <rc><c>Fe</c><c>   1</c></rc>
   </set>
  </array>
  <array name="atomtypes" >
   <dimension dim="1">type</dimension>
   <field type="int">atomspertype</field>
   <field type="string">element</field>
   <field>mass</field>
   <field>valence</field>
   <field type="string">pseudopotential</field>
   <set>
    <rc><c>   4</c><c>Fe</c><c>     55.84700000</c><c>      8.00000000</c><c>  PAW_PBE Fe 06Sep2000                  </c></rc>
   </set>
  </array>
 </atominfo>
 <structure name="initialpos" >
  <crystal>
   <varray name="basis" >
    <v>       3.26341770       0.00000000       0.00000000 </v>
    <v>       0.00000000       3.26341770       0.00000000 </v>
    <v>       0.00000000       0.00000000       3.26341770 </v>
   </varray>
   <i name="volume">     34.75505613 </i>
   <varray name="rec_basis" >
    <v>       0.30642722       0.00000000       0.00000000 </v>
    <v>       0.00000000       0.30642722       0.00000000 </v>
    <v>       0.00000000       0.00000000       0.30642722 </v>
   </varray>
  </crystal>
  <varray name="positions" >
   <v>       0.00000000       0.00000000       0.00000000 </v>
   <v>       0.50000000       0.50000000       0.00000000 </v>
   <v>       0.50000000       0.00000000       0.50000000 </v>
   <v>       0.00000000       0.50000000       0.50000000 </v>
  </varray>
 </structure>
 <calculation>
  <scstep>
   <time name="dav">    0.72    0.74</time>
   <time name="total">    0.74    0.76</time>
   <energy>
    <i name="alphaZ">    318.17540784 </i>
    <i name="ewald">  -2589.52231581 </i>
    <i name="hartreedc">   -366.95785296 </i>
    <i name="XCdc">     19.11063445 </i>
    <i name="pawpsdc">   2219.38341365 </i>
    <i name="pawaedc">  -2250.19294531 </i>
    <i name="eentropy">     -0.00753085 </i>
    <i name="bandstr">    436.83136601 </i>
    <i name="atom">   2377.15350596 </i>
    <i name="e_fr_energy">    163.97368300 </i>
    <i name="e_wo_entrp">    163.98121385 </i>
    <i name="e_0_energy">    163.97619328 </i>
   </energy>
  </scstep>
  <scstep>
   <time name="dav">    0.65    0.65</time>
   <time name="total">    0.66    0.66</time>
   <energy>
    <i name="e_fr_energy">    -23.29322217 </i>
    <i name="e_wo_entrp">    -23.28598469 </i>
    <i name="e_0_energy">    -23.29080968 </i>
   </energy>
  </scstep>
  <scstep>
   <time name="dav">    0.69    0.69</time>
   <time name="total">    0.69    0.69</time>
   <energy>
    <i name="e_fr_energy">    -36.47448381 </i>
    <i name="e_wo_entrp">    -36.48102287 </i>
    <i name="e_0_energy">    -36.47666350 </i>
   </energy>
  </scstep>
  <scstep>
   <time name="dav">    0.66    0.66</time>
   <time name="total">    0.67    0.67</time>
   <energy>
    <i name="e_fr_energy">    -36.63653041 </i>
    <i name="e_wo_entrp">    -36.64300008 </i>
    <i name="e_0_energy">    -36.63868697 </i>
   </energy>
  </scstep>
  <scstep>
   <time name="dav">    0.67    0.67</time>
   <time name="total">    0.71    0.71</time>
   <energy>
    <i name="e_fr_energy">    -36.63787798 </i>
    <i name="e_wo_entrp">    -36.64434696 </i>
    <i name="e_0_energy">    -36.64003431 </i>
   </energy>
  </scstep>
  <scstep>
   <time name="dav">    0.67    0.67</time>
   <time name="total">    0.71    0.71</time>
   <energy>
    <i name="e_fr_energy">    -31.49298868 </i>
    <i name="e_wo_entrp">    -31.50000818 </i>
    <i name="e_0_energy">    -31.49532852 </i>
   </energy>
  </scstep>
  <scstep>
   <time name="dav">    0.71    0.71</time>
   <time name="total">    0.76    0.76</time>
   <energy>
    <i name="e_fr_energy">    -31.31276657 </i>
    <i name="e_wo_entrp">    -31.32013183 </i>
    <i name="e_0_energy">    -31.31522166 </i>
   </energy>
  </scstep>
  <scstep>
   <time name="dav">    0.76    0.76</time>
   <time name="total">    0.80    0.80</time>
   <energy>
    <i name="e_fr_energy">    -31.23183835 </i>
    <i name="e_wo_entrp">    -31.23895981 </i>
    <i name="e_0_energy">    -31.23421217 </i>
   </energy>
  </scstep>
  <scstep>
   <time name="dav">    0.69    0.69</time>
   <time name="total">    0.73    0.73</time>
   <energy>
    <i name="e_fr_energy">    -31.22294496 </i>
    <i name="e_wo_entrp">    -31.22988754 </i>
    <i name="e_0_energy">    -31.22525915 </i>
   </energy>
  </scstep>
  <scstep>
   <time name="dav">    0.67    0.67</time>
   <time name="total">    0.71    0.71</time>
   <energy>
    <i name="e_fr_energy">    -31.22274612 </i>
    <i name="e_wo_entrp">    -31.22969015 </i>
    <i name="e_0_energy">    -31.22506079 </i>
   </energy>
  </scstep>
  <scstep>
   <time name="dav">    0.79    0.79</time>
   <time name="total">    0.84    0.84</time>
   <energy>
    <i name="e_fr_energy">    -31.22243801 </i>
    <i name="e_wo_entrp">    -31.22939719 </i>
    <i name="e_0_energy">    -31.22475773 </i>
   </energy>
  </scstep>
  <scstep>
   <time name="dav">    0.69    0.69</time>
   <time name="total">    0.74    0.74</time>
   <energy>
    <i name="e_fr_energy">    -31.22242186 </i>
    <i name="e_wo_entrp">    -31.22937306 </i>
    <i name="e_0_energy">    -31.22473892 </i>
   </energy>
  </scstep>
  <scstep>
   <time name="dav">    0.45    0.45</time>
   <time name="total">    0.47    0.47</time>
   <energy>
    <i name="alphaZ">    318.17540784 </i>
    <i name="ewald">  -2589.52231581 </i>
    <i name="hartreedc">   -300.69537692 </i>
    <i name="XCdc">     15.97749391 </i>
    <i name="pawpsdc">   3389.06471016 </i>
    <i name="pawaedc">  -3427.91790627 </i>
    <i name="eentropy">      0.00695156 </i>
    <i name="bandstr">    186.53510750 </i>
    <i name="atom">   2377.15350596 </i>
    <i name="e_fr_energy">    -31.22242207 </i>
    <i name="e_wo_entrp">    -31.22937363 </i>
    <i name="e_0_energy">    -31.22473926 </i>
   </energy>
  </scstep>
  <structure>
   <crystal>
    <varray name="basis" >
     <v>       3.26341770       0.00000000       0.00000000 </v>
     <v>       0.00000000       3.26341770       0.00000000 </v>
     <v>       0.00000000       0.00000000       3.26341770 </v>
    </varray>
    <i name="volume">     34.75505613 </i>
    <varray name="rec_basis" >
     <v>       0.30642722       0.00000000       0.00000000 </v>
     <v>       0.00000000       0.30642722       0.00000000 </v>
     <v>       0.00000000       0.00000000       0.30642722 </v>
    </varray>
   </crystal>
   <varray name="positions" >
    <v>       0.00000000       0.00000000       0.00000000 </v>
    <v>       0.50000000       0.50000000       0.00000000 </v>
    <v>       0.50000000       0.00000000       0.50000000 </v>
    <v>       0.00000000       0.50000000       0.50000000 </v>
   </varray>
  </structure>
  <varray name="forces" >
   <v>       0.00000000      -0.00000000      -0.00000000 </v>
   <v>       0.00000000       0.00000000      -0.00000000 </v>
   <v>      -0.00000000      -0.00000000       0.00000000 </v>
   <v>      -0.00000000      -0.00000000       0.00000000 </v>
  </varray>
  <varray name="stress" >
   <v>     677.44113330       0.00000000       0.00000000 </v>
   <v>      -0.00000000     677.44113330       0.00000000 </v>
   <v>      -0.00000000      -0.00000000     677.44113330 </v>
  </varray>
  <energy>
   <i name="e_fr_energy">    -31.22242207 </i>
   <i name="e_wo_entrp">    -31.22937363 </i>
   <i name="e_0_energy">    -31.22473926 </i>
  </energy>
  <time name="totalsc">    9.78    9.80</time>
  <eigenvalues>
   <array>
    <dimension dim="1">band</dimension>
    <dimension dim="2">kpoint</dimension>
    <dimension dim="3">spin</dimension>
    <field>eigene</field>
    <field>occ</field>
    <set>
     <set comment="spin 1">
      <set comment="kpoint 1">
       <r>   -0.9725    1.0000 </r>
       <r>    2.6124    1.0000 </r>
       <r>    2.6124    1.0000 </r>
       <r>    2.6124    1.0000 </r>
       <r>    3.4983    1.0000 </r>
       <r>    3.4983    1.0000 </r>
       <r>    3.4983    1.0000 </r>
       <r>    6.7375    1.0000 </r>
       <r>    6.7375    1.0000 </r>
       <r>    6.7375    1.0000 </r>
       <r>    8.7261    0.7783 </r>
       <r>    8.7261    0.7783 </r>
       <r>   10.0497   -0.0000 </r>
       <r>   10.0497   -0.0000 </r>
       <r>   10.0497   -0.0000 </r>
       <r>   10.4348   -0.0000 </r>
       <r>   10.4348   -0.0000 </r>
       <r>   10.4348   -0.0000 </r>
       <r>   10.4348   -0.0000 </r>
       <r>   10.4348   -0.0000 </r>
       <r>   10.4348   -0.0000 </r>
       <r>   12.6247   -0.0000 </r>
       <r>   12.6247   -0.0000 </r>
       <r>   12.6247   -0.0000 </r>
       <r>   22.5311    0.0000 </r>
       <r>   22.5311    0.0000 </r>
       <r>   22.5311    0.0000 </r>
       <r>   26.9993    0.0000 </r>
       <r>   26.9993    0.0000 </r>
       <r>   26.9993    0.0000 </r>
       <r>   26.9993    0.0000 </r>
       <r>   26.9993    0.0000 </r>
       <r>   26.9993    0.0000 </r>
       <r>   33.1518    0.0000 </r>
       <r>   33.1518    0.0000 </r>
       <r>   33.1518    0.0000 </r>
       <r>   33.5031    0.0000 </r>
       <r>   39.4088    0.0000 </r>
       <r>   39.4088    0.0000 </r>
       <r>   39.4088    0.0000 </r>
      </set>
      <set comment="kpoint 2">
       <r>   -0.8373    1.0000 </r>
       <r>    2.6625    1.0000 </r>
       <r>    2.7014    1.0000 </r>
       <r>    2.7014    1.0000 </r>
       <r>    3.5545    1.0000 </r>
       <r>    3.5690    1.0000 </r>
       <r>    3.5690    1.0000 </r>
       <r>    6.6597    1.0000 </r>
       <r>    6.7923    1.0000 </r>
       <r>    6.7923    1.0000 </r>
       <r>    8.6529    0.9659 </r>
       <r>    8.7515    0.6850 </r>
       <r>    9.8465   -0.0000 </r>
       <r>    9.8465   -0.0000 </r>
       <r>    9.9548   -0.0000 </r>
       <r>    9.9548   -0.0000 </r>
       <r>   10.0214   -0.0000 </r>
       <r>   10.3265   -0.0000 </r>
       <r>   10.3265   -0.0000 </r>
       <r>   10.4353   -0.0000 </r>
       <r>   10.4353   -0.0000 </r>
       <r>   12.1147   -0.0000 </r>
       <r>   13.2932   -0.0000 </r>
       <r>   13.2932   -0.0000 </r>
       <r>   22.5125    0.0000 </r>
       <r>   22.5125    0.0000 </r>
       <r>   23.1593    0.0000 </r>
       <r>   26.4789    0.0000 </r>
       <r>   26.4789    0.0000 </r>
       <r>   26.7581    0.0000 </r>
       <r>   26.7581    0.0000 </r>
       <r>   27.2302    0.0000 </r>
       <r>   27.2302    0.0000 </r>
       <r>   33.1528    0.0000 </r>
       <r>   33.4794    0.0000 </r>
       <r>   33.8120    0.0000 </r>
       <r>   33.8120    0.0000 </r>
       <r>   39.3405    0.0000 </r>
       <r>   39.4644    0.0000 </r>
       <r>   39.7318    0.0000 </r>
      </set>
      <set comment="kpoint 3">
       <r>   -0.4404    1.0000 </r>
       <r>    2.7912    1.0000 </r>
       <r>    2.9543    1.0000 </r>
       <r>    2.9543    1.0000 </r>
       <r>    3.7201    1.0000 </r>
       <r>    3.7805    1.0000 </r>
       <r>    3.7805    1.0000 </r>
       <r>    6.4363    1.0000 </r>
       <r>    6.9554    1.0000 </r>
       <r>    6.9554    1.0000 </r>
       <r>    8.4449    1.0161 </r>
       <r>    8.8208    0.3976 </r>
       <r>    8.8208    0.3976 </r>
       <r>    8.8260    0.3763 </r>
       <r>    9.6822   -0.0000 </r>
       <r>    9.6822   -0.0000 </r>
       <r>    9.9397   -0.0000 </r>
       <r>   10.0242   -0.0000 </r>
       <r>   10.0242   -0.0000 </r>
       <r>   10.4354   -0.0000 </r>
       <r>   10.4354   -0.0000 </r>
       <r>   10.9099   -0.0000 </r>
       <r>   14.5576    0.0000 </r>
       <r>   14.5576    0.0000 </r>
       <r>   22.4453    0.0000 </r>
       <r>   22.4453    0.0000 </r>
       <r>   24.7254    0.0000 </r>
       <r>   25.2658    0.0000 </r>
       <r>   25.2658    0.0000 </r>
       <r>   26.1907    0.0000 </r>
       <r>   26.1907    0.0000 </r>
       <r>   27.8980    0.0000 </r>
       <r>   27.8980    0.0000 </r>
       <r>   33.1973    0.0000 </r>
       <r>   33.4186    0.0000 </r>
       <r>   35.2782    0.0000 </r>
       <r>   35.2782    0.0000 </r>
       <r>   37.6569    0.0000 </r>
       <r>   38.5156    0.0000 </r>
       <r>   38.5156    0.0000 </r>
      </set>
      <set comment="kpoint 4">
       <r>    0.1893    1.0000 </r>
       <r>    2.9241    1.0000 </r>
       <r>    3.3246    1.0000 </r>
       <r>    3.3246    1.0000 </r>
       <r>    3.9868    1.0000 </r>
       <r>    4.1308    1.0000 </r>
       <r>    4.1308    1.0000 </r>
       <r>    6.0947    1.0000 </r>
       <r>    7.2223    1.0000 </r>
       <r>    7.2223    1.0000 </r>
       <r>    7.7878    1.0000 </r>
       <r>    7.7878    1.0000 </r>
       <r>    8.1384    1.0000 </r>
       <r>    8.9444    0.0269 </r>
       <r>    9.2815   -0.0016 </r>
       <r>    9.2815   -0.0016 </r>
       <r>    9.5308   -0.0000 </r>
       <r>    9.5819   -0.0000 </r>
       <r>    9.5819   -0.0000 </r>
       <r>    9.8110   -0.0000 </r>
       <r>   10.4360   -0.0000 </r>
       <r>   10.4360   -0.0000 </r>
       <r>   15.9872    0.0000 </r>
       <r>   15.9872    0.0000 </r>
       <r>   22.3482    0.0000 </r>
       <r>   22.3482    0.0000 </r>
       <r>   23.7894    0.0000 </r>
       <r>   23.7894    0.0000 </r>
       <r>   25.5833    0.0000 </r>
       <r>   25.5833    0.0000 </r>
       <r>   26.7131    0.0000 </r>
       <r>   28.9374    0.0000 </r>
       <r>   28.9374    0.0000 </r>
       <r>   33.1617    0.0000 </r>
       <r>   33.3433    0.0000 </r>
       <r>   35.9220    0.0000 </r>
       <r>   36.9502    0.0000 </r>
       <r>   36.9502    0.0000 </r>
       <r>   37.2502    0.0000 </r>
       <r>   37.2502    0.0000 </r>
      </set>
      <set comment="kpoint 5">
       <r>    0.9919    1.0000 </r>
       <r>    2.9107    1.0000 </r>
       <r>    3.7201    1.0000 </r>
       <r>    3.7201    1.0000 </r>
       <r>    4.3400    1.0000 </r>
       <r>    4.6165    1.0000 </r>
       <r>    4.6165    1.0000 </r>
       <r>    5.6734    1.0000 </r>
       <r>    6.8299    1.0000 </r>
       <r>    6.8299    1.0000 </r>
       <r>    7.5850    1.0000 </r>
       <r>    7.5850    1.0000 </r>
       <r>    7.8083    1.0000 </r>
       <r>    8.3673    1.0049 </r>
       <r>    8.8531    0.2704 </r>
       <r>    8.8531    0.2704 </r>
       <r>    9.0655   -0.0336 </r>
       <r>    9.0655   -0.0336 </r>
       <r>    9.0987   -0.0271 </r>
       <r>    9.6478   -0.0000 </r>
       <r>   10.4367   -0.0000 </r>
       <r>   10.4367   -0.0000 </r>
       <r>   17.4962    0.0000 </r>
       <r>   17.4962    0.0000 </r>
       <r>   22.2242    0.0000 </r>
       <r>   22.2242    0.0000 </r>
       <r>   22.2474    0.0000 </r>
       <r>   22.2474    0.0000 </r>
       <r>   25.1263    0.0000 </r>
       <r>   25.1263    0.0000 </r>
       <r>   28.7961    0.0000 </r>
       <r>   30.2719    0.0000 </r>
       <r>   30.2719    0.0000 </r>
       <r>   33.1676    0.0000 </r>
       <r>   33.2777    0.0000 </r>
       <r>   34.2518    0.0000 </r>
       <r>   35.2576    0.0000 </r>
       <r>   35.2576    0.0000 </r>
       <r>   39.5404    0.0000 </r>
       <r>   39.5404    0.0000 </r>
      </set>
      <set comment="kpoint 6">
       <r>    1.8504    1.0000 </r>
       <r>    2.5598    1.0000 </r>
       <r>    3.9925    1.0000 </r>
       <r>    3.9925    1.0000 </r>
       <r>    4.7586    1.0000 </r>
       <r>    5.2146    1.0000 </r>
       <r>    5.2329    1.0000 </r>
       <r>    5.2329    1.0000 </r>
       <r>    5.9737    1.0000 </r>
       <r>    5.9737    1.0000 </r>
       <r>    7.5897    1.0000 </r>
       <r>    7.7049    1.0000 </r>
       <r>    8.0287    1.0000 </r>
       <r>    8.0287    1.0000 </r>
       <r>    8.5329    1.0343 </r>
       <r>    8.5329    1.0343 </r>
       <r>    8.5591    1.0352 </r>
       <r>    8.5591    1.0352 </r>
       <r>    9.2764   -0.0018 </r>
       <r>    9.4645   -0.0000 </r>
       <r>   10.4370   -0.0000 </r>
       <r>   10.4370   -0.0000 </r>
       <r>   19.0534    0.0000 </r>
       <r>   19.0534    0.0000 </r>
       <r>   20.6348    0.0000 </r>
       <r>   20.6348    0.0000 </r>
       <r>   22.1819    0.0000 </r>
       <r>   22.1819    0.0000 </r>
       <r>   24.8922    0.0000 </r>
       <r>   24.8922    0.0000 </r>
       <r>   30.7767    0.0000 </r>
       <r>   31.8220    0.0000 </r>
       <r>   31.8220    0.0000 </r>
       <r>   32.5749    0.0000 </r>
       <r>   33.1867    0.0000 </r>
       <r>   33.2226    0.0000 </r>
       <r>   33.5091    0.0000 </r>
       <r>   33.5091    0.0000 </r>
       <r>   42.1016    0.0000 </r>
       <r>   42.1065    0.0000 </r>
      </set>
      <set comment="kpoint 7">
       <r>   -0.7038    1.0000 </r>
       <r>    2.7525    1.0000 </r>
       <r>    2.7525    1.0000 </r>
       <r>    2.7875    1.0000 </r>
       <r>    3.6238    1.0000 </r>
       <r>    3.6238    1.0000 </r>
       <r>    3.6383    1.0000 </r>
       <r>    6.6148    1.0000 </r>
       <r>    6.8169    1.0000 </r>
       <r>    6.8404    1.0000 </r>
       <r>    8.6314    0.9962 </r>
       <r>    8.7328    0.7547 </r>
       <r>    9.4865   -0.0000 </r>
       <r>    9.6607   -0.0000 </r>
       <r>    9.6607   -0.0000 </r>
       <r>    9.8652   -0.0000 </r>
       <r>    9.9714   -0.0000 </r>
       <r>    9.9714   -0.0000 </r>
       <r>   10.3264   -0.0000 </r>
       <r>   10.3264   -0.0000 </r>
       <r>   10.3677   -0.0000 </r>
       <r>   12.8046   -0.0000 </r>
       <r>   12.8046   -0.0000 </r>
       <r>   13.8008   -0.0000 </r>
       <r>   22.4624    0.0000 </r>
       <r>   23.1496    0.0000 </r>
       <r>   23.1496    0.0000 </r>
       <r>   25.3566    0.0000 </r>
       <r>   26.6923    0.0000 </r>
       <r>   26.6923    0.0000 </r>
       <r>   26.9836    0.0000 </r>
       <r>   26.9836    0.0000 </r>
       <r>   27.4541    0.0000 </r>
       <r>   33.4073    0.0000 </r>
       <r>   33.8005    0.0000 </r>
       <r>   33.8005    0.0000 </r>
       <r>   34.0214    0.0000 </r>
       <r>   37.8995    0.0000 </r>
       <r>   39.4528    0.0000 </r>
       <r>   40.0342    0.0000 </r>
      </set>
      <set comment="kpoint 8">
       <r>   -0.3116    1.0000 </r>
       <r>    2.8843    1.0000 </r>
       <r>    3.0088    1.0000 </r>
       <r>    3.0328    1.0000 </r>
       <r>    3.7854    1.0000 </r>
       <r>    3.8311    1.0000 </r>
       <r>    3.8442    1.0000 </r>
       <r>    6.4152    1.0000 </r>
       <r>    6.9635    1.0000 </r>
       <r>    6.9809    1.0000 </r>
       <r>    8.4529    1.0178 </r>
       <r>    8.6469    0.9754 </r>
       <r>    8.6496    0.9712 </r>
       <r>    8.8022    0.4755 </r>
       <r>    9.2283   -0.0046 </r>
       <r>    9.6079   -0.0000 </r>
       <r>    9.6912   -0.0000 </r>
       <r>    9.8988   -0.0000 </r>
       <r>   10.0231   -0.0000 </r>
       <r>   10.3262   -0.0000 </r>
       <r>   10.3305   -0.0000 </r>
       <r>   11.7085   -0.0000 </r>
       <r>   14.0270   -0.0000 </r>
       <r>   14.9189    0.0000 </r>
       <r>   22.2505    0.0000 </r>
       <r>   23.1142    0.0000 </r>
       <r>   24.1251    0.0000 </r>
       <r>   24.7108    0.0000 </r>
       <r>   25.4624    0.0000 </r>
       <r>   26.4131    0.0000 </r>
       <r>   27.3084    0.0000 </r>
       <r>   27.4817    0.0000 </r>
       <r>   27.6499    0.0000 </r>
       <r>   33.2038    0.0000 </r>
       <r>   33.8548    0.0000 </r>
       <r>   34.9595    0.0000 </r>
       <r>   35.3327    0.0000 </r>
       <r>   36.2047    0.0000 </r>
       <r>   38.6425    0.0000 </r>
       <r>   39.9794    0.0000 </r>
      </set>
      <set comment="kpoint 9">
       <r>    0.3107    1.0000 </r>
       <r>    3.0219    1.0000 </r>
       <r>    3.3851    1.0000 </r>
       <r>    3.3957    1.0000 </r>
       <r>    4.0453    1.0000 </r>
       <r>    4.1742    1.0000 </r>
       <r>    4.1800    1.0000 </r>
       <r>    6.0892    1.0000 </r>
       <r>    7.1944    1.0000 </r>
       <r>    7.2257    1.0000 </r>
       <r>    7.6387    1.0000 </r>
       <r>    7.7030    1.0000 </r>
       <r>    8.1832    1.0001 </r>
       <r>    8.5780    1.0322 </r>
       <r>    8.9394    0.0351 </r>
       <r>    9.2274   -0.0047 </r>
       <r>    9.2958   -0.0012 </r>
       <r>    9.5806   -0.0000 </r>
       <r>    9.7060   -0.0000 </r>
       <r>   10.3213   -0.0000 </r>
       <r>   10.3253   -0.0000 </r>
       <r>   10.6037   -0.0000 </r>
       <r>   15.3583    0.0000 </r>
       <r>   16.2717    0.0000 </r>
       <r>   21.6337    0.0000 </r>
       <r>   23.0579    0.0000 </r>
       <r>   23.3238    0.0000 </r>
       <r>   23.9757    0.0000 </r>
       <r>   25.8270    0.0000 </r>
       <r>   26.6308    0.0000 </r>
       <r>   26.9165    0.0000 </r>
       <r>   28.2487    0.0000 </r>
       <r>   28.7479    0.0000 </r>
       <r>   32.8796    0.0000 </r>
       <r>   33.9741    0.0000 </r>
       <r>   34.5798    0.0000 </r>
       <r>   36.6640    0.0000 </r>
       <r>   37.3094    0.0000 </r>
       <r>   37.4735    0.0000 </r>
       <r>   38.3184    0.0000 </r>
      </set>
      <set comment="kpoint 10">
       <r>    1.1042    1.0000 </r>
       <r>    3.0124    1.0000 </r>
       <r>    3.7901    1.0000 </r>
       <r>    3.7928    1.0000 </r>
       <r>    4.3892    1.0000 </r>
       <r>    4.6329    1.0000 </r>
       <r>    4.6492    1.0000 </r>
       <r>    5.6830    1.0000 </r>
       <r>    6.7097    1.0000 </r>
       <r>    6.7947    1.0000 </r>
       <r>    7.3738    1.0000 </r>
       <r>    7.5860    1.0000 </r>
       <r>    7.8522    1.0000 </r>
       <r>    8.0075    1.0000 </r>
       <r>    8.8199    0.4013 </r>
       <r>    8.8686    0.2155 </r>
       <r>    9.0641   -0.0338 </r>
       <r>    9.1214   -0.0219 </r>
       <r>    9.2905   -0.0013 </r>
       <r>    9.9131   -0.0000 </r>
       <r>   10.3199   -0.0000 </r>
       <r>   10.3242   -0.0000 </r>
       <r>   16.7155    0.0000 </r>
       <r>   17.7365    0.0000 </r>
       <r>   20.5736    0.0000 </r>
       <r>   22.4113    0.0000 </r>
       <r>   22.9939    0.0000 </r>
       <r>   23.0287    0.0000 </r>
       <r>   25.4495    0.0000 </r>
       <r>   26.2093    0.0000 </r>
       <r>   28.4743    0.0000 </r>
       <r>   29.3872    0.0000 </r>
       <r>   30.3111    0.0000 </r>
       <r>   32.3958    0.0000 </r>
       <r>   33.0449    0.0000 </r>
       <r>   34.1612    0.0000 </r>
       <r>   36.2416    0.0000 </r>
       <r>   36.3632    0.0000 </r>
       <r>   38.8615    0.0000 </r>
       <r>   39.6107    0.0000 </r>
      </set>
      <set comment="kpoint 11">
       <r>    1.9551    1.0000 </r>
       <r>    2.6619    1.0000 </r>
       <r>    4.0728    1.0000 </r>
       <r>    4.0741    1.0000 </r>
       <r>    4.7962    1.0000 </r>
       <r>    5.1985    1.0000 </r>
       <r>    5.2388    1.0000 </r>
       <r>    5.2505    1.0000 </r>
       <r>    5.8906    1.0000 </r>
       <r>    5.9700    1.0000 </r>
       <r>    7.3266    1.0000 </r>
       <r>    7.3899    1.0000 </r>
       <r>    8.0287    1.0000 </r>
       <r>    8.2375    1.0003 </r>
       <r>    8.5319    1.0342 </r>
       <r>    8.5466    1.0354 </r>
       <r>    8.5652    1.0347 </r>
       <r>    8.7221    0.7919 </r>
       <r>    9.3369   -0.0004 </r>
       <r>    9.5829   -0.0000 </r>
       <r>   10.3210   -0.0000 </r>
       <r>   10.3227   -0.0000 </r>
       <r>   18.0557    0.0000 </r>
       <r>   19.2663    0.0000 </r>
       <r>   19.3512    0.0000 </r>
       <r>   20.8309    0.0000 </r>
       <r>   22.9429    0.0000 </r>
       <r>   22.9440    0.0000 </r>
       <r>   25.3856    0.0000 </r>
       <r>   25.6541    0.0000 </r>
       <r>   30.0871    0.0000 </r>
       <r>   30.5892    0.0000 </r>
       <r>   31.5734    0.0000 </r>
       <r>   31.6418    0.0000 </r>
       <r>   32.2556    0.0000 </r>
       <r>   34.3225    0.0000 </r>
       <r>   34.5446    0.0000 </r>
       <r>   35.2166    0.0000 </r>
       <r>   41.3711    0.0000 </r>
       <r>   42.1797    0.0000 </r>
      </set>
      <set comment="kpoint 12">
       <r>    0.0666    1.0000 </r>
       <r>    3.1505    1.0000 </r>
       <r>    3.1505    1.0000 </r>
       <r>    3.2578    1.0000 </r>
       <r>    3.9802    1.0000 </r>
       <r>    3.9802    1.0000 </r>
       <r>    4.0315    1.0000 </r>
       <r>    6.2988    1.0000 </r>
       <r>    7.0480    1.0000 </r>
       <r>    7.0535    1.0000 </r>
       <r>    8.1464    1.0000 </r>
       <r>    8.2179    1.0002 </r>
       <r>    8.2179    1.0002 </r>
       <r>    8.3874    1.0069 </r>
       <r>    8.8312    0.3555 </r>
       <r>    9.3919   -0.0001 </r>
       <r>    9.6497   -0.0000 </r>
       <r>    9.6497   -0.0000 </r>
       <r>   10.0211   -0.0000 </r>
       <r>   10.0211   -0.0000 </r>
       <r>   10.1689   -0.0000 </r>
       <r>   12.8628   -0.0000 </r>
       <r>   12.8628   -0.0000 </r>
       <r>   15.8269    0.0000 </r>
       <r>   21.3797    0.0000 </r>
       <r>   23.3744    0.0000 </r>
       <r>   24.6507    0.0000 </r>
       <r>   24.6507    0.0000 </r>
       <r>   26.0181    0.0000 </r>
       <r>   26.0181    0.0000 </r>
       <r>   27.1162    0.0000 </r>
       <r>   27.1162    0.0000 </r>
       <r>   28.7330    0.0000 </r>
       <r>   32.6574    0.0000 </r>
       <r>   34.5035    0.0000 </r>
       <r>   34.6966    0.0000 </r>
       <r>   35.4609    0.0000 </r>
       <r>   35.4609    0.0000 </r>
       <r>   38.7787    0.0000 </r>
       <r>   41.4221    0.0000 </r>
      </set>
      <set comment="kpoint 13">
       <r>    0.6663    1.0000 </r>
       <r>    3.3030    1.0000 </r>
       <r>    3.5455    1.0000 </r>
       <r>    3.5985    1.0000 </r>
       <r>    4.2194    1.0000 </r>
       <r>    4.3017    1.0000 </r>
       <r>    4.3257    1.0000 </r>
       <r>    6.0468    1.0000 </r>
       <r>    7.1430    1.0000 </r>
       <r>    7.2649    1.0000 </r>
       <r>    7.2672    1.0000 </r>
       <r>    7.4428    1.0000 </r>
       <r>    7.6541    1.0000 </r>
       <r>    8.2054    1.0001 </r>
       <r>    9.0086   -0.0303 </r>
       <r>    9.0655   -0.0336 </r>
       <r>    9.2776   -0.0017 </r>
       <r>    9.4813   -0.0000 </r>
       <r>    9.5774   -0.0000 </r>
       <r>   10.0179   -0.0000 </r>
       <r>   10.0747   -0.0000 </r>
       <r>   11.6510   -0.0000 </r>
       <r>   14.0468   -0.0000 </r>
       <r>   17.0322    0.0000 </r>
       <r>   20.0629    0.0000 </r>
       <r>   23.2378    0.0000 </r>
       <r>   24.4695    0.0000 </r>
       <r>   24.5056    0.0000 </r>
       <r>   26.3005    0.0000 </r>
       <r>   26.6998    0.0000 </r>
       <r>   26.8562    0.0000 </r>
       <r>   28.4551    0.0000 </r>
       <r>   28.9661    0.0000 </r>
       <r>   31.9060    0.0000 </r>
       <r>   32.9302    0.0000 </r>
       <r>   35.5360    0.0000 </r>
       <r>   35.6931    0.0000 </r>
       <r>   37.4891    0.0000 </r>
       <r>   38.5297    0.0000 </r>
       <r>   39.9651    0.0000 </r>
      </set>
      <set comment="kpoint 14">
       <r>    1.4319    1.0000 </r>
       <r>    3.3051    1.0000 </r>
       <r>    3.9805    1.0000 </r>
       <r>    3.9970    1.0000 </r>
       <r>    4.5346    1.0000 </r>
       <r>    4.6885    1.0000 </r>
       <r>    4.7444    1.0000 </r>
       <r>    5.6990    1.0000 </r>
       <r>    6.4081    1.0000 </r>
       <r>    6.6830    1.0000 </r>
       <r>    7.1332    1.0000 </r>
       <r>    7.1372    1.0000 </r>
       <r>    7.6057    1.0000 </r>
       <r>    8.1237    1.0000 </r>
       <r>    8.7125    0.8229 </r>
       <r>    8.8631    0.2344 </r>
       <r>    9.0618   -0.0341 </r>
       <r>    9.1567   -0.0144 </r>
       <r>    9.2815   -0.0016 </r>
       <r>   10.0147   -0.0000 </r>
       <r>   10.0327   -0.0000 </r>
       <r>   10.6990   -0.0000 </r>
       <r>   15.2214    0.0000 </r>
       <r>   18.3995    0.0000 </r>
       <r>   18.7616    0.0000 </r>
       <r>   22.9433    0.0000 </r>
       <r>   23.3011    0.0000 </r>
       <r>   24.1398    0.0000 </r>
       <r>   26.6681    0.0000 </r>
       <r>   27.6809    0.0000 </r>
       <r>   27.8705    0.0000 </r>
       <r>   28.3893    0.0000 </r>
       <r>   30.4661    0.0000 </r>
       <r>   31.0350    0.0000 </r>
       <r>   31.4975    0.0000 </r>
       <r>   36.0440    0.0000 </r>
       <r>   37.4436    0.0000 </r>
       <r>   37.6293    0.0000 </r>
       <r>   37.9150    0.0000 </r>
       <r>   39.8211    0.0000 </r>
      </set>
      <set comment="kpoint 15">
       <r>    2.2577    1.0000 </r>
       <r>    2.9553    1.0000 </r>
       <r>    4.3004    1.0000 </r>
       <r>    4.3092    1.0000 </r>
       <r>    4.9054    1.0000 </r>
       <r>    5.1080    1.0000 </r>
       <r>    5.2999    1.0000 </r>
       <r>    5.3048    1.0000 </r>
       <r>    5.6754    1.0000 </r>
       <r>    5.9540    1.0000 </r>
       <r>    6.8925    1.0000 </r>
       <r>    6.9742    1.0000 </r>
       <r>    8.0366    1.0000 </r>
       <r>    8.3269    1.0022 </r>
       <r>    8.4895    1.0261 </r>
       <r>    8.5331    1.0343 </r>
       <r>    8.5472    1.0354 </r>
       <r>    8.7238    0.7862 </r>
       <r>    9.6245   -0.0000 </r>
       <r>   10.0132   -0.0000 </r>
       <r>   10.0170   -0.0000 </r>
       <r>   10.0636   -0.0000 </r>
       <r>   16.3803    0.0000 </r>
       <r>   17.5454    0.0000 </r>
       <r>   19.8637    0.0000 </r>
       <r>   21.3858    0.0000 </r>
       <r>   23.4872    0.0000 </r>
       <r>   23.7764    0.0000 </r>
       <r>   27.0168    0.0000 </r>
       <r>   27.6394    0.0000 </r>
       <r>   28.9273    0.0000 </r>
       <r>   28.9695    0.0000 </r>
       <r>   30.0372    0.0000 </r>
       <r>   30.1763    0.0000 </r>
       <r>   32.8028    0.0000 </r>
       <r>   35.2208    0.0000 </r>
       <r>   36.5505    0.0000 </r>
       <r>   37.1955    0.0000 </r>
       <r>   39.8810    0.0000 </r>
       <r>   42.4239    0.0000 </r>
      </set>
      <set comment="kpoint 16">
       <r>    1.2287    1.0000 </r>
       <r>    3.7264    1.0000 </r>
       <r>    3.7264    1.0000 </r>
       <r>    3.9066    1.0000 </r>
       <r>    4.5048    1.0000 </r>
       <r>    4.5048    1.0000 </r>
       <r>    4.5513    1.0000 </r>
       <r>    5.9168    1.0000 </r>
       <r>    6.8103    1.0000 </r>
       <r>    6.8103    1.0000 </r>
       <r>    7.0172    1.0000 </r>
       <r>    7.0895    1.0000 </r>
       <r>    7.4108    1.0000 </r>
       <r>    8.0923    1.0000 </r>
       <r>    8.8091    0.4467 </r>
       <r>    9.1395   -0.0179 </r>
       <r>    9.1395   -0.0179 </r>
       <r>    9.2644   -0.0023 </r>
       <r>    9.5744   -0.0000 </r>
       <r>    9.5744   -0.0000 </r>
       <r>    9.8480   -0.0000 </r>
       <r>   12.6993   -0.0000 </r>
       <r>   12.6993   -0.0000 </r>
       <r>   18.1041    0.0000 </r>
       <r>   18.4972    0.0000 </r>
       <r>   23.3423    0.0000 </r>
       <r>   25.3098    0.0000 </r>
       <r>   25.3098    0.0000 </r>
       <r>   25.6861    0.0000 </r>
       <r>   25.6861    0.0000 </r>
       <r>   28.4476    0.0000 </r>
       <r>   28.4476    0.0000 </r>
       <r>   30.6474    0.0000 </r>
       <r>   30.8150    0.0000 </r>
       <r>   31.4113    0.0000 </r>
       <r>   34.8870    0.0000 </r>
       <r>   37.7996    0.0000 </r>
       <r>   37.7996    0.0000 </r>
       <r>   39.4293    0.0000 </r>
       <r>   40.8513    0.0000 </r>
      </set>
      <set comment="kpoint 17">
       <r>    1.9452    1.0000 </r>
       <r>    3.7479    1.0000 </r>
       <r>    4.2105    1.0000 </r>
       <r>    4.2895    1.0000 </r>
       <r>    4.7693    1.0000 </r>
       <r>    4.7960    1.0000 </r>
       <r>    4.8932    1.0000 </r>
       <r>    5.6875    1.0000 </r>
       <r>    6.0606    1.0000 </r>
       <r>    6.4691    1.0000 </r>
       <r>    6.4820    1.0000 </r>
       <r>    6.9595    1.0000 </r>
       <r>    7.6861    1.0000 </r>
       <r>    8.0125    1.0000 </r>
       <r>    8.5222    1.0328 </r>
       <r>    8.7498    0.6915 </r>
       <r>    8.8534    0.2696 </r>
       <r>    9.0642   -0.0338 </r>
       <r>    9.5753   -0.0000 </r>
       <r>    9.6585   -0.0000 </r>
       <r>    9.7015   -0.0000 </r>
       <r>   11.5855   -0.0000 </r>
       <r>   13.7396   -0.0000 </r>
       <r>   17.1060    0.0000 </r>
       <r>   19.3681    0.0000 </r>
       <r>   23.5587    0.0000 </r>
       <r>   23.7490    0.0000 </r>
       <r>   24.9845    0.0000 </r>
       <r>   26.2963    0.0000 </r>
       <r>   26.7092    0.0000 </r>
       <r>   28.7692    0.0000 </r>
       <r>   29.6831    0.0000 </r>
       <r>   30.0574    0.0000 </r>
       <r>   30.7755    0.0000 </r>
       <r>   30.8489    0.0000 </r>
       <r>   35.9769    0.0000 </r>
       <r>   38.2264    0.0000 </r>
       <r>   38.5586    0.0000 </r>
       <r>   39.6611    0.0000 </r>
       <r>   40.1672    0.0000 </r>
      </set>
      <set comment="kpoint 18">
       <r>    2.7221    1.0000 </r>
       <r>    3.3968    1.0000 </r>
       <r>    4.6109    1.0000 </r>
       <r>    4.6656    1.0000 </r>
       <r>    4.9884    1.0000 </r>
       <r>    5.0745    1.0000 </r>
       <r>    5.3704    1.0000 </r>
       <r>    5.3926    1.0000 </r>
       <r>    5.4213    1.0000 </r>
       <r>    5.9130    1.0000 </r>
       <r>    6.4475    1.0000 </r>
       <r>    6.6922    1.0000 </r>
       <r>    8.0766    1.0000 </r>
       <r>    8.1546    1.0000 </r>
       <r>    8.3497    1.0035 </r>
       <r>    8.4363    1.0144 </r>
       <r>    8.4803    1.0240 </r>
       <r>    8.5487    1.0354 </r>
       <r>    9.5877   -0.0000 </r>
       <r>    9.6232   -0.0000 </r>
       <r>   10.1478   -0.0000 </r>
       <r>   10.7608   -0.0000 </r>
       <r>   14.7879    0.0000 </r>
       <r>   15.8881    0.0000 </r>
       <r>   20.7554    0.0000 </r>
       <r>   22.2234    0.0000 </r>
       <r>   23.8942    0.0000 </r>
       <r>   24.3729    0.0000 </r>
       <r>   27.3899    0.0000 </r>
       <r>   27.7328    0.0000 </r>
       <r>   28.5347    0.0000 </r>
       <r>   28.8416    0.0000 </r>
       <r>   29.3569    0.0000 </r>
       <r>   30.1206    0.0000 </r>
       <r>   33.3214    0.0000 </r>
       <r>   35.9424    0.0000 </r>
       <r>   38.3034    0.0000 </r>
       <r>   38.7542    0.0000 </r>
       <r>   39.3106    0.0000 </r>
       <r>   40.9534    0.0000 </r>
      </set>
      <set comment="kpoint 19">
       <r>    2.5905    1.0000 </r>
       <r>    4.2594    1.0000 </r>
       <r>    4.2594    1.0000 </r>
       <r>    4.6057    1.0000 </r>
       <r>    4.9447    1.0000 </r>
       <r>    5.0801    1.0000 </r>
       <r>    5.0801    1.0000 </r>
       <r>    5.6141    1.0000 </r>
       <r>    5.8949    1.0000 </r>
       <r>    5.8949    1.0000 </r>
       <r>    6.1895    1.0000 </r>
       <r>    6.7757    1.0000 </r>
       <r>    7.8615    1.0000 </r>
       <r>    7.8732    1.0000 </r>
       <r>    8.2844    1.0009 </r>
       <r>    8.4951    1.0274 </r>
       <r>    8.4951    1.0274 </r>
       <r>    9.0818   -0.0308 </r>
       <r>    9.0818   -0.0308 </r>
       <r>    9.4239   -0.0000 </r>
       <r>   10.1743   -0.0000 </r>
       <r>   12.4964   -0.0000 </r>
       <r>   12.4964   -0.0000 </r>
       <r>   15.6821    0.0000 </r>
       <r>   20.5415    0.0000 </r>
       <r>   23.9014    0.0000 </r>
       <r>   24.7525    0.0000 </r>
       <r>   24.7525    0.0000 </r>
       <r>   25.7779    0.0000 </r>
       <r>   25.7779    0.0000 </r>
       <r>   28.3634    0.0000 </r>
       <r>   28.7731    0.0000 </r>
       <r>   31.2672    0.0000 </r>
       <r>   31.2672    0.0000 </r>
       <r>   33.0055    0.0000 </r>
       <r>   35.0915    0.0000 </r>
       <r>   38.6239    0.0000 </r>
       <r>   40.6326    0.0000 </r>
       <r>   40.6326    0.0000 </r>
       <r>   40.8188    0.0000 </r>
      </set>
      <set comment="kpoint 20">
       <r>    3.2841    1.0000 </r>
       <r>    3.9041    1.0000 </r>
       <r>    4.6963    1.0000 </r>
       <r>    4.8432    1.0000 </r>
       <r>    5.0955    1.0000 </r>
       <r>    5.2827    1.0000 </r>
       <r>    5.4241    1.0000 </r>
       <r>    5.4446    1.0000 </r>
       <r>    5.4716    1.0000 </r>
       <r>    5.8292    1.0000 </r>
       <r>    6.0964    1.0000 </r>
       <r>    6.4696    1.0000 </r>
       <r>    7.9038    1.0000 </r>
       <r>    8.1276    1.0000 </r>
       <r>    8.1635    1.0000 </r>
       <r>    8.1843    1.0001 </r>
       <r>    8.2046    1.0001 </r>
       <r>    8.6005    1.0229 </r>
       <r>    9.1317   -0.0196 </r>
       <r>    9.2372   -0.0039 </r>
       <r>   10.7876   -0.0000 </r>
       <r>   11.5339   -0.0000 </r>
       <r>   13.4443   -0.0000 </r>
       <r>   14.4814    0.0000 </r>
       <r>   21.8540    0.0000 </r>
       <r>   23.2635    0.0000 </r>
       <r>   24.3713    0.0000 </r>
       <r>   24.9942    0.0000 </r>
       <r>   25.8813    0.0000 </r>
       <r>   26.6530    0.0000 </r>
       <r>   27.0922    0.0000 </r>
       <r>   27.6437    0.0000 </r>
       <r>   31.9659    0.0000 </r>
       <r>   32.8192    0.0000 </r>
       <r>   33.9171    0.0000 </r>
       <r>   36.5690    0.0000 </r>
       <r>   36.8701    0.0000 </r>
       <r>   39.6200    0.0000 </r>
       <r>   40.8084    0.0000 </r>
       <r>   41.1450    0.0000 </r>
      </set>
      <set comment="kpoint 21">
       <r>    3.8564    1.0000 </r>
       <r>    4.3559    1.0000 </r>
       <r>    4.3559    1.0000 </r>
       <r>    4.6605    1.0000 </r>
       <r>    5.4961    1.0000 </r>
       <r>    5.4993    1.0000 </r>
       <r>    5.4993    1.0000 </r>
       <r>    5.5116    1.0000 </r>
       <r>    5.6898    1.0000 </r>
       <r>    5.8122    1.0000 </r>
       <r>    5.8122    1.0000 </r>
       <r>    6.2031    1.0000 </r>
       <r>    7.7887    1.0000 </r>
       <r>    7.9279    1.0000 </r>
       <r>    7.9291    1.0000 </r>
       <r>    7.9291    1.0000 </r>
       <r>    8.3936    1.0076 </r>
       <r>    8.7168    0.8091 </r>
       <r>    8.7168    0.8091 </r>
       <r>    8.9261    0.0596 </r>
       <r>   11.5146   -0.0000 </r>
       <r>   12.3729   -0.0000 </r>
       <r>   12.3729   -0.0000 </r>
       <r>   13.3290   -0.0000 </r>
       <r>   23.0972    0.0000 </r>
       <r>   24.4481    0.0000 </r>
       <r>   24.4481    0.0000 </r>
       <r>   24.9742    0.0000 </r>
       <r>   25.7283    0.0000 </r>
       <r>   25.7310    0.0000 </r>
       <r>   25.7310    0.0000 </r>
       <r>   26.6088    0.0000 </r>
       <r>   34.6742    0.0000 </r>
       <r>   34.6742    0.0000 </r>
       <r>   35.6318    0.0000 </r>
       <r>   35.6631    0.0000 </r>
       <r>   36.8254    0.0000 </r>
       <r>   38.3685    0.0000 </r>
       <r>   38.5554    0.0000 </r>
       <r>   38.5554    0.0000 </r>
      </set>
      <set comment="kpoint 22">
       <r>   -0.5720    1.0000 </r>
       <r>    2.8393    1.0000 </r>
       <r>    2.8393    1.0000 </r>
       <r>    2.8393    1.0000 </r>
       <r>    3.6918    1.0000 </r>
       <r>    3.6918    1.0000 </r>
       <r>    3.6918    1.0000 </r>
       <r>    6.5738    1.0000 </r>
       <r>    6.8609    1.0000 </r>
       <r>    6.8609    1.0000 </r>
       <r>    8.6658    0.9425 </r>
       <r>    8.6658    0.9425 </r>
       <r>    9.3369   -0.0004 </r>
       <r>    9.3369   -0.0004 </r>
       <r>    9.3369   -0.0004 </r>
       <r>    9.7800   -0.0000 </r>
       <r>    9.7800   -0.0000 </r>
       <r>    9.7800   -0.0000 </r>
       <r>   10.3271   -0.0000 </r>
       <r>   10.3271   -0.0000 </r>
       <r>   10.3271   -0.0000 </r>
       <r>   13.2978   -0.0000 </r>
       <r>   13.2978   -0.0000 </r>
       <r>   13.2978   -0.0000 </r>
       <r>   23.1038    0.0000 </r>
       <r>   23.1038    0.0000 </r>
       <r>   23.1038    0.0000 </r>
       <r>   25.5802    0.0000 </r>
       <r>   25.5802    0.0000 </r>
       <r>   25.5802    0.0000 </r>
       <r>   27.6745    0.0000 </r>
       <r>   27.6745    0.0000 </r>
       <r>   27.6745    0.0000 </r>
       <r>   33.2580    0.0000 </r>
       <r>   34.0376    0.0000 </r>
       <r>   34.0376    0.0000 </r>
       <r>   34.0376    0.0000 </r>
       <r>   37.0515    0.0000 </r>
       <r>   40.0690    0.0000 </r>
       <r>   40.0690    0.0000 </r>
      </set>
      <set comment="kpoint 23">
       <r>   -0.1853    1.0000 </r>
       <r>    2.9728    1.0000 </r>
       <r>    3.0866    1.0000 </r>
       <r>    3.0866    1.0000 </r>
       <r>    3.8498    1.0000 </r>
       <r>    3.8939    1.0000 </r>
       <r>    3.8939    1.0000 </r>
       <r>    6.3950    1.0000 </r>
       <r>    6.9808    1.0000 </r>
       <r>    6.9926    1.0000 </r>
       <r>    8.4807    1.0241 </r>
       <r>    8.4947    1.0273 </r>
       <r>    8.4947    1.0273 </r>
       <r>    8.7662    0.6261 </r>
       <r>    8.9059    0.1049 </r>
       <r>    9.5371   -0.0000 </r>
       <r>    9.5423   -0.0000 </r>
       <r>    9.5423   -0.0000 </r>
       <r>   10.2146   -0.0000 </r>
       <r>   10.2914   -0.0000 </r>
       <r>   10.2914   -0.0000 </r>
       <r>   12.1670   -0.0000 </r>
       <r>   14.3563    0.0000 </r>
       <r>   14.3563    0.0000 </r>
       <r>   22.8592    0.0000 </r>
       <r>   22.8592    0.0000 </r>
       <r>   24.4209    0.0000 </r>
       <r>   24.4209    0.0000 </r>
       <r>   24.6143    0.0000 </r>
       <r>   26.2704    0.0000 </r>
       <r>   27.6840    0.0000 </r>
       <r>   27.6840    0.0000 </r>
       <r>   28.3152    0.0000 </r>
       <r>   32.8180    0.0000 </r>
       <r>   34.1013    0.0000 </r>
       <r>   34.9867    0.0000 </r>
       <r>   34.9867    0.0000 </r>
       <r>   35.7740    0.0000 </r>
       <r>   38.8426    0.0000 </r>
       <r>   40.3444    0.0000 </r>
      </set>
      <set comment="kpoint 24">
       <r>    0.4282    1.0000 </r>
       <r>    3.1123    1.0000 </r>
       <r>    3.4537    1.0000 </r>
       <r>    3.4537    1.0000 </r>
       <r>    4.1045    1.0000 </r>
       <r>    4.2221    1.0000 </r>
       <r>    4.2221    1.0000 </r>
       <r>    6.0873    1.0000 </r>
       <r>    7.1798    1.0000 </r>
       <r>    7.2100    1.0000 </r>
       <r>    7.5680    1.0000 </r>
       <r>    7.5680    1.0000 </r>
       <r>    8.2447    1.0003 </r>
       <r>    8.2645    1.0006 </r>
       <r>    8.9242    0.0633 </r>
       <r>    9.1737   -0.0113 </r>
       <r>    9.1976   -0.0078 </r>
       <r>    9.1976   -0.0078 </r>
       <r>   10.0462   -0.0000 </r>
       <r>   10.2596   -0.0000 </r>
       <r>   10.2596   -0.0000 </r>
       <r>   10.9515   -0.0000 </r>
       <r>   15.5976    0.0000 </r>
       <r>   15.5976    0.0000 </r>
       <r>   22.0792    0.0000 </r>
       <r>   22.0792    0.0000 </r>
       <r>   23.8627    0.0000 </r>
       <r>   23.8627    0.0000 </r>
       <r>   26.2275    0.0000 </r>
       <r>   27.1040    0.0000 </r>
       <r>   27.1040    0.0000 </r>
       <r>   27.5805    0.0000 </r>
       <r>   29.3202    0.0000 </r>
       <r>   32.0872    0.0000 </r>
       <r>   34.2303    0.0000 </r>
       <r>   34.6633    0.0000 </r>
       <r>   36.7178    0.0000 </r>
       <r>   36.7178    0.0000 </r>
       <r>   37.2705    0.0000 </r>
       <r>   39.2905    0.0000 </r>
      </set>
      <set comment="kpoint 25">
       <r>    1.2107    1.0000 </r>
       <r>    3.1034    1.0000 </r>
       <r>    3.8595    1.0000 </r>
       <r>    3.8595    1.0000 </r>
       <r>    4.4416    1.0000 </r>
       <r>    4.6586    1.0000 </r>
       <r>    4.6586    1.0000 </r>
       <r>    5.6978    1.0000 </r>
       <r>    6.6928    1.0000 </r>
       <r>    6.6928    1.0000 </r>
       <r>    7.2948    1.0000 </r>
       <r>    7.5080    1.0000 </r>
       <r>    7.6023    1.0000 </r>
       <r>    8.1722    1.0000 </r>
       <r>    8.7435    0.7154 </r>
       <r>    8.8077    0.4523 </r>
       <r>    8.8077    0.4523 </r>
       <r>    9.1271   -0.0206 </r>
       <r>    9.8365   -0.0000 </r>
       <r>    9.9177   -0.0000 </r>
       <r>   10.2424   -0.0000 </r>
       <r>   10.2424   -0.0000 </r>
       <r>   16.8801    0.0000 </r>
       <r>   16.8801    0.0000 </r>
       <r>   20.9440    0.0000 </r>
       <r>   20.9440    0.0000 </r>
       <r>   23.7679    0.0000 </r>
       <r>   23.7679    0.0000 </r>
       <r>   26.4163    0.0000 </r>
       <r>   26.4163    0.0000 </r>
       <r>   27.5411    0.0000 </r>
       <r>   29.4771    0.0000 </r>
       <r>   30.6220    0.0000 </r>
       <r>   31.0894    0.0000 </r>
       <r>   33.7606    0.0000 </r>
       <r>   34.4934    0.0000 </r>
       <r>   35.5497    0.0000 </r>
       <r>   37.6546    0.0000 </r>
       <r>   38.9092    0.0000 </r>
       <r>   38.9092    0.0000 </r>
      </set>
      <set comment="kpoint 26">
       <r>    2.0511    1.0000 </r>
       <r>    2.7528    1.0000 </r>
       <r>    4.1537    1.0000 </r>
       <r>    4.1537    1.0000 </r>
       <r>    4.8391    1.0000 </r>
       <r>    5.1746    1.0000 </r>
       <r>    5.1746    1.0000 </r>
       <r>    5.2690    1.0000 </r>
       <r>    5.9367    1.0000 </r>
       <r>    5.9367    1.0000 </r>
       <r>    7.1992    1.0000 </r>
       <r>    7.2157    1.0000 </r>
       <r>    7.8767    1.0000 </r>
       <r>    8.2978    1.0012 </r>
       <r>    8.5033    1.0291 </r>
       <r>    8.5312    1.0341 </r>
       <r>    8.5312    1.0341 </r>
       <r>    9.1081   -0.0250 </r>
       <r>    9.3591   -0.0003 </r>
       <r>    9.6015   -0.0000 </r>
       <r>   10.2355   -0.0000 </r>
       <r>   10.2355   -0.0000 </r>
       <r>   18.0551    0.0000 </r>
       <r>   18.0551    0.0000 </r>
       <r>   19.8363    0.0000 </r>
       <r>   19.8363    0.0000 </r>
       <r>   23.7915    0.0000 </r>
       <r>   23.7915    0.0000 </r>
       <r>   25.9688    0.0000 </r>
       <r>   25.9688    0.0000 </r>
       <r>   28.7611    0.0000 </r>
       <r>   29.9578    0.0000 </r>
       <r>   31.3671    0.0000 </r>
       <r>   32.1478    0.0000 </r>
       <r>   32.7959    0.0000 </r>
       <r>   33.8201    0.0000 </r>
       <r>   35.0355    0.0000 </r>
       <r>   36.1008    0.0000 </r>
       <r>   41.3406    0.0000 </r>
       <r>   41.3406    0.0000 </r>
      </set>
      <set comment="kpoint 27">
       <r>    0.1852    1.0000 </r>
       <r>    3.2254    1.0000 </r>
       <r>    3.2254    1.0000 </r>
       <r>    3.3096    1.0000 </r>
       <r>    4.0412    1.0000 </r>
       <r>    4.0412    1.0000 </r>
       <r>    4.0780    1.0000 </r>
       <r>    6.2896    1.0000 </r>
       <r>    7.0518    1.0000 </r>
       <r>    7.0543    1.0000 </r>
       <r>    8.0218    1.0000 </r>
       <r>    8.0907    1.0000 </r>
       <r>    8.0907    1.0000 </r>
       <r>    8.4563    1.0185 </r>
       <r>    8.7784    0.5759 </r>
       <r>    9.2585   -0.0026 </r>
       <r>    9.3259   -0.0006 </r>
       <r>    9.3259   -0.0006 </r>
       <r>   10.1855   -0.0000 </r>
       <r>   10.1855   -0.0000 </r>
       <r>   10.2047   -0.0000 </r>
       <r>   13.1260   -0.0000 </r>
       <r>   13.1260   -0.0000 </r>
       <r>   15.1728    0.0000 </r>
       <r>   21.8074    0.0000 </r>
       <r>   23.9236    0.0000 </r>
       <r>   24.0097    0.0000 </r>
       <r>   24.0097    0.0000 </r>
       <r>   25.4960    0.0000 </r>
       <r>   25.4960    0.0000 </r>
       <r>   28.2836    0.0000 </r>
       <r>   28.2836    0.0000 </r>
       <r>   28.9273    0.0000 </r>
       <r>   31.8965    0.0000 </r>
       <r>   34.7201    0.0000 </r>
       <r>   34.8634    0.0000 </r>
       <r>   35.1054    0.0000 </r>
       <r>   35.1054    0.0000 </r>
       <r>   38.9164    0.0000 </r>
       <r>   40.9564    0.0000 </r>
      </set>
      <set comment="kpoint 28">
       <r>    0.7722    1.0000 </r>
       <r>    3.3701    1.0000 </r>
       <r>    3.6028    1.0000 </r>
       <r>    3.6478    1.0000 </r>
       <r>    4.2806    1.0000 </r>
       <r>    4.3488    1.0000 </r>
       <r>    4.3637    1.0000 </r>
       <r>    6.0580    1.0000 </r>
       <r>    7.1363    1.0000 </r>
       <r>    7.2220    1.0000 </r>
       <r>    7.2241    1.0000 </r>
       <r>    7.3440    1.0000 </r>
       <r>    7.5501    1.0000 </r>
       <r>    8.3134    1.0017 </r>
       <r>    8.9514    0.0167 </r>
       <r>    8.9696   -0.0050 </r>
       <r>    8.9750   -0.0102 </r>
       <r>    9.0614   -0.0341 </r>
       <r>   10.0073   -0.0000 </r>
       <r>   10.0989   -0.0000 </r>
       <r>   10.1087   -0.0000 </r>
       <r>   11.8134   -0.0000 </r>
       <r>   14.2133   -0.0000 </r>
       <r>   16.2064    0.0000 </r>
       <r>   20.4808    0.0000 </r>
       <r>   22.8337    0.0000 </r>
       <r>   23.9416    0.0000 </r>
       <r>   25.0393    0.0000 </r>
       <r>   25.3469    0.0000 </r>
       <r>   27.3050    0.0000 </r>
       <r>   27.7031    0.0000 </r>
       <r>   29.1350    0.0000 </r>
       <r>   29.2840    0.0000 </r>
       <r>   30.7522    0.0000 </r>
       <r>   33.8776    0.0000 </r>
       <r>   35.3282    0.0000 </r>
       <r>   35.5617    0.0000 </r>
       <r>   36.8668    0.0000 </r>
       <r>   38.0903    0.0000 </r>
       <r>   40.6395    0.0000 </r>
      </set>
      <set comment="kpoint 29">
       <r>    1.5202    1.0000 </r>
       <r>    3.3610    1.0000 </r>
       <r>    4.0327    1.0000 </r>
       <r>    4.0500    1.0000 </r>
       <r>    4.5986    1.0000 </r>
       <r>    4.6973    1.0000 </r>
       <r>    4.7381    1.0000 </r>
       <r>    5.7316    1.0000 </r>
       <r>    6.4400    1.0000 </r>
       <r>    6.6319    1.0000 </r>
       <r>    7.0563    1.0000 </r>
       <r>    7.1162    1.0000 </r>
       <r>    7.4660    1.0000 </r>
       <r>    8.3321    1.0025 </r>
       <r>    8.5595    1.0352 </r>
       <r>    8.6327    0.9946 </r>
       <r>    8.7270    0.7752 </r>
       <r>    9.2482   -0.0032 </r>
       <r>    9.7116   -0.0000 </r>
       <r>   10.0363   -0.0000 </r>
       <r>   10.0407   -0.0000 </r>
       <r>   10.7210   -0.0000 </r>
       <r>   15.3129    0.0000 </r>
       <r>   17.1784    0.0000 </r>
       <r>   19.4093    0.0000 </r>
       <r>   21.5809    0.0000 </r>
       <r>   24.1451    0.0000 </r>
       <r>   25.2534    0.0000 </r>
       <r>   26.0840    0.0000 </r>
       <r>   27.2165    0.0000 </r>
       <r>   28.5430    0.0000 </r>
       <r>   29.1448    0.0000 </r>
       <r>   29.5450    0.0000 </r>
       <r>   30.7949    0.0000 </r>
       <r>   32.8830    0.0000 </r>
       <r>   35.7184    0.0000 </r>
       <r>   36.6564    0.0000 </r>
       <r>   37.4753    0.0000 </r>
       <r>   39.0040    0.0000 </r>
       <r>   39.0555    0.0000 </r>
      </set>
      <set comment="kpoint 30">
       <r>    2.3260    1.0000 </r>
       <r>    3.0095    1.0000 </r>
       <r>    4.3748    1.0000 </r>
       <r>    4.3853    1.0000 </r>
       <r>    4.9677    1.0000 </r>
       <r>    5.0056    1.0000 </r>
       <r>    5.0926    1.0000 </r>
       <r>    5.3557    1.0000 </r>
       <r>    5.8765    1.0000 </r>
       <r>    6.0216    1.0000 </r>
       <r>    6.8419    1.0000 </r>
       <r>    6.9392    1.0000 </r>
       <r>    7.7738    1.0000 </r>
       <r>    8.1450    1.0000 </r>
       <r>    8.4178    1.0111 </r>
       <r>    8.4562    1.0185 </r>
       <r>    8.6811    0.9094 </r>
       <r>    9.2263   -0.0048 </r>
       <r>    9.5817   -0.0000 </r>
       <r>   10.0076   -0.0000 </r>
       <r>   10.0086   -0.0000 </r>
       <r>   10.0097   -0.0000 </r>
       <r>   16.3715    0.0000 </r>
       <r>   17.2522    0.0000 </r>
       <r>   19.3826    0.0000 </r>
       <r>   20.3826    0.0000 </r>
       <r>   24.4875    0.0000 </r>
       <r>   24.9190    0.0000 </r>
       <r>   27.1919    0.0000 </r>
       <r>   27.2746    0.0000 </r>
       <r>   27.8045    0.0000 </r>
       <r>   28.3491    0.0000 </r>
       <r>   30.6031    0.0000 </r>
       <r>   31.8176    0.0000 </r>
       <r>   32.7973    0.0000 </r>
       <r>   34.8582    0.0000 </r>
       <r>   36.3818    0.0000 </r>
       <r>   37.4596    0.0000 </r>
       <r>   39.8135    0.0000 </r>
       <r>   41.0999    0.0000 </r>
      </set>
      <set comment="kpoint 31">
       <r>    1.3143    1.0000 </r>
       <r>    3.7544    1.0000 </r>
       <r>    3.7544    1.0000 </r>
       <r>    3.9396    1.0000 </r>
       <r>    4.5631    1.0000 </r>
       <r>    4.5631    1.0000 </r>
       <r>    4.5802    1.0000 </r>
       <r>    5.9530    1.0000 </r>
       <r>    6.8033    1.0000 </r>
       <r>    6.8033    1.0000 </r>
       <r>    6.9676    1.0000 </r>
       <r>    7.0875    1.0000 </r>
       <r>    7.3042    1.0000 </r>
       <r>    8.2621    1.0005 </r>
       <r>    8.6556    0.9613 </r>
       <r>    8.7789    0.5740 </r>
       <r>    8.7789    0.5740 </r>
       <r>    9.2176   -0.0056 </r>
       <r>    9.8635   -0.0000 </r>
       <r>    9.8635   -0.0000 </r>
       <r>    9.9385   -0.0000 </r>
       <r>   12.7852   -0.0000 </r>
       <r>   12.7852   -0.0000 </r>
       <r>   16.8606    0.0000 </r>
       <r>   19.2016    0.0000 </r>
       <r>   23.6777    0.0000 </r>
       <r>   23.6777    0.0000 </r>
       <r>   24.1480    0.0000 </r>
       <r>   27.0333    0.0000 </r>
       <r>   27.0333    0.0000 </r>
       <r>   28.9366    0.0000 </r>
       <r>   28.9366    0.0000 </r>
       <r>   29.3853    0.0000 </r>
       <r>   30.8089    0.0000 </r>
       <r>   32.7546    0.0000 </r>
       <r>   34.8996    0.0000 </r>
       <r>   37.1517    0.0000 </r>
       <r>   37.1517    0.0000 </r>
       <r>   38.7466    0.0000 </r>
       <r>   41.8415    0.0000 </r>
      </set>
      <set comment="kpoint 32">
       <r>    2.0010    1.0000 </r>
       <r>    3.7357    1.0000 </r>
       <r>    4.1979    1.0000 </r>
       <r>    4.3009    1.0000 </r>
       <r>    4.7948    1.0000 </r>
       <r>    4.8564    1.0000 </r>
       <r>    4.8990    1.0000 </r>
       <r>    5.7546    1.0000 </r>
       <r>    6.1613    1.0000 </r>
       <r>    6.4884    1.0000 </r>
       <r>    6.5079    1.0000 </r>
       <r>    6.9608    1.0000 </r>
       <r>    7.4574    1.0000 </r>
       <r>    8.3023    1.0013 </r>
       <r>    8.3795    1.0060 </r>
       <r>    8.4012    1.0086 </r>
       <r>    8.5172    1.0319 </r>
       <r>    9.5254   -0.0000 </r>
       <r>    9.6072   -0.0000 </r>
       <r>    9.7450   -0.0000 </r>
       <r>    9.7949   -0.0000 </r>
       <r>   11.5869   -0.0000 </r>
       <r>   13.7707   -0.0000 </r>
       <r>   16.6919    0.0000 </r>
       <r>   19.0878    0.0000 </r>
       <r>   22.3696    0.0000 </r>
       <r>   24.4883    0.0000 </r>
       <r>   24.6457    0.0000 </r>
       <r>   26.4139    0.0000 </r>
       <r>   28.0797    0.0000 </r>
       <r>   28.3320    0.0000 </r>
       <r>   29.0028    0.0000 </r>
       <r>   30.9750    0.0000 </r>
       <r>   30.9799    0.0000 </r>
       <r>   31.6242    0.0000 </r>
       <r>   35.9889    0.0000 </r>
       <r>   37.6052    0.0000 </r>
       <r>   37.8653    0.0000 </r>
       <r>   39.2912    0.0000 </r>
       <r>   40.3546    0.0000 </r>
      </set>
      <set comment="kpoint 33">
       <r>    2.7402    1.0000 </r>
       <r>    3.3814    1.0000 </r>
       <r>    4.6073    1.0000 </r>
       <r>    4.7044    1.0000 </r>
       <r>    4.8448    1.0000 </r>
       <r>    5.0319    1.0000 </r>
       <r>    5.1802    1.0000 </r>
       <r>    5.4873    1.0000 </r>
       <r>    5.8505    1.0000 </r>
       <r>    6.0823    1.0000 </r>
       <r>    6.4665    1.0000 </r>
       <r>    6.6995    1.0000 </r>
       <r>    7.6906    1.0000 </r>
       <r>    8.0159    1.0000 </r>
       <r>    8.2143    1.0002 </r>
       <r>    8.2754    1.0007 </r>
       <r>    8.6066    1.0190 </r>
       <r>    9.0722   -0.0325 </r>
       <r>    9.6927   -0.0000 </r>
       <r>    9.7095   -0.0000 </r>
       <r>   10.0894   -0.0000 </r>
       <r>   10.7099   -0.0000 </r>
       <r>   14.7597    0.0000 </r>
       <r>   15.7622    0.0000 </r>
       <r>   19.9928    0.0000 </r>
       <r>   21.1378    0.0000 </r>
       <r>   24.9871    0.0000 </r>
       <r>   25.6513    0.0000 </r>
       <r>   25.7113    0.0000 </r>
       <r>   26.8577    0.0000 </r>
       <r>   29.4385    0.0000 </r>
       <r>   29.4985    0.0000 </r>
       <r>   30.2412    0.0000 </r>
       <r>   30.5298    0.0000 </r>
       <r>   33.3771    0.0000 </r>
       <r>   35.7940    0.0000 </r>
       <r>   38.2511    0.0000 </r>
       <r>   38.2653    0.0000 </r>
       <r>   39.1736    0.0000 </r>
       <r>   40.3448    0.0000 </r>
      </set>
      <set comment="kpoint 34">
       <r>    2.5974    1.0000 </r>
       <r>    4.1417    1.0000 </r>
       <r>    4.1417    1.0000 </r>
       <r>    4.5120    1.0000 </r>
       <r>    4.9712    1.0000 </r>
       <r>    5.1797    1.0000 </r>
       <r>    5.1797    1.0000 </r>
       <r>    5.7302    1.0000 </r>
       <r>    6.0229    1.0000 </r>
       <r>    6.0229    1.0000 </r>
       <r>    6.3190    1.0000 </r>
       <r>    6.7925    1.0000 </r>
       <r>    7.4719    1.0000 </r>
       <r>    8.1184    1.0000 </r>
       <r>    8.1963    1.0001 </r>
       <r>    8.1963    1.0001 </r>
       <r>    8.3111    1.0016 </r>
       <r>    9.3763   -0.0002 </r>
       <r>    9.3763   -0.0002 </r>
       <r>    9.5613   -0.0000 </r>
       <r>   10.1148   -0.0000 </r>
       <r>   12.4718   -0.0000 </r>
       <r>   12.4718   -0.0000 </r>
       <r>   15.5156    0.0000 </r>
       <r>   19.8561    0.0000 </r>
       <r>   23.3030    0.0000 </r>
       <r>   23.3030    0.0000 </r>
       <r>   24.9478    0.0000 </r>
       <r>   26.7339    0.0000 </r>
       <r>   27.3332    0.0000 </r>
       <r>   27.3332    0.0000 </r>
       <r>   30.4208    0.0000 </r>
       <r>   31.3978    0.0000 </r>
       <r>   31.3978    0.0000 </r>
       <r>   33.1341    0.0000 </r>
       <r>   35.0786    0.0000 </r>
       <r>   38.0927    0.0000 </r>
       <r>   39.6108    0.0000 </r>
       <r>   39.6108    0.0000 </r>
       <r>   40.9227    0.0000 </r>
      </set>
      <set comment="kpoint 35">
       <r>    3.2273    1.0000 </r>
       <r>    3.7843    1.0000 </r>
       <r>    4.4667    1.0000 </r>
       <r>    4.5964    1.0000 </r>
       <r>    5.1738    1.0000 </r>
       <r>    5.3408    1.0000 </r>
       <r>    5.4620    1.0000 </r>
       <r>    5.6370    1.0000 </r>
       <r>    5.8647    1.0000 </r>
       <r>    6.0868    1.0000 </r>
       <r>    6.1636    1.0000 </r>
       <r>    6.5007    1.0000 </r>
       <r>    7.5878    1.0000 </r>
       <r>    7.8526    1.0000 </r>
       <r>    7.9549    1.0000 </r>
       <r>    7.9980    1.0000 </r>
       <r>    8.5437    1.0352 </r>
       <r>    8.9443    0.0272 </r>
       <r>    9.3264   -0.0006 </r>
       <r>    9.3921   -0.0001 </r>
       <r>   10.7219   -0.0000 </r>
       <r>   11.4749   -0.0000 </r>
[...]
       <r>    9.9381   -0.0000 </r>
       <r>   10.0421   -0.0000 </r>
       <r>   10.0421   -0.0000 </r>
       <r>   10.0752   -0.0000 </r>
       <r>   10.9068   -0.0000 </r>
       <r>   12.2023   -0.0000 </r>
       <r>   12.2023   -0.0000 </r>
       <r>   19.0084    0.0000 </r>
       <r>   19.0084    0.0000 </r>
       <r>   20.1869    0.0000 </r>
       <r>   21.1168    0.0000 </r>
       <r>   30.8752    0.0000 </r>
       <r>   30.8752    0.0000 </r>
       <r>   31.7138    0.0000 </r>
       <r>   32.3313    0.0000 </r>
       <r>   35.0235    0.0000 </r>
       <r>   35.0235    0.0000 </r>
       <r>   36.2513    0.0000 </r>
       <r>   37.2604    0.0000 </r>
       <r>   37.2604    0.0000 </r>
       <r>   37.6239    0.0000 </r>
       <r>   37.6557    0.0000 </r>
       <r>   39.6276    0.0000 </r>
      </set>
      <set comment="kpoint 55">
       <r>    2.9888    1.0000 </r>
       <r>    3.1379    1.0000 </r>
       <r>    3.1379    1.0000 </r>
       <r>    3.2079    1.0000 </r>
       <r>    6.3167    1.0000 </r>
       <r>    6.4063    1.0000 </r>
       <r>    6.4063    1.0000 </r>
       <r>    6.6131    1.0000 </r>
       <r>    6.7144    1.0000 </r>
       <r>    6.7922    1.0000 </r>
       <r>    6.7922    1.0000 </r>
       <r>    6.8165    1.0000 </r>
       <r>    7.9227    1.0000 </r>
       <r>    7.9227    1.0000 </r>
       <r>    7.9240    1.0000 </r>
       <r>    8.0205    1.0000 </r>
       <r>    9.8185   -0.0000 </r>
       <r>    9.9925   -0.0000 </r>
       <r>    9.9925   -0.0000 </r>
       <r>   10.0013   -0.0000 </r>
       <r>   10.3693   -0.0000 </r>
       <r>   11.1181   -0.0000 </r>
       <r>   11.1181   -0.0000 </r>
       <r>   11.5786   -0.0000 </r>
       <r>   19.0069    0.0000 </r>
       <r>   19.4202    0.0000 </r>
       <r>   19.4202    0.0000 </r>
       <r>   20.1395    0.0000 </r>
       <r>   31.3412    0.0000 </r>
       <r>   31.6254    0.0000 </r>
       <r>   31.6254    0.0000 </r>
       <r>   32.0637    0.0000 </r>
       <r>   36.6117    0.0000 </r>
       <r>   36.6119    0.0000 </r>
       <r>   36.6119    0.0000 </r>
       <r>   37.2596    0.0000 </r>
       <r>   37.7016    0.0000 </r>
       <r>   38.1390    0.0000 </r>
       <r>   38.1390    0.0000 </r>
       <r>   39.4741    0.0000 </r>
      </set>
      <set comment="kpoint 56">
       <r>    2.9341    1.0000 </r>
       <r>    3.0072    1.0000 </r>
       <r>    3.0072    1.0000 </r>
       <r>    3.0072    1.0000 </r>
       <r>    6.5309    1.0000 </r>
       <r>    6.5309    1.0000 </r>
       <r>    6.5309    1.0000 </r>
       <r>    6.6317    1.0000 </r>
       <r>    6.6317    1.0000 </r>
       <r>    6.6667    1.0000 </r>
       <r>    6.6667    1.0000 </r>
       <r>    6.6667    1.0000 </r>
       <r>    8.5663    1.0345 </r>
       <r>    8.5663    1.0345 </r>
       <r>    8.5663    1.0345 </r>
       <r>    8.7631    0.6389 </r>
       <r>   10.0236   -0.0000 </r>
       <r>   10.0236   -0.0000 </r>
       <r>   10.0864   -0.0000 </r>
       <r>   10.0864   -0.0000 </r>
       <r>   10.0864   -0.0000 </r>
       <r>   10.6077   -0.0000 </r>
       <r>   10.6077   -0.0000 </r>
       <r>   10.6077   -0.0000 </r>
       <r>   19.0027    0.0000 </r>
       <r>   19.0027    0.0000 </r>
       <r>   19.0027    0.0000 </r>
       <r>   19.3966    0.0000 </r>
       <r>   31.8660    0.0000 </r>
       <r>   31.8660    0.0000 </r>
       <r>   31.8660    0.0000 </r>
       <r>   32.0731    0.0000 </r>
       <r>   38.1592    0.0000 </r>
       <r>   38.1592    0.0000 </r>
       <r>   38.1592    0.0000 </r>
       <r>   38.2544    0.0000 </r>
       <r>   38.2544    0.0000 </r>
       <r>   38.2544    0.0000 </r>
       <r>   39.1149    0.0000 </r>
       <r>   39.1149    0.0000 </r>
      </set>
     </set>
    </set>
   </array>
  </eigenvalues>
  <separator name="orbital magnetization" >
   <v name="MAGDIPOLOUT">      0.00000000      0.00000000      0.00000000</v>
  </separator>
  <dos>
   <i name="efermi">      8.79643938 </i>
   <total>
    <array>
     <dimension dim="1">gridpoints</dimension>
     <dimension dim="2">spin</dimension>
     <field>energy</field>
     <field>total</field>
     <field>integrated</field>
     <set>
      <set comment="spin 1">
       <r>    -3.1424     0.0000     0.0000 </r>
       <r>    -2.9832     0.0000     0.0000 </r>
       <r>    -2.8241     0.0000     0.0000 </r>
       <r>    -2.6650    -0.0000    -0.0000 </r>
       <r>    -2.5059    -0.0000    -0.0000 </r>
       <r>    -2.3467    -0.0000    -0.0000 </r>
       <r>    -2.1876    -0.0000    -0.0000 </r>
       <r>    -2.0285    -0.0000    -0.0000 </r>
       <r>    -1.8694    -0.0000    -0.0000 </r>
       <r>    -1.7103    -0.0000    -0.0000 </r>
       <r>    -1.5511    -0.0000    -0.0000 </r>
       <r>    -1.3920    -0.0001    -0.0000 </r>
       <r>    -1.2329    -0.0008    -0.0001 </r>
       <r>    -1.0738    -0.0014    -0.0004 </r>
       <r>    -0.9147     0.0156     0.0021 </r>
       <r>    -0.7555     0.0721     0.0136 </r>
       <r>    -0.5964     0.1060     0.0305 </r>
       <r>    -0.4373     0.1003     0.0464 </r>
       <r>    -0.2782     0.1984     0.0780 </r>
       <r>    -0.1191     0.2170     0.1125 </r>
       <r>     0.0401     0.1119     0.1303 </r>
       <r>     0.1992     0.2257     0.1662 </r>
       <r>     0.3583     0.3204     0.2172 </r>
       <r>     0.5174     0.2484     0.2568 </r>
       <r>     0.6765     0.2689     0.2995 </r>
       <r>     0.8357     0.3615     0.3571 </r>
       <r>     0.9948     0.2208     0.3922 </r>
       <r>     1.1539     0.3772     0.4522 </r>
       <r>     1.3130     0.4555     0.5247 </r>
       <r>     1.4721     0.4809     0.6012 </r>
       <r>     1.6313     0.4794     0.6775 </r>
       <r>     1.7904     0.2457     0.7166 </r>
       <r>     1.9495     0.5344     0.8016 </r>
       <r>     2.1086     0.8147     0.9313 </r>
       <r>     2.2677     0.6640     1.0369 </r>
       <r>     2.4269     0.5418     1.1231 </r>
       <r>     2.5860     0.6864     1.2323 </r>
       <r>     2.7451     1.5377     1.4770 </r>
       <r>     2.9042     2.1301     1.8160 </r>
       <r>     3.0633     2.9507     2.2855 </r>
       <r>     3.2225     3.3862     2.8243 </r>
       <r>     3.3816     3.9847     3.4583 </r>
       <r>     3.5407     3.7458     4.0544 </r>
       <r>     3.6998     4.2021     4.7230 </r>
       <r>     3.8589     5.3221     5.5698 </r>
       <r>     4.0181     4.9851     6.3631 </r>
       <r>     4.1772     5.5578     7.2475 </r>
       <r>     4.3363     5.3823     8.1039 </r>
       <r>     4.4954     4.4593     8.8135 </r>
       <r>     4.6545     4.4879     9.5276 </r>
       <r>     4.8137     4.9133    10.3094 </r>
       <r>     4.9728     4.4098    11.0111 </r>
       <r>     5.1319     4.2931    11.6942 </r>
       <r>     5.2910     4.0620    12.3405 </r>
       <r>     5.4501     4.0439    12.9840 </r>
       <r>     5.6093     3.5136    13.5431 </r>
       <r>     5.7684     4.0464    14.1869 </r>
       <r>     5.9275     5.3522    15.0386 </r>
       <r>     6.0866     5.8634    15.9716 </r>
       <r>     6.2457     4.7838    16.7328 </r>
       <r>     6.4049     4.8676    17.5073 </r>
       <r>     6.5640     6.8188    18.5923 </r>
       <r>     6.7231     7.0725    19.7177 </r>
       <r>     6.8822     7.0927    20.8463 </r>
       <r>     7.0414     7.4382    22.0299 </r>
       <r>     7.2005     7.9141    23.2891 </r>
       <r>     7.3596     6.4514    24.3157 </r>
       <r>     7.5187     5.0554    25.1201 </r>
       <r>     7.6778     5.1369    25.9375 </r>
       <r>     7.8370     4.2042    26.6065 </r>
       <r>     7.9961     4.4505    27.3146 </r>
       <r>     8.1552     5.2650    28.1524 </r>
       <r>     8.3143     5.6127    29.0455 </r>
       <r>     8.4734     5.9343    29.9898 </r>
       <r>     8.6326     6.7215    31.0593 </r>
       <r>     8.7917     5.7650    31.9766 </r>
       <r>     8.9508     4.6322    32.7137 </r>
       <r>     9.1099     5.2034    33.5417 </r>
       <r>     9.2690     5.3652    34.3954 </r>
       <r>     9.4282     4.6905    35.1417 </r>
       <r>     9.5873     5.4297    36.0057 </r>
       <r>     9.7464     6.4876    37.0380 </r>
       <r>     9.9055     7.4403    38.2219 </r>
       <r>    10.0646    10.4663    39.8873 </r>
       <r>    10.2238     8.1480    41.1838 </r>
       <r>    10.3829     4.0677    41.8311 </r>
       <r>    10.5420     1.8000    42.1175 </r>
       <r>    10.7011     1.6190    42.3751 </r>
       <r>    10.8602     1.4720    42.6094 </r>
       <r>    11.0194     0.9095    42.7541 </r>
       <r>    11.1785     0.7678    42.8763 </r>
       <r>    11.3376     0.5597    42.9653 </r>
       <r>    11.4967     0.8911    43.1071 </r>
       <r>    11.6558     1.6207    43.3650 </r>
       <r>    11.8150     1.2054    43.5568 </r>
       <r>    11.9741     0.4227    43.6241 </r>
       <r>    12.1332     0.5434    43.7105 </r>
       <r>    12.2923     1.3291    43.9220 </r>
       <r>    12.4514     1.5486    44.1684 </r>
       <r>    12.6106     0.7500    44.2878 </r>
       <r>    12.7697     0.6479    44.3909 </r>
       <r>    12.9288     0.8960    44.5334 </r>
       <r>    13.0879     0.7529    44.6532 </r>
       <r>    13.2470     1.1323    44.8334 </r>
       <r>    13.4062     1.2089    45.0258 </r>
       <r>    13.5653     0.5582    45.1146 </r>
       <r>    13.7244     0.5954    45.2093 </r>
       <r>    13.8835     1.2011    45.4004 </r>
       <r>    14.0426     1.0295    45.5642 </r>
       <r>    14.2018     0.8515    45.6997 </r>
       <r>    14.3609     0.7033    45.8116 </r>
       <r>    14.5200     0.7778    45.9354 </r>
       <r>    14.6791     0.8544    46.0714 </r>
       <r>    14.8382     0.7880    46.1967 </r>
       <r>    14.9974     0.4024    46.2608 </r>
       <r>    15.1565     0.4669    46.3351 </r>
       <r>    15.3156     0.9689    46.4892 </r>
       <r>    15.4747     1.0501    46.6563 </r>
       <r>    15.6338     0.8594    46.7931 </r>
       <r>    15.7930     0.5854    46.8862 </r>
       <r>    15.9521     0.4125    46.9518 </r>
       <r>    16.1112     0.4291    47.0201 </r>
       <r>    16.2703     0.6915    47.1302 </r>
       <r>    16.4295     0.6295    47.2303 </r>
       <r>    16.5886     0.2705    47.2734 </r>
       <r>    16.7477     0.4357    47.3427 </r>
       <r>    16.9068     0.6044    47.4389 </r>
       <r>    17.0659     0.5197    47.5216 </r>
       <r>    17.2251     0.6509    47.6251 </r>
       <r>    17.3842     0.4382    47.6949 </r>
       <r>    17.5433     0.1964    47.7261 </r>
       <r>    17.7024     0.2062    47.7589 </r>
       <r>    17.8615     0.1278    47.7793 </r>
       <r>    18.0207     0.2944    47.8261 </r>
       <r>    18.1798     0.4462    47.8971 </r>
       <r>    18.3389     0.1634    47.9231 </r>
       <r>    18.4980     0.1644    47.9493 </r>
       <r>    18.6571     0.0946    47.9643 </r>
       <r>    18.8163     0.0590    47.9737 </r>
       <r>    18.9754     0.8002    48.1010 </r>
       <r>    19.1345     2.1310    48.4401 </r>
       <r>    19.2936     1.8250    48.7305 </r>
       <r>    19.4527     1.7441    49.0080 </r>
       <r>    19.6119     1.3344    49.2204 </r>
       <r>    19.7710     0.9789    49.3761 </r>
       <r>    19.9301     1.2107    49.5688 </r>
       <r>    20.0892     1.0386    49.7340 </r>
       <r>    20.2483     0.7939    49.8604 </r>
       <r>    20.4075     0.9723    50.0151 </r>
       <r>    20.5666     1.2016    50.2063 </r>
       <r>    20.7257     1.0026    50.3658 </r>
       <r>    20.8848     0.9008    50.5091 </r>
       <r>    21.0439     0.8002    50.6365 </r>
       <r>    21.2031     0.9160    50.7822 </r>
       <r>    21.3622     0.8781    50.9219 </r>
       <r>    21.5213     0.7829    51.0465 </r>
       <r>    21.6804     0.9694    51.2008 </r>
       <r>    21.8395     0.6154    51.2987 </r>
       <r>    21.9987     0.7158    51.4126 </r>
       <r>    22.1578     1.0660    51.5822 </r>
       <r>    22.3169     1.1272    51.7616 </r>
       <r>    22.4760     1.1399    51.9430 </r>
       <r>    22.6351     0.8203    52.0735 </r>
       <r>    22.7943     0.7354    52.1905 </r>
       <r>    22.9534     1.3292    52.4020 </r>
       <r>    23.1125     1.7042    52.6732 </r>
       <r>    23.2716     1.4030    52.8964 </r>
       <r>    23.4307     1.0228    53.0592 </r>
       <r>    23.5899     0.7483    53.1782 </r>
       <r>    23.7490     1.3511    53.3932 </r>
       <r>    23.9081     2.1040    53.7280 </r>
       <r>    24.0672     1.7917    54.0131 </r>
       <r>    24.2263     1.1410    54.1947 </r>
       <r>    24.3855     1.2799    54.3983 </r>
       <r>    24.5446     1.8554    54.6936 </r>
       <r>    24.7037     1.2219    54.8880 </r>
       <r>    24.8628     0.8676    55.0260 </r>
       <r>    25.0219     1.4879    55.2628 </r>
       <r>    25.1811     1.3073    55.4708 </r>
       <r>    25.3402     1.1282    55.6503 </r>
       <r>    25.4993     1.7538    55.9294 </r>
       <r>    25.6584     2.2107    56.2812 </r>
       <r>    25.8176     1.6710    56.5471 </r>
       <r>    25.9767     1.1542    56.7307 </r>
       <r>    26.1358     1.0519    56.8981 </r>
       <r>    26.2949     1.6106    57.1544 </r>
       <r>    26.4540     2.1802    57.5013 </r>
       <r>    26.6132     1.3551    57.7169 </r>
       <r>    26.7723     1.3027    57.9242 </r>
       <r>    26.9314     1.4453    58.1542 </r>
       <r>    27.0905     1.6679    58.4196 </r>
       <r>    27.2496     2.0025    58.7382 </r>
       <r>    27.4088     1.7697    59.0198 </r>
       <r>    27.5679     1.6952    59.2896 </r>
       <r>    27.7270     2.5143    59.6896 </r>
       <r>    27.8861     1.8531    59.9845 </r>
       <r>    28.0452     0.6192    60.0830 </r>
       <r>    28.2044     0.8799    60.2231 </r>
       <r>    28.3635     2.2986    60.5888 </r>
       <r>    28.5226     2.3048    60.9555 </r>
       <r>    28.6817     1.0485    61.1224 </r>
       <r>    28.8408     1.1635    61.3075 </r>
       <r>    29.0000     1.8947    61.6090 </r>
       <r>    29.1591     2.0520    61.9355 </r>
       <r>    29.3182     1.7494    62.2139 </r>
       <r>    29.4773     1.9771    62.5285 </r>
       <r>    29.6364     1.8934    62.8297 </r>
       <r>    29.7956     0.6687    62.9361 </r>
       <r>    29.9547     0.5615    63.0255 </r>
       <r>    30.1138     2.1562    63.3686 </r>
       <r>    30.2729     1.9622    63.6808 </r>
       <r>    30.4320     0.9503    63.8320 </r>
       <r>    30.5912     1.4811    64.0677 </r>
       <r>    30.7503     2.0414    64.3925 </r>
       <r>    30.9094     2.0544    64.7194 </r>
       <r>    31.0685     1.6189    64.9770 </r>
       <r>    31.2276     0.8481    65.1120 </r>
       <r>    31.3868     1.3285    65.3234 </r>
       <r>    31.5459     1.8583    65.6191 </r>
       <r>    31.7050     1.7113    65.8914 </r>
       <r>    31.8641     1.4170    66.1169 </r>
       <r>    32.0232     1.9657    66.4296 </r>
       <r>    32.1824     2.0162    66.7505 </r>
       <r>    32.3415     0.9557    66.9025 </r>
       <r>    32.5006     0.5071    66.9832 </r>
       <r>    32.6597     0.5004    67.0628 </r>
       <r>    32.8188     1.5195    67.3046 </r>
       <r>    32.9780     1.9954    67.6221 </r>
       <r>    33.1371     1.4087    67.8463 </r>
       <r>    33.2962     1.6379    68.1069 </r>
       <r>    33.4553     1.4767    68.3419 </r>
       <r>    33.6144     0.6855    68.4509 </r>
       <r>    33.7736     1.0820    68.6231 </r>
       <r>    33.9327     1.7716    68.9050 </r>
       <r>    34.0918     1.2988    69.1117 </r>
       <r>    34.2509     0.9972    69.2703 </r>
       <r>    34.4100     0.7342    69.3872 </r>
       <r>    34.5692     0.7475    69.5061 </r>
       <r>    34.7283     1.2558    69.7059 </r>
       <r>    34.8874     1.8065    69.9934 </r>
       <r>    35.0465     2.3828    70.3725 </r>
       <r>    35.2057     1.9701    70.6860 </r>
       <r>    35.3648     1.3797    70.9056 </r>
       <r>    35.5239     1.4589    71.1377 </r>
       <r>    35.6830     2.0255    71.4600 </r>
       <r>    35.8421     1.8148    71.7488 </r>
       <r>    36.0013     1.6175    72.0061 </r>
       <r>    36.1604     1.5627    72.2548 </r>
       <r>    36.3195     1.4772    72.4898 </r>
       <r>    36.4786     1.9610    72.8019 </r>
       <r>    36.6377     2.2171    73.1547 </r>
       <r>    36.7969     2.3142    73.5229 </r>
       <r>    36.9560     1.6793    73.7901 </r>
       <r>    37.1151     0.7461    73.9088 </r>
       <r>    37.2742     1.2407    74.1063 </r>
       <r>    37.4333     1.8262    74.3968 </r>
       <r>    37.5925     2.0852    74.7286 </r>
       <r>    37.7516     1.8201    75.0183 </r>
       <r>    37.9107     1.7809    75.3016 </r>
       <r>    38.0698     2.1232    75.6395 </r>
       <r>    38.2289     2.7148    76.0715 </r>
       <r>    38.3881     1.9328    76.3790 </r>
       <r>    38.5472     1.2526    76.5783 </r>
       <r>    38.7063     1.3486    76.7929 </r>
       <r>    38.8654     1.3993    77.0156 </r>
       <r>    39.0245     1.4714    77.2497 </r>
       <r>    39.1837     1.6789    77.5169 </r>
       <r>    39.3428     1.5705    77.7668 </r>
       <r>    39.5019     1.1997    77.9576 </r>
       <r>    39.6610     1.5017    78.1966 </r>
       <r>    39.8201     1.5692    78.4463 </r>
       <r>    39.9793     1.3668    78.6638 </r>
       <r>    40.1384     0.8838    78.8044 </r>
       <r>    40.2975     0.8564    78.9407 </r>
       <r>    40.4566     0.8705    79.0792 </r>
       <r>    40.6157     0.4188    79.1458 </r>
       <r>    40.7749     0.4635    79.2196 </r>
       <r>    40.9340     0.6447    79.3222 </r>
       <r>    41.0931     1.1486    79.5049 </r>
       <r>    41.2522     1.3173    79.7146 </r>
       <r>    41.4113     0.8103    79.8435 </r>
       <r>    41.5705     0.2173    79.8781 </r>
       <r>    41.7296     0.0050    79.8789 </r>
       <r>    41.8887     0.1156    79.8973 </r>
       <r>    42.0478     0.1262    79.9173 </r>
       <r>    42.2069     0.1874    79.9472 </r>
       <r>    42.3661     0.1736    79.9748 </r>
       <r>    42.5252     0.1344    79.9962 </r>
       <r>    42.6843     0.0322    80.0013 </r>
       <r>    42.8434    -0.0068    80.0002 </r>
       <r>    43.0025    -0.0013    80.0000 </r>
       <r>    43.1617    -0.0000    80.0000 </r>
       <r>    43.3208    -0.0000    80.0000 </r>
       <r>    43.4799    -0.0000    80.0000 </r>
       <r>    43.6390    -0.0000    80.0000 </r>
       <r>    43.7981    -0.0000    80.0000 </r>
       <r>    43.9573     0.0000    80.0000 </r>
       <r>    44.1164     0.0000    80.0000 </r>
       <r>    44.2755     0.0000    80.0000 </r>
       <r>    44.4346     0.0000    80.0000 </r>
       <r>    44.5937     0.0000    80.0000 </r>
      </set>
     </set>
    </array>
   </total>
  </dos>
 </calculation>
 <structure name="finalpos" >
  <crystal>
   <varray name="basis" >
    <v>       3.26341770       0.00000000       0.00000000 </v>
    <v>       0.00000000       3.26341770       0.00000000 </v>
    <v>       0.00000000       0.00000000       3.26341770 </v>
   </varray>
   <i name="volume">     34.75505613 </i>
   <varray name="rec_basis" >
    <v>       0.30642722       0.00000000       0.00000000 </v>
    <v>       0.00000000       0.30642722       0.00000000 </v>
    <v>       0.00000000       0.00000000       0.30642722 </v>
   </varray>
  </crystal>
  <varray name="positions" >
   <v>       0.00000000       0.00000000       0.00000000 </v>
   <v>       0.50000000       0.50000000       0.00000000 </v>
   <v>       0.50000000       0.00000000       0.50000000 </v>
   <v>       0.00000000       0.50000000       0.50000000 </v>
  </varray>
 </structure>
</modeling>
