unknown system                          
   1.00000000000000     
     3.866000    0.000000    0.000000
     0.000000    3.866000    0.000000
     0.000000    0.000000    3.866000
   Pd   Ir   Pt   Cu
     1     1     1     1
Direct
  0.000000  0.000000  0.000000
  0.500000  0.500000  0.000000
  0.500000  0.000000  0.500000
  0.000000  0.500000  0.500000
 
   28   28   28
  357.49      336.83      285.24      223.48      165.01      112.61      68.284      37.700      22.547      15.984    
  12.882      10.602      9.3553      9.6367      10.098      9.6367      9.3553      10.602      12.882      15.984    
  22.547      37.700      68.284      112.61      165.01      223.48      285.24      336.83      336.95      317.57    
  269.08      210.75      155.35      105.87      64.441      36.163      22.122      15.852      12.862      10.674    
  9.4617      9.6739      10.080      9.6739      9.4617      10.674      12.862      15.852      22.122      36.163    
  64.441      105.87      155.35      210.75      269.08      317.57      284.76      268.55      227.70      178.01    
  130.51      88.673      54.768      32.366      21.043      15.600      12.977      11.113      10.073      10.171    
  10.459      10.171      10.073      11.113      12.977      15.600      21.043      32.366      54.768      88.673    
  130.51      178.01      227.70      268.55      220.66      208.13      176.29      137.08      99.648      67.747    
  43.368      28.019      19.754      15.540      13.556      12.277      11.625      11.717      11.913      11.717    
  11.625      12.277      13.556      15.540      19.754      28.019      43.368      67.747      99.648      137.08    
  176.29      208.13      159.58      150.41      127.00      98.091      70.978      49.129      33.732      24.367    
  18.747      15.980      14.859      14.363      14.287      14.553      14.737      14.553      14.287      14.363    
  14.859      15.980      18.747      24.367      33.732      49.129      70.978      98.091      127.00      150.41    
  106.82      100.68      85.019      65.905      48.601      35.603      27.100      21.648      18.460      17.263    
  17.240      17.739      18.458      19.144      19.438      19.144      18.458      17.739      17.240      17.263    
  18.460      21.648      27.100      35.603      48.601      65.905      85.019      100.68      64.567      61.156    
  52.538      42.263      33.358      27.014      22.742      20.135      19.271      19.811      21.252      23.284    
  25.561      27.431      28.164      27.431      25.561      23.284      21.252      19.811      19.271      20.135    
  22.742      27.014      33.358      42.263      52.538      61.156      36.158      34.805      31.436      27.509    
  24.117      21.530      20.080      20.041      21.385      23.957      27.828      32.784      38.008      42.106    
  43.672      42.106      38.008      32.784      27.828      23.957      21.385      20.041      20.080      21.530    
  24.117      27.509      31.436      34.805      21.741      21.374      20.440      19.318      18.448      18.252    
  19.116      21.280      24.867      30.274      37.579      46.262      54.971      61.600      64.098      61.600    
  54.971      46.262      37.579      30.274      24.867      21.280      19.116      18.252      18.448      19.318    
  20.440      21.374      15.182      15.083      14.916      14.964      15.509      16.878      19.474      23.634    
  29.983      38.727      49.450      61.269      72.588      81.017      84.168      81.017      72.588      61.269    
  49.450      38.727      29.983      23.634      19.474      16.878      15.509      14.964      14.916      15.083    
  11.984      11.983      12.149      12.795      14.175      16.622      20.640      27.081      36.643      48.687    
  62.028      75.649      88.263      97.623      101.14      97.623      88.263      75.649      62.028      48.687    
  36.643      27.081      20.640      16.622      14.175      12.795      12.149      11.983      9.7172      9.7909    
  10.229      11.392      13.488      16.864      22.298      31.371      44.339      59.398      74.622      89.315    
  102.95      113.40      117.42      113.40      102.95      89.315      74.622      59.398      44.339      31.371    
  22.298      16.864      13.488      11.392      10.229      9.7909      8.5354      8.6244      9.1806      10.654    
  13.245      17.328      24.140      35.813      51.969      69.658      86.500      102.52      118.06      130.62    
  135.60      130.62      118.06      102.52      86.500      69.658      51.969      35.813      24.140      17.328    
  13.245      10.654      9.1806      8.6244      8.8284      8.8367      9.2461      10.667      13.377      17.812    
  25.644      39.272      57.779      77.400      95.607      113.18      131.07      146.14      152.23      146.14    
  131.07      113.18      95.607      77.400      57.779      39.272      25.644      17.812      13.377      10.667    
  9.2461      8.8367      9.2765      9.2265      9.5093      10.824      13.506      18.027      26.232      40.592    
  59.974      80.326      99.103      117.41      136.41      152.62      159.21      152.62      136.41      117.41    
  99.103      80.326      59.974      40.592      26.232      18.027      13.506      10.824      9.5093      9.2265    
  8.8284      8.8367      9.2461      10.667      13.377      17.812      25.644      39.272      57.779      77.400    
  95.607      113.18      131.07      146.14      152.23      146.14      131.07      113.18      95.607      77.400    
  57.779      39.272      25.644      17.812      13.377      10.667      9.2461      8.8367      8.5354      8.6244    
  9.1806      10.654      13.245      17.328      24.140      35.813      51.969      69.658      86.500      102.52    
  118.06      130.62      135.60      130.62      118.06      102.52      86.500      69.658      51.969      35.813    
  24.140      17.328      13.245      10.654      9.1806      8.6244      9.7172      9.7909      10.229      11.392    
  13.488      16.864      22.298      31.371      44.339      59.398      74.622      89.315      102.95      113.40    
  117.42      113.40      102.95      89.315      74.622      59.398      44.339      31.371      22.298      16.864    
  13.488      11.392      10.229      9.7909      11.984      11.983      12.149      12.795      14.175      16.622    
  20.640      27.081      36.643      48.687      62.028      75.649      88.263      97.623      101.14      97.623    
  88.263      75.649      62.028      48.687      36.643      27.081      20.640      16.622      14.175      12.795    
  12.149      11.983      15.182      15.083      14.916      14.964      15.509      16.878      19.474      23.634    
  29.983      38.727      49.450      61.269      72.588      81.017      84.168      81.017      72.588      61.269    
  49.450      38.727      29.983      23.634      19.474      16.878      15.509      14.964      14.916      15.083    
  21.741      21.374      20.440      19.318      18.448      18.252      19.116      21.280      24.867      30.274    
  37.579      46.262      54.971      61.600      64.098      61.600      54.971      46.262      37.579      30.274    
  24.867      21.280      19.116      18.252      18.448      19.318      20.440      21.374      36.158      34.805    
  31.436      27.509      24.117      21.530      20.080      20.041      21.385      23.957      27.828      32.784    
  38.008      42.106      43.672      42.106      38.008      32.784      27.828      23.957      21.385      20.041    
  20.080      21.530      24.117      27.509      31.436      34.805      64.567      61.156      52.538      42.263    
  33.358      27.014      22.742      20.135      19.271      19.811      21.252      23.284      25.561      27.431    
  28.164      27.431      25.561      23.284      21.252      19.811      19.271      20.135      22.742      27.014    
  33.358      42.263      52.538      61.156      106.82      100.68      85.019      65.905      48.601      35.603    
  27.100      21.648      18.460      17.263      17.240      17.739      18.458      19.144      19.438      19.144    
  18.458      17.739      17.240      17.263      18.460      21.648      27.100      35.603      48.601      65.905    
  85.019      100.68      159.58      150.41      127.00      98.091      70.978      49.129      33.732      24.367    
  18.747      15.980      14.859      14.363      14.287      14.553      14.737      14.553      14.287      14.363    
  14.859      15.980      18.747      24.367      33.732      49.129      70.978      98.091      127.00      150.41    
  220.66      208.13      176.29      137.08      99.648      67.747      43.368      28.019      19.754      15.540    
  13.556      12.277      11.625      11.717      11.913      11.717      11.625      12.277      13.556      15.540    
  19.754      28.019      43.368      67.747      99.648      137.08      176.29      208.13      284.76      268.55    
  227.70      178.01      130.51      88.673      54.768      32.366      21.043      15.600      12.977      11.113    
  10.073      10.171      10.459      10.171      10.073      11.113      12.977      15.600      21.043      32.366    
  54.768      88.673      130.51      178.01      227.70      268.55      336.95      317.57      269.08      210.75    
  155.35      105.87      64.441      36.163      22.122      15.852      12.862      10.674      9.4617      9.6739    
  10.080      9.6739      9.4617      10.674      12.862      15.852      22.122      36.163      64.441      105.87    
  155.35      210.75      269.08      317.57      337.29      318.01      269.70      211.45      155.92      106.20    
  64.556      36.178      22.115      15.834      12.820      10.591      9.3264      9.4928      9.8802      9.4928    
  9.3264      10.591      12.820      15.834      22.115      36.178      64.556      106.20      155.92      211.45    
  269.70      318.01      318.75      300.60      254.99      199.77      147.00      99.971      61.016      34.768    
  21.711      15.713      12.813      10.679      9.4539      9.5620      9.9004      9.5620      9.4539      10.679    
  12.813      15.713      21.711      34.768      61.016      99.971      147.00      199.77      254.99      300.60    
  271.21      255.84      217.00      169.49      123.93      84.020      52.092      31.275      20.679      15.484    
  12.952      11.142      10.100      10.119      10.355      10.119      10.100      11.142      12.952      15.484    
  20.679      31.275      52.092      84.020      123.93      169.49      217.00      255.84      211.70      199.67    
  169.02      131.17      95.051      64.528      41.548      27.250      19.443      15.438      13.537      12.304    
  11.652      11.692      11.854      11.692      11.652      12.304      13.537      15.438      19.443      27.250    
  41.548      64.528      95.051      131.17      169.02      199.67      153.62      144.76      122.09      94.115    
  67.964      47.097      32.596      23.802      18.474      15.865      14.807      14.337      14.257      14.489    
  14.653      14.489      14.257      14.337      14.807      15.865      18.474      23.802      32.596      47.097    
  67.964      94.115      122.09      144.76      102.64      96.719      81.639      63.266      46.712      34.384    
  26.372      21.189      18.194      17.092      17.097      17.594      18.291      18.944      19.221      18.944    
  18.291      17.594      17.097      17.092      18.194      21.189      26.372      34.384      46.712      63.266    
  81.639      96.719      61.901      58.652      50.453      40.698      32.274      26.277      22.196      19.739    
  18.963      19.525      20.936      22.882      25.038      26.801      27.490      26.801      25.038      22.882    
  20.936      19.525      18.963      19.739      22.196      26.277      32.274      40.698      50.453      58.652    
  34.914      33.640      30.465      26.754      23.515      21.026      19.657      19.657      20.990      23.479    
  27.173      31.871      36.801      40.658      42.130      40.658      36.801      31.871      27.173      23.479    
  20.990      19.657      19.657      21.026      23.515      26.754      30.465      33.640      21.309      20.953    
  20.040      18.944      18.097      17.911      18.757      20.864      24.325      29.505      36.480      44.734    
  52.968      59.209      61.556      59.209      52.968      44.734      36.480      29.505      24.325      20.864    
  18.757      17.911      18.097      18.944      20.040      20.953      14.977      14.887      14.736      14.785    
  15.308      16.625      19.133      23.145      29.247      37.673      47.997      59.299      70.019      77.933    
  80.877      77.933      70.019      59.299      47.997      37.673      29.247      23.145      19.133      16.625    
  15.308      14.785      14.736      14.887      11.832      11.850      12.050      12.706      14.051      16.414    
  20.295      26.485      35.728      47.455      60.443      73.550      85.463      94.159      97.396      94.159    
  85.463      73.550      60.443      47.455      35.728      26.485      20.295      16.414      14.051      12.706    
  12.050      11.850      9.5395      9.6462      10.149      11.344      13.408      16.684      21.925      30.664    
  43.291      58.112      73.095      87.271      100.01      109.52      113.13      109.52      100.01      87.271    
  73.095      58.112      43.291      30.664      21.925      16.684      13.408      11.344      10.149      9.6462    
  8.2180      8.3605      9.0282      10.580      13.168      17.160      23.728      35.011      50.836      68.389    
  85.081      100.49      114.79      125.99      130.38      125.99      114.79      100.49      85.081      68.389    
  50.836      35.011      23.728      17.160      13.168      10.580      9.0282      8.3605      8.2777      8.3638    
  8.9432      10.507      13.264      17.634      25.197      38.404      56.597      76.156      94.248      111.06    
  127.34      140.63      145.94      140.63      127.34      111.06      94.248      76.156      56.597      38.404    
  25.197      17.634      13.264      10.507      8.9432      8.3638      8.6027      8.6421      9.1237      10.615    
  13.370      17.840      25.770      39.700      58.777      79.091      97.757      115.23      132.45      146.71    
  152.45      146.71      132.45      115.23      97.757      79.091      58.777      39.700      25.770      17.840    
  13.370      10.615      9.1237      8.6421      8.2777      8.3638      8.9432      10.507      13.264      17.634    
  25.197      38.404      56.597      76.156      94.248      111.06      127.34      140.63      145.94      140.63    
  127.34      111.06      94.248      76.156      56.597      38.404      25.197      17.634      13.264      10.507    
  8.9432      8.3638      8.2180      8.3605      9.0282      10.580      13.168      17.160      23.728      35.011    
  50.836      68.389      85.081      100.49      114.79      125.99      130.38      125.99      114.79      100.49    
  85.081      68.389      50.836      35.011      23.728      17.160      13.168      10.580      9.0282      8.3605    
  9.5395      9.6462      10.149      11.344      13.408      16.684      21.925      30.664      43.291      58.112    
  73.095      87.271      100.01      109.52      113.13      109.52      100.01      87.271      73.095      58.112    
  43.291      30.664      21.925      16.684      13.408      11.344      10.149      9.6462      11.832      11.850    
  12.050      12.706      14.051      16.414      20.295      26.485      35.728      47.455      60.443      73.550    
  85.463      94.159      97.396      94.159      85.463      73.550      60.443      47.455      35.728      26.485    
  20.295      16.414      14.051      12.706      12.050      11.850      14.977      14.887      14.736      14.785    
  15.308      16.625      19.133      23.145      29.247      37.673      47.997      59.299      70.019      77.933    
  80.877      77.933      70.019      59.299      47.997      37.673      29.247      23.145      19.133      16.625    
  15.308      14.785      14.736      14.887      21.309      20.953      20.040      18.944      18.097      17.911    
  18.757      20.864      24.325      29.505      36.480      44.734      52.968      59.209      61.556      59.209    
  52.968      44.734      36.480      29.505      24.325      20.864      18.757      17.911      18.097      18.944    
  20.040      20.953      34.914      33.640      30.465      26.754      23.515      21.026      19.657      19.657    
  20.990      23.479      27.173      31.871      36.801      40.658      42.130      40.658      36.801      31.871    
  27.173      23.479      20.990      19.657      19.657      21.026      23.515      26.754      30.465      33.640    
  61.901      58.652      50.453      40.698      32.274      26.277      22.196      19.739      18.963      19.525    
  20.936      22.882      25.038      26.801      27.490      26.801      25.038      22.882      20.936      19.525    
  18.963      19.739      22.196      26.277      32.274      40.698      50.453      58.652      102.64      96.719    
  81.639      63.266      46.712      34.384      26.372      21.189      18.194      17.092      17.097      17.594    
  18.291      18.944      19.221      18.944      18.291      17.594      17.097      17.092      18.194      21.189    
  26.372      34.384      46.712      63.266      81.639      96.719      153.62      144.76      122.09      94.115    
  67.964      47.097      32.596      23.802      18.474      15.865      14.807      14.337      14.257      14.489    
  14.653      14.489      14.257      14.337      14.807      15.865      18.474      23.802      32.596      47.097    
  67.964      94.115      122.09      144.76      211.70      199.67      169.02      131.17      95.051      64.528    
  41.548      27.250      19.443      15.438      13.537      12.304      11.652      11.692      11.854      11.692    
  11.652      12.304      13.537      15.438      19.443      27.250      41.548      64.528      95.051      131.17    
  169.02      199.67      271.21      255.84      217.00      169.49      123.93      84.020      52.092      31.275    
  20.679      15.484      12.952      11.142      10.100      10.119      10.355      10.119      10.100      11.142    
  12.952      15.484      20.679      31.275      52.092      84.020      123.93      169.49      217.00      255.84    
  318.75      300.60      254.99      199.77      147.00      99.971      61.016      34.768      21.711      15.713    
  12.813      10.679      9.4539      9.5620      9.9004      9.5620      9.4539      10.679      12.813      15.713    
  21.711      34.768      61.016      99.971      147.00      199.77      254.99      300.60      285.72      269.81    
  229.53      180.07      132.17      89.587      55.060      32.385      21.011      15.549      12.883      10.940    
  9.7972      9.8027      10.053      9.8027      9.7972      10.940      12.883      15.549      21.011      32.385    
  55.060      89.587      132.17      180.07      229.53      269.81      271.84      256.68      218.23      170.88    
  125.05      84.626      52.279      31.282      20.654      15.449      12.894      11.041      9.9408      9.9077    
  10.122      9.9077      9.9408      11.041      12.894      15.449      20.654      31.282      52.279      84.626    
  125.05      170.88      218.23      256.68      235.19      221.98      188.32      146.62      106.43      71.840    
  45.243      28.527      19.739      15.262      13.056      11.501      10.576      10.497      10.640      10.497    
  10.576      11.501      13.056      15.262      19.739      28.527      45.243      71.840      106.43      146.62    
  188.32      221.98      186.72      176.05      148.73      114.82      82.585      56.027      36.860      25.264    
  18.638      15.229      13.605      12.567      12.003      11.982      12.084      11.982      12.003      12.567    
  13.605      15.229      18.638      25.264      36.860      56.027      82.585      114.82      148.73      176.05    
  136.34      128.39      108.02      82.917      59.708      41.698      29.634      22.286      17.765      15.598    
  14.739      14.385      14.342      14.531      14.658      14.531      14.342      14.385      14.739      15.598    
  17.765      22.286      29.634      41.698      59.708      82.917      108.02      128.39      90.571      85.342    
  72.035      55.913      41.583      31.148      24.420      19.961      17.493      16.655      16.752      17.264    
  17.929      18.523      18.767      18.523      17.929      17.264      16.752      16.655      17.493      19.961    
  24.420      31.148      41.583      55.913      72.035      85.342      54.503      51.727      44.737      36.468    
  29.377      24.285      20.721      18.682      18.143      18.765      20.112      21.856      23.724      25.225    
  25.809      25.225      23.724      21.856      20.112      18.765      18.143      18.682      20.721      24.285    
  29.377      36.468      44.737      51.727      31.589      30.528      27.874      24.728      21.865      19.664    
  18.523      18.625      19.920      22.202      25.443      29.478      33.659      36.904      38.137      36.904    
  33.659      29.478      25.443      22.202      19.920      18.625      18.523      19.664      21.865      24.728    
  27.874      30.528      20.091      19.764      18.924      17.919      17.152      17.002      17.795      19.737    
  22.859      27.426      33.520      40.648      47.659      52.910      54.871      52.910      47.659      40.648    
  33.520      27.426      22.859      19.737      17.795      17.002      17.152      17.919      18.924      19.764    
  14.420      14.351      14.239      14.296      14.768      15.950      18.211      21.818      27.228      34.750    
  43.968      53.909      63.105      69.737      72.172      69.737      63.105      53.909      43.968      34.750    
  27.228      21.818      18.211      15.950      14.768      14.296      14.239      14.351      11.534      11.583    
  11.832      12.478      13.712      15.845      19.351      24.846      33.145      43.904      55.873      67.649    
  77.857      84.973      87.552      84.973      77.857      67.649      55.873      43.904      33.145      24.846    
  19.351      15.845      13.712      12.478      11.832      11.583      9.4005      9.5488      10.113      11.285    
  13.196      16.177      20.895      28.677      40.231      54.221      68.461      81.373      92.053      99.419    
  102.10      99.419      92.053      81.373      68.461      54.221      40.231      28.677      20.895      16.177    
  13.196      11.285      10.113      9.5488      8.0267      8.2321      9.0037      10.560      12.997      16.675    
  22.575      32.705      47.415      64.345      80.543      94.553      106.08      114.23      117.26      114.23    
  106.08      94.553      80.543      64.345      47.415      32.705      22.575      16.675      12.997      10.560    
  9.0037      8.2321      7.7666      7.9513      8.7179      10.373      13.043      17.132      23.932      35.869    
  52.944      72.039      89.750      104.88      117.57      126.88      130.42      126.88      117.57      104.88    
  89.750      72.039      52.944      35.869      23.932      17.132      13.043      10.373      8.7179      7.9513    
  7.8897      8.0471      8.7629      10.397      13.108      17.321      24.460      37.080      55.041      74.947    
  93.254      108.88      122.17      132.04      135.83      132.04      122.17      108.88      93.254      74.947    
  55.041      37.080      24.460      17.321      13.108      10.397      8.7629      8.0471      7.7666      7.9513    
  8.7179      10.373      13.043      17.132      23.932      35.869      52.944      72.039      89.750      104.88    
  117.57      126.88      130.42      126.88      117.57      104.88      89.750      72.039      52.944      35.869    
  23.932      17.132      13.043      10.373      8.7179      7.9513      8.0267      8.2321      9.0037      10.560    
  12.997      16.675      22.575      32.705      47.415      64.345      80.543      94.553      106.08      114.23    
  117.26      114.23      106.08      94.553      80.543      64.345      47.415      32.705      22.575      16.675    
  12.997      10.560      9.0037      8.2321      9.4005      9.5488      10.113      11.285      13.196      16.177    
  20.895      28.677      40.231      54.221      68.461      81.373      92.053      99.419      102.10      99.419    
  92.053      81.373      68.461      54.221      40.231      28.677      20.895      16.177      13.196      11.285    
  10.113      9.5488      11.534      11.583      11.832      12.478      13.712      15.845      19.351      24.846    
  33.145      43.904      55.873      67.649      77.857      84.973      87.552      84.973      77.857      67.649    
  55.873      43.904      33.145      24.846      19.351      15.845      13.712      12.478      11.832      11.583    
  14.420      14.351      14.239      14.296      14.768      15.950      18.211      21.818      27.228      34.750    
  43.968      53.909      63.105      69.737      72.172      69.737      63.105      53.909      43.968      34.750    
  27.228      21.818      18.211      15.950      14.768      14.296      14.239      14.351      20.091      19.764    
  18.924      17.919      17.152      17.002      17.795      19.737      22.859      27.426      33.520      40.648    
  47.659      52.910      54.871      52.910      47.659      40.648      33.520      27.426      22.859      19.737    
  17.795      17.002      17.152      17.919      18.924      19.764      31.589      30.528      27.874      24.728    
  21.865      19.664      18.523      18.625      19.920      22.202      25.443      29.478      33.659      36.904    
  38.137      36.904      33.659      29.478      25.443      22.202      19.920      18.625      18.523      19.664    
  21.865      24.728      27.874      30.528      54.503      51.727      44.737      36.468      29.377      24.285    
  20.721      18.682      18.143      18.765      20.112      21.856      23.724      25.225      25.809      25.225    
  23.724      21.856      20.112      18.765      18.143      18.682      20.721      24.285      29.377      36.468    
  44.737      51.727      90.571      85.342      72.035      55.913      41.583      31.148      24.420      19.961    
  17.493      16.655      16.752      17.264      17.929      18.523      18.767      18.523      17.929      17.264    
  16.752      16.655      17.493      19.961      24.420      31.148      41.583      55.913      72.035      85.342    
  136.34      128.39      108.02      82.917      59.708      41.698      29.634      22.286      17.765      15.598    
  14.739      14.385      14.342      14.531      14.658      14.531      14.342      14.385      14.739      15.598    
  17.765      22.286      29.634      41.698      59.708      82.917      108.02      128.39      186.72      176.05    
  148.73      114.82      82.585      56.027      36.860      25.264      18.638      15.229      13.605      12.567    
  12.003      11.982      12.084      11.982      12.003      12.567      13.605      15.229      18.638      25.264    
  36.860      56.027      82.585      114.82      148.73      176.05      235.19      221.98      188.32      146.62    
  106.43      71.840      45.243      28.527      19.739      15.262      13.056      11.501      10.576      10.497    
  10.640      10.497      10.576      11.501      13.056      15.262      19.739      28.527      45.243      71.840    
  106.43      146.62      188.32      221.98      271.84      256.68      218.23      170.88      125.05      84.626    
  52.279      31.282      20.654      15.449      12.894      11.041      9.9408      9.9077      10.122      9.9077    
  9.9408      11.041      12.894      15.449      20.654      31.282      52.279      84.626      125.05      170.88    
  218.23      256.68      221.76      209.68      178.68      139.80      101.77      68.817      43.628      27.973    
  19.669      15.458      13.471      12.171      11.481      11.530      11.706      11.530      11.481      12.171    
  13.471      15.458      19.669      27.973      43.628      68.817      101.77      139.80      178.68      209.68    
  212.55      200.88      170.91      133.33      96.725      65.355      41.734      27.202      19.368      15.370    
  13.475      12.240      11.576      11.597      11.748      11.597      11.576      12.240      13.475      15.370    
  19.368      27.202      41.734      65.355      96.725      133.33      170.91      200.88      187.05      176.56    
  149.57      115.77      83.304      56.356      36.911      25.225      18.593      15.193      13.583      12.563    
  12.016      12.006      12.111      12.006      12.016      12.563      13.583      15.193      18.593      25.225    
  36.911      56.356      83.304      115.77      149.57      176.56      150.66      141.96      119.59      91.764    