unknown system                          
   1.00000000000000     
     3.866000    0.000000    0.000000
     0.000000    3.866000    0.000000
     0.000000    0.000000    3.866000
   Pd   Ir   Pt   Cu
     1     1     1     1
Direct
  0.000000  0.000000  0.000000
  0.500000  0.500000  0.000000
  0.500000  0.000000  0.500000
  0.000000  0.500000  0.500000
 
   28   28   28
 0.35748905450E+03 0.33682676632E+03 0.28524283054E+03 0.22347930320E+03 0.16500539926E+03
 0.11260986557E+03 0.68284046053E+02 0.37699745607E+02 0.22547045807E+02 0.15984290082E+02
 0.12882027659E+02 0.10602330764E+02 0.93552564840E+01 0.96367038370E+01 0.10097847974E+02
 0.96367038370E+01 0.93552564840E+01 0.10602330764E+02 0.12882027659E+02 0.15984290082E+02
 0.22547045807E+02 0.37699745607E+02 0.68284046053E+02 0.11260986557E+03 0.16500539926E+03
 0.22347930320E+03 0.28524283054E+03 0.33682676632E+03 0.33695059831E+03 0.31757439899E+03
 0.26907959103E+03 0.21075418437E+03 0.15535138649E+03 0.10587445360E+03 0.64440879571E+02
 0.36163025821E+02 0.22122326074E+02 0.15851748467E+02 0.12861506714E+02 0.10674189658E+02
 0.94617492281E+01 0.96739102773E+01 0.10079726605E+02 0.96739102773E+01 0.94617492281E+01
 0.10674189658E+02 0.12861506714E+02 0.15851748467E+02 0.22122326074E+02 0.36163025821E+02
 0.64440879571E+02 0.10587445360E+03 0.15535138649E+03 0.21075418437E+03 0.26907959103E+03
 0.31757439899E+03 0.28476142607E+03 0.26855264475E+03 0.22770359110E+03 0.17800644699E+03
 0.13050542084E+03 0.88672973788E+02 0.54767577231E+02 0.32365500100E+02 0.21043399851E+02
 0.15600059274E+02 0.12976773214E+02 0.11112688756E+02 0.10072913797E+02 0.10170954741E+02
 0.10459015440E+02 0.10170954741E+02 0.10072913797E+02 0.11112688756E+02 0.12976773214E+02
 0.15600059274E+02 0.21043399851E+02 0.32365500100E+02 0.54767577231E+02 0.88672973788E+02
 0.13050542084E+03 0.17800644699E+03 0.22770359110E+03 0.26855264475E+03 0.22066181216E+03
 0.20813400111E+03 0.17628877920E+03 0.13708427268E+03 0.99647660307E+02 0.67746563121E+02
 0.43367613342E+02 0.28019286996E+02 0.19754171430E+02 0.15540318400E+02 0.13556366198E+02
 0.12276802840E+02 0.11624639463E+02 0.11717442702E+02 0.11913246238E+02 0.11717442702E+02
 0.11624639463E+02 0.12276802840E+02 0.13556366198E+02 0.15540318400E+02 0.19754171430E+02
 0.28019286996E+02 0.43367613342E+02 0.67746563121E+02 0.99647660307E+02 0.13708427268E+03
 0.17628877920E+03 0.20813400111E+03 0.15957767058E+03 0.15041348514E+03 0.12699708106E+03
 0.98091494303E+02 0.70978364728E+02 0.49129449817E+02 0.33732208765E+02 0.24366645169E+02
 0.18746582928E+02 0.15980349872E+02 0.14859264492E+02 0.14362728943E+02 0.14287208912E+02
 0.14553414957E+02 0.14737283831E+02 0.14553414957E+02 0.14287208912E+02 0.14362728943E+02
 0.14859264492E+02 0.15980349872E+02 0.18746582928E+02 0.24366645169E+02 0.33732208765E+02
 0.49129449817E+02 0.70978364728E+02 0.98091494303E+02 0.12699708106E+03 0.15041348514E+03
 0.10682219848E+03 0.10068024544E+03 0.85018504056E+02 0.65904558030E+02 0.48600817793E+02
 0.35602677160E+02 0.27100343368E+02 0.21647531227E+02 0.18460409491E+02 0.17263451322E+02
 0.17240306176E+02 0.17739232849E+02 0.18458155907E+02 0.19143741498E+02 0.19437976039E+02
 0.19143741498E+02 0.18458155907E+02 0.17739232849E+02 0.17240306176E+02 0.17263451322E+02
 0.18460409491E+02 0.21647531227E+02 0.27100343368E+02 0.35602677160E+02 0.48600817793E+02
 0.65904558030E+02 0.85018504056E+02 0.10068024544E+03 0.64567222064E+02 0.61155655583E+02
 0.52537784000E+02 0.42262679244E+02 0.33358093689E+02 0.27013963313E+02 0.22742189981E+02
 0.20134650258E+02 0.19270817866E+02 0.19811310415E+02 0.21251604296E+02 0.23284013650E+02
 0.25560574720E+02 0.27430776568E+02 0.28163786796E+02 0.27430776568E+02 0.25560574720E+02
 0.23284013650E+02 0.21251604296E+02 0.19811310415E+02 0.19270817866E+02 0.20134650258E+02
 0.22742189981E+02 0.27013963313E+02 0.33358093689E+02 0.42262679244E+02 0.52537784000E+02
 0.61155655583E+02 0.36157895908E+02 0.34805354632E+02 0.31436200673E+02 0.27509227803E+02
 0.24117242116E+02 0.21530475307E+02 0.20080149522E+02 0.20041457363E+02 0.21385259984E+02
 0.23957215811E+02 0.27827974557E+02 0.32783936851E+02 0.38007836559E+02 0.42106217997E+02
 0.43672466520E+02 0.42106217997E+02 0.38007836559E+02 0.32783936851E+02 0.27827974557E+02
 0.23957215811E+02 0.21385259984E+02 0.20041457363E+02 0.20080149522E+02 0.21530475307E+02
 0.24117242116E+02 0.27509227803E+02 0.31436200673E+02 0.34805354632E+02 0.21740793749E+02
 0.21374182934E+02 0.20439572857E+02 0.19317680505E+02 0.18447850339E+02 0.18251772728E+02
 0.19115614267E+02 0.21279739347E+02 0.24867141220E+02 0.30274490364E+02 0.37578690139E+02
 0.46262396739E+02 0.54970702334E+02 0.61599963191E+02 0.64098150693E+02 0.61599963191E+02
 0.54970702334E+02 0.46262396739E+02 0.37578690139E+02 0.30274490364E+02 0.24867141220E+02
 0.21279739347E+02 0.19115614267E+02 0.18251772728E+02 0.18447850339E+02 0.19317680505E+02
 0.20439572857E+02 0.21374182934E+02 0.15182485801E+02 0.15083148506E+02 0.14916335422E+02
 0.14963541479E+02 0.15508993178E+02 0.16877575675E+02 0.19474041244E+02 0.23633698375E+02
 0.29982692871E+02 0.38726635355E+02 0.49449762784E+02 0.61268876569E+02 0.72588056357E+02
 0.81016556253E+02 0.84167544695E+02 0.81016556253E+02 0.72588056357E+02 0.61268876569E+02
 0.49449762784E+02 0.38726635355E+02 0.29982692871E+02 0.23633698375E+02 0.19474041244E+02
 0.16877575675E+02 0.15508993178E+02 0.14963541479E+02 0.14916335422E+02 0.15083148506E+02
 0.11984005987E+02 0.11983330580E+02 0.12148692624E+02 0.12795078613E+02 0.14175124591E+02
 0.16621851123E+02 0.20640453943E+02 0.27081145076E+02 0.36643011849E+02 0.48686723632E+02
 0.62027794508E+02 0.75649031842E+02 0.88262500168E+02 0.97622623080E+02 0.10113844276E+03
 0.97622623080E+02 0.88262500168E+02 0.75649031842E+02 0.62027794508E+02 0.48686723632E+02
 0.36643011849E+02 0.27081145076E+02 0.20640453943E+02 0.16621851123E+02 0.14175124591E+02
 0.12795078613E+02 0.12148692624E+02 0.11983330580E+02 0.97172450271E+01 0.97908848429E+01
 0.10229014025E+02 0.11391575944E+02 0.13487729620E+02 0.16863981663E+02 0.22298055816E+02
 0.31371309266E+02 0.44338922637E+02 0.59398150117E+02 0.74621564732E+02 0.89314955816E+02
 0.10295216614E+03 0.11339702444E+03 0.11741541097E+03 0.11339702444E+03 0.10295216614E+03
 0.89314955816E+02 0.74621564732E+02 0.59398150117E+02 0.44338922637E+02 0.31371309266E+02
 0.22298055816E+02 0.16863981663E+02 0.13487729620E+02 0.11391575944E+02 0.10229014025E+02
 0.97908848429E+01 0.85354138585E+01 0.86243754062E+01 0.91805617619E+01 0.10654047898E+02
 0.13245406646E+02 0.17328447570E+02 0.24139553861E+02 0.35813139191E+02 0.51968940670E+02
 0.69658439511E+02 0.86499658554E+02 0.10252341471E+03 0.11806003932E+03 0.13061991994E+03
 0.13560140610E+03 0.13061991994E+03 0.11806003932E+03 0.10252341471E+03 0.86499658554E+02
 0.69658439511E+02 0.51968940670E+02 0.35813139191E+02 0.24139553861E+02 0.17328447570E+02
 0.13245406646E+02 0.10654047898E+02 0.91805617619E+01 0.86243754062E+01 0.88283637461E+01
 0.88366975348E+01 0.92460522427E+01 0.10666649103E+02 0.13376897505E+02 0.17812156510E+02
 0.25643735417E+02 0.39272320000E+02 0.57778786318E+02 0.77400188338E+02 0.95607084829E+02
 0.11318405731E+03 0.13107425257E+03 0.14613765076E+03 0.15222790440E+03 0.14613765076E+03
 0.13107425257E+03 0.11318405731E+03 0.95607084829E+02 0.77400188338E+02 0.57778786318E+02
 0.39272320000E+02 0.25643735417E+02 0.17812156510E+02 0.13376897505E+02 0.10666649103E+02
 0.92460522427E+01 0.88366975348E+01 0.92765003886E+01 0.92265473662E+01 0.95093173604E+01
 0.10824127113E+02 0.13505608127E+02 0.18027097925E+02 0.26232116523E+02 0.40591810828E+02
 0.59974426799E+02 0.80325671814E+02 0.99102608373E+02 0.11741048587E+03 0.13640632260E+03
 0.15261867356E+03 0.15921157123E+03 0.15261867356E+03 0.13640632260E+03 0.11741048587E+03
 0.99102608373E+02 0.80325671814E+02 0.59974426799E+02 0.40591810828E+02 0.26232116523E+02
 0.18027097925E+02 0.13505608127E+02 0.10824127113E+02 0.95093173604E+01 0.92265473662E+01
 0.88283637461E+01 0.88366975348E+01 0.92460522427E+01 0.10666649103E+02 0.13376897505E+02
 0.17812156510E+02 0.25643735417E+02 0.39272320000E+02 0.57778786318E+02 0.77400188338E+02
 0.95607084829E+02 0.11318405731E+03 0.13107425257E+03 0.14613765076E+03 0.15222790440E+03
 0.14613765076E+03 0.13107425257E+03 0.11318405731E+03 0.95607084829E+02 0.77400188338E+02
 0.57778786318E+02 0.39272320000E+02 0.25643735417E+02 0.17812156510E+02 0.13376897505E+02
 0.10666649103E+02 0.92460522427E+01 0.88366975348E+01 0.85354138585E+01 0.86243754062E+01
 0.91805617619E+01 0.10654047898E+02 0.13245406646E+02 0.17328447570E+02 0.24139553861E+02
 0.35813139191E+02 0.51968940670E+02 0.69658439511E+02 0.86499658554E+02 0.10252341471E+03
 0.11806003932E+03 0.13061991994E+03 0.13560140610E+03 0.13061991994E+03 0.11806003932E+03
 0.10252341471E+03 0.86499658554E+02 0.69658439511E+02 0.51968940670E+02 0.35813139191E+02
 0.24139553861E+02 0.17328447570E+02 0.13245406646E+02 0.10654047898E+02 0.91805617619E+01
 0.86243754062E+01 0.97172450271E+01 0.97908848429E+01 0.10229014025E+02 0.11391575944E+02
 0.13487729620E+02 0.16863981663E+02 0.22298055816E+02 0.31371309266E+02 0.44338922637E+02
 0.59398150117E+02 0.74621564732E+02 0.89314955816E+02 0.10295216614E+03 0.11339702444E+03
 0.11741541097E+03 0.11339702444E+03 0.10295216614E+03 0.89314955816E+02 0.74621564732E+02
 0.59398150117E+02 0.44338922637E+02 0.31371309266E+02 0.22298055816E+02 0.16863981663E+02
 0.13487729620E+02 0.11391575944E+02 0.10229014025E+02 0.97908848429E+01 0.11984005987E+02
 0.11983330580E+02 0.12148692624E+02 0.12795078613E+02 0.14175124591E+02 0.16621851123E+02
 0.20640453943E+02 0.27081145076E+02 0.36643011849E+02 0.48686723632E+02 0.62027794508E+02
 0.75649031842E+02 0.88262500168E+02 0.97622623080E+02 0.10113844276E+03 0.97622623080E+02
 0.88262500168E+02 0.75649031842E+02 0.62027794508E+02 0.48686723632E+02 0.36643011849E+02
 0.27081145076E+02 0.20640453943E+02 0.16621851123E+02 0.14175124591E+02 0.12795078613E+02
 0.12148692624E+02 0.11983330580E+02 0.15182485801E+02 0.15083148506E+02 0.14916335422E+02
 0.14963541479E+02 0.15508993178E+02 0.16877575675E+02 0.19474041244E+02 0.23633698375E+02
 0.29982692871E+02 0.38726635355E+02 0.49449762784E+02 0.61268876569E+02 0.72588056357E+02
 0.81016556253E+02 0.84167544695E+02 0.81016556253E+02 0.72588056357E+02 0.61268876569E+02
 0.49449762784E+02 0.38726635355E+02 0.29982692871E+02 0.23633698375E+02 0.19474041244E+02
 0.16877575675E+02 0.15508993178E+02 0.14963541479E+02 0.14916335422E+02 0.15083148506E+02
 0.21740793749E+02 0.21374182934E+02 0.20439572857E+02 0.19317680505E+02 0.18447850339E+02
 0.18251772728E+02 0.19115614267E+02 0.21279739347E+02 0.24867141220E+02 0.30274490364E+02
 0.37578690139E+02 0.46262396739E+02 0.54970702334E+02 0.61599963191E+02 0.64098150693E+02
 0.61599963191E+02 0.54970702334E+02 0.46262396739E+02 0.37578690139E+02 0.30274490364E+02
 0.24867141220E+02 0.21279739347E+02 0.19115614267E+02 0.18251772728E+02 0.18447850339E+02
 0.19317680505E+02 0.20439572857E+02 0.21374182934E+02 0.36157895908E+02 0.34805354632E+02
 0.31436200673E+02 0.27509227803E+02 0.24117242116E+02 0.21530475307E+02 0.20080149522E+02
 0.20041457363E+02 0.21385259984E+02 0.23957215811E+02 0.27827974557E+02 0.32783936851E+02
 0.38007836559E+02 0.42106217997E+02 0.43672466520E+02 0.42106217997E+02 0.38007836559E+02
 0.32783936851E+02 0.27827974557E+02 0.23957215811E+02 0.21385259984E+02 0.20041457363E+02
 0.20080149522E+02 0.21530475307E+02 0.24117242116E+02 0.27509227803E+02 0.31436200673E+02
 0.34805354632E+02 0.64567222064E+02 0.61155655583E+02 0.52537784000E+02 0.42262679244E+02
 0.33358093689E+02 0.27013963313E+02 0.22742189981E+02 0.20134650258E+02 0.19270817866E+02
 0.19811310415E+02 0.21251604296E+02 0.23284013650E+02 0.25560574720E+02 0.27430776568E+02
 0.28163786796E+02 0.27430776568E+02 0.25560574720E+02 0.23284013650E+02 0.21251604296E+02
 0.19811310415E+02 0.19270817866E+02 0.20134650258E+02 0.22742189981E+02 0.27013963313E+02
 0.33358093689E+02 0.42262679244E+02 0.52537784000E+02 0.61155655583E+02 0.10682219848E+03
 0.10068024544E+03 0.85018504056E+02 0.65904558030E+02 0.48600817793E+02 0.35602677160E+02
 0.27100343368E+02 0.21647531227E+02 0.18460409491E+02 0.17263451322E+02 0.17240306176E+02
 0.17739232849E+02 0.18458155907E+02 0.19143741498E+02 0.19437976039E+02 0.19143741498E+02
 0.18458155907E+02 0.17739232849E+02 0.17240306176E+02 0.17263451322E+02 0.18460409491E+02
 0.21647531227E+02 0.27100343368E+02 0.35602677160E+02 0.48600817793E+02 0.65904558030E+02
 0.85018504056E+02 0.10068024544E+03 0.15957767058E+03 0.15041348514E+03 0.12699708106E+03
 0.98091494303E+02 0.70978364728E+02 0.49129449817E+02 0.33732208765E+02 0.24366645169E+02
 0.18746582928E+02 0.15980349872E+02 0.14859264492E+02 0.14362728943E+02 0.14287208912E+02
 0.14553414957E+02 0.14737283831E+02 0.14553414957E+02 0.14287208912E+02 0.14362728943E+02
 0.14859264492E+02 0.15980349872E+02 0.18746582928E+02 0.24366645169E+02 0.33732208765E+02
 0.49129449817E+02 0.70978364728E+02 0.98091494303E+02 0.12699708106E+03 0.15041348514E+03
 0.22066181216E+03 0.20813400111E+03 0.17628877920E+03 0.13708427268E+03 0.99647660307E+02
 0.67746563121E+02 0.43367613342E+02 0.28019286996E+02 0.19754171430E+02 0.15540318400E+02
 0.13556366198E+02 0.12276802840E+02 0.11624639463E+02 0.11717442702E+02 0.11913246238E+02
 0.11717442702E+02 0.11624639463E+02 0.12276802840E+02 0.13556366198E+02 0.15540318400E+02
 0.19754171430E+02 0.28019286996E+02 0.43367613342E+02 0.67746563121E+02 0.99647660307E+02
 0.13708427268E+03 0.17628877920E+03 0.20813400111E+03 0.28476142607E+03 0.26855264475E+03
 0.22770359110E+03 0.17800644699E+03 0.13050542084E+03 0.88672973788E+02 0.54767577231E+02
 0.32365500100E+02 0.21043399851E+02 0.15600059274E+02 0.12976773214E+02 0.11112688756E+02
 0.10072913797E+02 0.10170954741E+02 0.10459015440E+02 0.10170954741E+02 0.10072913797E+02
 0.11112688756E+02 0.12976773214E+02 0.15600059274E+02 0.21043399851E+02 0.32365500100E+02
 0.54767577231E+02 0.88672973788E+02 0.13050542084E+03 0.17800644699E+03 0.22770359110E+03
 0.26855264475E+03 0.33695059831E+03 0.31757439899E+03 0.26907959103E+03 0.21075418437E+03
 0.15535138649E+03 0.10587445360E+03 0.64440879571E+02 0.36163025821E+02 0.22122326074E+02
 0.15851748467E+02 0.12861506714E+02 0.10674189658E+02 0.94617492281E+01 0.96739102773E+01
 0.10079726605E+02 0.96739102773E+01 0.94617492281E+01 0.10674189658E+02 0.12861506714E+02
 0.15851748467E+02 0.22122326074E+02 0.36163025821E+02 0.64440879571E+02 0.10587445360E+03
 0.15535138649E+03 0.21075418437E+03 0.26907959103E+03 0.31757439899E+03 0.33729461169E+03
 0.31801365811E+03 0.26970340308E+03 0.21145442817E+03 0.15592489660E+03 0.10620144328E+03
 0.64556101714E+02 0.36178406759E+02 0.22115227561E+02 0.15834004669E+02 0.12819950374E+02
 0.10591134710E+02 0.93263915636E+01 0.94928362564E+01 0.98802249719E+01 0.94928362564E+01
 0.93263915636E+01 0.10591134710E+02 0.12819950374E+02 0.15834004669E+02 0.22115227561E+02
 0.36178406759E+02 0.64556101714E+02 0.10620144328E+03 0.15592489660E+03 0.21145442817E+03
 0.26970340308E+03 0.31801365811E+03 0.31875396397E+03 0.30059565792E+03 0.25498663605E+03
 0.19976759429E+03 0.14700167277E+03 0.99970911437E+02 0.61015519168E+02 0.34768321192E+02
 0.21711254152E+02 0.15712543443E+02 0.12812712814E+02 0.10678648081E+02 0.94538839754E+01
 0.95620061543E+01 0.99004094703E+01 0.95620061543E+01 0.94538839754E+01 0.10678648081E+02
 0.12812712814E+02 0.15712543443E+02 0.21711254152E+02 0.34768321192E+02 0.61015519168E+02
 0.99970911437E+02 0.14700167277E+03 0.19976759429E+03 0.25498663605E+03 0.30059565792E+03
 0.27120664988E+03 0.25584242177E+03 0.21699838020E+03 0.16948984198E+03 0.12393472275E+03
 0.84020276889E+02 0.52092378189E+02 0.31275398775E+02 0.20678775039E+02 0.15483843681E+02
 0.12952139804E+02 0.11142357077E+02 0.10099602269E+02 0.10119088730E+02 0.10355180259E+02
 0.10119088730E+02 0.10099602269E+02 0.11142357077E+02 0.12952139804E+02 0.15483843681E+02
 0.20678775039E+02 0.31275398775E+02 0.52092378189E+02 0.84020276889E+02 0.12393472275E+03
 0.16948984198E+03 0.21699838020E+03 0.25584242177E+03 0.21170449885E+03 0.19967120343E+03
 0.16901694427E+03 0.13117158258E+03 0.95050850802E+02 0.64528458431E+02 0.41548353270E+02
 0.27249683043E+02 0.19442874988E+02 0.15438125915E+02 0.13537445731E+02 0.12303550521E+02
 0.11651749204E+02 0.11692455727E+02 0.11853726451E+02 0.11692455727E+02 0.11651749204E+02
 0.12303550521E+02 0.13537445731E+02 0.15438125915E+02 0.19442874988E+02 0.27249683043E+02
 0.41548353270E+02 0.64528458431E+02 0.95050850802E+02 0.13117158258E+03 0.16901694427E+03
 0.19967120343E+03 0.15361775828E+03 0.14475530600E+03 0.12209318096E+03 0.94115333397E+02
 0.67963584115E+02 0.47096837974E+02 0.32595783481E+02 0.23802279858E+02 0.18474212781E+02
 0.15865187782E+02 0.14806957335E+02 0.14337336105E+02 0.14256855800E+02 0.14489441751E+02
 0.14652568485E+02 0.14489441751E+02 0.14256855800E+02 0.14337336105E+02 0.14806957335E+02
 0.15865187782E+02 0.18474212781E+02 0.23802279858E+02 0.32595783481E+02 0.47096837974E+02
 0.67963584115E+02 0.94115333397E+02 0.12209318096E+03 0.14475530600E+03 0.10263562958E+03
 0.96719194146E+02 0.81638681836E+02 0.63265808614E+02 0.46711957296E+02 0.34384326239E+02
 0.26372102140E+02 0.21188678055E+02 0.18193947211E+02 0.17091891194E+02 0.17097214976E+02
 0.17593728230E+02 0.18291125083E+02 0.18943548954E+02 0.19220654736E+02 0.18943548954E+02
 0.18291125083E+02 0.17593728230E+02 0.17097214976E+02 0.17091891194E+02 0.18193947211E+02
 0.21188678055E+02 0.26372102140E+02 0.34384326239E+02 0.46711957296E+02 0.63265808614E+02
 0.81638681836E+02 0.96719194146E+02 0.61900837666E+02 0.58651988176E+02 0.50452758801E+02
 0.40698299014E+02 0.32274218154E+02 0.26276635658E+02 0.22195767182E+02 0.19739073275E+02
 0.18962909753E+02 0.19525377538E+02 0.20936159248E+02 0.22881519105E+02 0.25037911809E+02
 0.26800594058E+02 0.27490023562E+02 0.26800594058E+02 0.25037911809E+02 0.22881519105E+02
 0.20936159248E+02 0.19525377538E+02 0.18962909753E+02 0.19739073275E+02 0.22195767182E+02
 0.26276635658E+02 0.32274218154E+02 0.40698299014E+02 0.50452758801E+02 0.58651988176E+02
 0.34914438577E+02 0.33640355899E+02 0.30464969420E+02 0.26754248832E+02 0.23514613847E+02
 0.21025739295E+02 0.19657021395E+02 0.19657144490E+02 0.20989519349E+02 0.23478539497E+02
 0.27172614872E+02 0.31870518146E+02 0.36800933052E+02 0.40658336478E+02 0.42130493275E+02
 0.40658336478E+02 0.36800933052E+02 0.31870518146E+02 0.27172614872E+02 0.23478539497E+02
 0.20989519349E+02 0.19657144490E+02 0.19657021395E+02 0.21025739295E+02 0.23514613847E+02
 0.26754248832E+02 0.30464969420E+02 0.33640355899E+02 0.21308979189E+02 0.20952907919E+02
 0.20039808609E+02 0.18943732124E+02 0.18096971363E+02 0.17911239253E+02 0.18756935035E+02
 0.20864356784E+02 0.24324548359E+02 0.29505192491E+02 0.36480176234E+02 0.44734405748E+02
 0.52968324960E+02 0.59209278984E+02 0.61555578214E+02 0.59209278984E+02 0.52968324960E+02
 0.44734405748E+02 0.36480176234E+02 0.29505192491E+02 0.24324548359E+02 0.20864356784E+02
 0.18756935035E+02 0.17911239253E+02 0.18096971363E+02 0.18943732124E+02 0.20039808609E+02
 0.20952907919E+02 0.14976748533E+02 0.14886533858E+02 0.14735696070E+02 0.14785220584E+02
 0.15308398660E+02 0.16625201971E+02 0.19133023806E+02 0.23144705161E+02 0.29247298505E+02
 0.37673166980E+02 0.47996659134E+02 0.59299080845E+02 0.70018632359E+02 0.77932557530E+02
 0.80877117735E+02 0.77932557530E+02 0.70018632359E+02 0.59299080845E+02 0.47996659134E+02
 0.37673166980E+02 0.29247298505E+02 0.23144705161E+02 0.19133023806E+02 0.16625201971E+02
 0.15308398660E+02 0.14785220584E+02 0.14735696070E+02 0.14886533858E+02 0.11831717812E+02
 0.11849888654E+02 0.12049749359E+02 0.12706285304E+02 0.14051280136E+02 0.16413837350E+02
 0.20294593334E+02 0.26484888598E+02 0.35727918525E+02 0.47455015305E+02 0.60443396942E+02
 0.73550130191E+02 0.85463019121E+02 0.94158878986E+02 0.97396231435E+02 0.94158878986E+02
 0.85463019121E+02 0.73550130191E+02 0.60443396942E+02 0.47455015305E+02 0.35727918525E+02
 0.26484888598E+02 0.20294593334E+02 0.16413837350E+02 0.14051280136E+02 0.12706285304E+02
 0.12049749359E+02 0.11849888654E+02 0.95394944341E+01 0.96461595137E+01 0.10148635163E+02
 0.11343746344E+02 0.13407900649E+02 0.16684404068E+02 0.21924755186E+02 0.30664173045E+02
 0.43290838080E+02 0.58112468948E+02 0.73095132552E+02 0.87270783409E+02 0.10001291850E+03
 0.10952073378E+03 0.11313191591E+03 0.10952073378E+03 0.10001291850E+03 0.87270783409E+02
 0.73095132552E+02 0.58112468948E+02 0.43290838080E+02 0.30664173045E+02 0.21924755186E+02
 0.16684404068E+02 0.13407900649E+02 0.11343746344E+02 0.10148635163E+02 0.96461595137E+01
 0.82180392336E+01 0.83605475190E+01 0.90281911671E+01 0.10580461825E+02 0.13168378079E+02
 0.17159970501E+02 0.23727914096E+02 0.35010657880E+02 0.50835605457E+02 0.68388893804E+02
 0.85080500088E+02 0.10049110775E+03 0.11478696810E+03 0.12599101091E+03 0.13037574909E+03
 0.12599101091E+03 0.11478696810E+03 0.10049110775E+03 0.85080500088E+02 0.68388893804E+02
 0.50835605457E+02 0.35010657880E+02 0.23727914096E+02 0.17159970501E+02 0.13168378079E+02
 0.10580461825E+02 0.90281911671E+01 0.83605475190E+01 0.82777272078E+01 0.83638056883E+01
 0.89432390401E+01 0.10507407324E+02 0.13264346109E+02 0.17633960178E+02 0.25196795985E+02
 0.38404071962E+02 0.56597293359E+02 0.76156371088E+02 0.94248323989E+02 0.11106171112E+03
 0.12734013734E+03 0.14063184045E+03 0.14594177349E+03 0.14063184045E+03 0.12734013734E+03
 0.11106171112E+03 0.94248323989E+02 0.76156371088E+02 0.56597293359E+02 0.38404071962E+02
 0.25196795985E+02 0.17633960178E+02 0.13264346109E+02 0.10507407324E+02 0.89432390401E+01
 0.83638056883E+01 0.86027163623E+01 0.86421310399E+01 0.91236680534E+01 0.10614900295E+02
 0.13369815778E+02 0.17840178039E+02 0.25770460971E+02 0.39699788875E+02 0.58776931458E+02
 0.79091467888E+02 0.97757461365E+02 0.11522731816E+03 0.13244830965E+03 0.14671188437E+03
 0.15244713414E+03 0.14671188437E+03 0.13244830965E+03 0.11522731816E+03 0.97757461365E+02
 0.79091467888E+02 0.58776931458E+02 0.39699788875E+02 0.25770460971E+02 0.17840178039E+02
 0.13369815778E+02 0.10614900295E+02 0.91236680534E+01 0.86421310399E+01 0.82777272078E+01
 0.83638056883E+01 0.89432390401E+01 0.10507407324E+02 0.13264346109E+02 0.17633960178E+02
 0.25196795985E+02 0.38404071962E+02 0.56597293359E+02 0.76156371088E+02 0.94248323989E+02
 0.11106171112E+03 0.12734013734E+03 0.14063184045E+03 0.14594177349E+03 0.14063184045E+03
 0.12734013734E+03 0.11106171112E+03 0.94248323989E+02 0.76156371088E+02 0.56597293359E+02
 0.38404071962E+02 0.25196795985E+02 0.17633960178E+02 0.13264346109E+02 0.10507407324E+02
 0.89432390401E+01 0.83638056883E+01 0.82180392336E+01 0.83605475190E+01 0.90281911671E+01
 0.10580461825E+02 0.13168378079E+02 0.17159970501E+02 0.23727914096E+02 0.35010657880E+02
 0.50835605457E+02 0.68388893804E+02 0.85080500088E+02 0.10049110775E+03 0.11478696810E+03
 0.12599101091E+03 0.13037574909E+03 0.12599101091E+03 0.11478696810E+03 0.10049110775E+03
 0.85080500088E+02 0.68388893804E+02 0.50835605457E+02 0.35010657880E+02 0.23727914096E+02
 0.17159970501E+02 0.13168378079E+02 0.10580461825E+02 0.90281911671E+01 0.83605475190E+01
 0.95394944341E+01 0.96461595137E+01 0.10148635163E+02 0.11343746344E+02 0.13407900649E+02
 0.16684404068E+02 0.21924755186E+02 0.30664173045E+02 0.43290838080E+02 0.58112468948E+02
 0.73095132552E+02 0.87270783409E+02 0.10001291850E+03 0.10952073378E+03 0.11313191591E+03
 0.10952073378E+03 0.10001291850E+03 0.87270783409E+02 0.73095132552E+02 0.58112468948E+02
 0.43290838080E+02 0.30664173045E+02 0.21924755186E+02 0.16684404068E+02 0.13407900649E+02
 0.11343746344E+02 0.10148635163E+02 0.96461595137E+01 0.11831717812E+02 0.11849888654E+02
 0.12049749359E+02 0.12706285304E+02 0.14051280136E+02 0.16413837350E+02 0.20294593334E+02
 0.26484888598E+02 0.35727918525E+02 0.47455015305E+02 0.60443396942E+02 0.73550130191E+02
 0.85463019121E+02 0.94158878986E+02 0.97396231435E+02 0.94158878986E+02 0.85463019121E+02
 0.73550130191E+02 0.60443396942E+02 0.47455015305E+02 0.35727918525E+02 0.26484888598E+02
 0.20294593334E+02 0.16413837350E+02 0.14051280136E+02 0.12706285304E+02 0.12049749359E+02
 0.11849888654E+02 0.14976748533E+02 0.14886533858E+02 0.14735696070E+02 0.14785220584E+02
 0.15308398660E+02 0.16625201971E+02 0.19133023806E+02 0.23144705161E+02 0.29247298505E+02
 0.37673166980E+02 0.47996659134E+02 0.59299080845E+02 0.70018632359E+02 0.77932557530E+02
 0.80877117735E+02 0.77932557530E+02 0.70018632359E+02 0.59299080845E+02 0.47996659134E+02
 0.37673166980E+02 0.29247298505E+02 0.23144705161E+02 0.19133023806E+02 0.16625201971E+02
 0.15308398660E+02 0.14785220584E+02 0.14735696070E+02 0.14886533858E+02 0.21308979189E+02
 0.20952907919E+02 0.20039808609E+02 0.18943732124E+02 0.18096971363E+02 0.17911239253E+02
 0.18756935035E+02 0.20864356784E+02 0.24324548359E+02 0.29505192491E+02 0.36480176234E+02
 0.44734405748E+02 0.52968324960E+02 0.59209278984E+02 0.61555578214E+02 0.59209278984E+02
 0.52968324960E+02 0.44734405748E+02 0.36480176234E+02 0.29505192491E+02 0.24324548359E+02
 0.20864356784E+02 0.18756935035E+02 0.17911239253E+02 0.18096971363E+02 0.18943732124E+02
 0.20039808609E+02 0.20952907919E+02 0.34914438577E+02 0.33640355899E+02 0.30464969420E+02
 0.26754248832E+02 0.23514613847E+02 0.21025739295E+02 0.19657021395E+02 0.19657144490E+02
 0.20989519349E+02 0.23478539497E+02 0.27172614872E+02 0.31870518146E+02 0.36800933052E+02
 0.40658336478E+02 0.42130493275E+02 0.40658336478E+02 0.36800933052E+02 0.31870518146E+02
 0.27172614872E+02 0.23478539497E+02 0.20989519349E+02 0.19657144490E+02 0.19657021395E+02
 0.21025739295E+02 0.23514613847E+02 0.26754248832E+02 0.30464969420E+02 0.33640355899E+02
 0.61900837666E+02 0.58651988176E+02 0.50452758801E+02 0.40698299014E+02 0.32274218154E+02
 0.26276635658E+02 0.22195767182E+02 0.19739073275E+02 0.18962909753E+02 0.19525377538E+02
 0.20936159248E+02 0.22881519105E+02 0.25037911809E+02 0.26800594058E+02 0.27490023562E+02
 0.26800594058E+02 0.25037911809E+02 0.22881519105E+02 0.20936159248E+02 0.19525377538E+02
 0.18962909753E+02 0.19739073275E+02 0.22195767182E+02 0.26276635658E+02 0.32274218154E+02
 0.40698299014E+02 0.50452758801E+02 0.58651988176E+02 0.10263562958E+03 0.96719194146E+02
 0.81638681836E+02 0.63265808614E+02 0.46711957296E+02 0.34384326239E+02 0.26372102140E+02
 0.21188678055E+02 0.18193947211E+02 0.17091891194E+02 0.17097214976E+02 0.17593728230E+02
 0.18291125083E+02 0.18943548954E+02 0.19220654736E+02 0.18943548954E+02 0.18291125083E+02
 0.17593728230E+02 0.17097214976E+02 0.17091891194E+02 0.18193947211E+02 0.21188678055E+02
 0.26372102140E+02 0.34384326239E+02 0.46711957296E+02 0.63265808614E+02 0.81638681836E+02
 0.96719194146E+02 0.15361775828E+03 0.14475530600E+03 0.12209318096E+03 0.94115333397E+02
 0.67963584115E+02 0.47096837974E+02 0.32595783481E+02 0.23802279858E+02 0.18474212781E+02
 0.15865187782E+02 0.14806957335E+02 0.14337336105E+02 0.14256855800E+02 0.14489441751E+02
 0.14652568485E+02 0.14489441751E+02 0.14256855800E+02 0.14337336105E+02 0.14806957335E+02
 0.15865187782E+02 0.18474212781E+02 0.23802279858E+02 0.32595783481E+02 0.47096837974E+02
 0.67963584115E+02 0.94115333397E+02 0.12209318096E+03 0.14475530600E+03 0.21170449885E+03
 0.19967120343E+03 0.16901694427E+03 0.13117158258E+03 0.95050850802E+02 0.64528458431E+02
 0.41548353270E+02 0.27249683043E+02 0.19442874988E+02 0.15438125915E+02 0.13537445731E+02
 0.12303550521E+02 0.11651749204E+02 0.11692455727E+02 0.11853726451E+02 0.11692455727E+02
 0.11651749204E+02 0.12303550521E+02 0.13537445731E+02 0.15438125915E+02 0.19442874988E+02
 0.27249683043E+02 0.41548353270E+02 0.64528458431E+02 0.95050850802E+02 0.13117158258E+03
 0.16901694427E+03 0.19967120343E+03 0.27120664988E+03 0.25584242177E+03 0.21699838020E+03
 0.16948984198E+03 0.12393472275E+03 0.84020276889E+02 0.52092378189E+02 0.31275398775E+02
 0.20678775039E+02 0.15483843681E+02 0.12952139804E+02 0.11142357077E+02 0.10099602269E+02
 0.10119088730E+02 0.10355180259E+02 0.10119088730E+02 0.10099602269E+02 0.11142357077E+02
 0.12952139804E+02 0.15483843681E+02 0.20678775039E+02 0.31275398775E+02 0.52092378189E+02
 0.84020276889E+02 0.12393472275E+03 0.16948984198E+03 0.21699838020E+03 0.25584242177E+03
 0.31875396397E+03 0.30059565792E+03 0.25498663605E+03 0.19976759429E+03 0.14700167277E+03
 0.99970911437E+02 0.61015519168E+02 0.34768321192E+02 0.21711254152E+02 0.15712543443E+02
 0.12812712814E+02 0.10678648081E+02 0.94538839754E+01 0.95620061543E+01 0.99004094703E+01
 0.95620061543E+01 0.94538839754E+01 0.10678648081E+02 0.12812712814E+02 0.15712543443E+02
 0.21711254152E+02 0.34768321192E+02 0.61015519168E+02 0.99970911437E+02 0.14700167277E+03
 0.19976759429E+03 0.25498663605E+03 0.30059565792E+03 0.28571547122E+03 0.26980610654E+03
 0.22953403438E+03 0.18006990726E+03 0.13217104221E+03 0.89587162175E+02 0.55059765101E+02
 0.32384531389E+02 0.21010978942E+02 0.15549204810E+02 0.12882609867E+02 0.10939645534E+02
 0.97972114699E+01 0.98027124829E+01 0.10052760790E+02 0.98027124829E+01 0.97972114699E+01
 0.10939645534E+02 0.12882609867E+02 0.15549204810E+02 0.21010978942E+02 0.32384531389E+02
 0.55059765101E+02 0.89587162175E+02 0.13217104221E+03 0.18006990726E+03 0.22953403438E+03
 0.26980610654E+03 0.27183668049E+03 0.25667944264E+03 0.21823346991E+03 0.17088417709E+03
 0.12505411815E+03 0.84625958091E+02 0.52278670153E+02 0.31282399650E+02 0.20654151782E+02
 0.15449499374E+02 0.12894334454E+02 0.11041032841E+02 0.99408272744E+01 0.99076943583E+01
 0.10121952738E+02 0.99076943583E+01 0.99408272744E+01 0.11041032841E+02 0.12894334454E+02
 0.15449499374E+02 0.20654151782E+02 0.31282399650E+02 0.52278670153E+02 0.84625958091E+02
 0.12505411815E+03 0.17088417709E+03 0.21823346991E+03 0.25667944264E+03 0.23518867592E+03