   4   4   0   0
  0.1444527E+02  0.3866000E-09  0.3866000E-09  0.3866000E-09  0.5000000E-15
  1.000000000000000E-004
  CAR 
 unknown system                          
     27.38720277     -1.89757646  301      9.19881970      1.00000000
     -1.898  0.0000E+00  0.0000E+00
     -1.800  0.0000E+00  0.0000E+00
     -1.702  0.0000E+00  0.0000E+00
     -1.605  0.0000E+00  0.0000E+00
     -1.507 -0.2777E-28 -0.2710E-29
     -1.409 -0.5301E-25 -0.5178E-26
     -1.312 -0.6261E-22 -0.6117E-23
     -1.214 -0.4569E-19 -0.4466E-20
     -1.117 -0.2058E-16 -0.2014E-17
     -1.019 -0.5536E-14 -0.5424E-15
     -0.921 -0.9415E-12 -0.9245E-13
     -0.824 -0.9813E-10 -0.9671E-11
     -0.726 -0.6245E-08 -0.6193E-09
     -0.629 -0.2412E-06 -0.2416E-07
     -0.531 -0.5594E-05 -0.5702E-06
     -0.433 -0.7645E-04 -0.8033E-05
     -0.336 -0.5923E-03 -0.6586E-04
     -0.238 -0.2347E-02 -0.2949E-03
     -0.140 -0.2789E-02 -0.5672E-03
     -0.043  0.1090E-01  0.4965E-03
      0.055  0.4439E-01  0.4830E-02
      0.152  0.6249E-01  0.1093E-01
      0.250  0.3174E-01  0.1403E-01
      0.348 -0.6264E-02  0.1342E-01
      0.445  0.4737E-01  0.1804E-01
      0.543  0.2330E+00  0.4078E-01
      0.640  0.3727E+00  0.7716E-01
      0.738  0.2607E+00  0.1026E+00
      0.836  0.5938E-01  0.1084E+00
      0.933  0.1364E+00  0.1217E+00
      1.031  0.5352E+00  0.1740E+00
      1.129  0.7588E+00  0.2480E+00
      1.226  0.4810E+00  0.2950E+00
      1.324  0.1769E+00  0.3122E+00
      1.421  0.2874E+00  0.3403E+00
      1.519  0.5111E+00  0.3902E+00
      1.617  0.4486E+00  0.4340E+00
      1.714  0.2147E+00  0.4549E+00
      1.812  0.6201E-01  0.4610E+00
      1.909  0.9253E-01  0.4700E+00
      2.007  0.3074E+00  0.5000E+00
      2.105  0.5405E+00  0.5528E+00
      2.202  0.7053E+00  0.6216E+00
      2.300  0.1078E+01  0.7269E+00
      2.398  0.1644E+01  0.8873E+00
      2.495  0.1840E+01  0.1067E+01
      2.593  0.1470E+01  0.1210E+01
      2.690  0.7753E+00  0.1286E+01
      2.788  0.3733E+00  0.1323E+01
      2.886  0.9224E+00  0.1413E+01
      2.983  0.2095E+01  0.1617E+01
      3.081  0.2850E+01  0.1895E+01
      3.178  0.2835E+01  0.2172E+01
      3.276  0.2415E+01  0.2408E+01
      3.374  0.1817E+01  0.2585E+01
      3.471  0.1984E+01  0.2779E+01
      3.569  0.3795E+01  0.3149E+01
      3.667  0.5553E+01  0.3691E+01
      3.764  0.5435E+01  0.4222E+01
      3.862  0.4996E+01  0.4710E+01
      3.959  0.5838E+01  0.5280E+01
      4.057  0.6958E+01  0.5959E+01
      4.155  0.7373E+01  0.6678E+01
      4.252  0.6994E+01  0.7361E+01
      4.350  0.5804E+01  0.7928E+01
      4.447  0.4747E+01  0.8391E+01
      4.545  0.5051E+01  0.8884E+01
      4.643  0.6059E+01  0.9476E+01
      4.740  0.6258E+01  0.1009E+02
      4.838  0.5504E+01  0.1062E+02
      4.936  0.4669E+01  0.1108E+02
      5.033  0.4402E+01  0.1151E+02
      5.131  0.4673E+01  0.1197E+02
      5.228  0.4725E+01  0.1243E+02
      5.326  0.4441E+01  0.1286E+02
      5.424  0.4747E+01  0.1332E+02
      5.521  0.5749E+01  0.1388E+02
      5.619  0.6673E+01  0.1454E+02
      5.716  0.7028E+01  0.1522E+02
      5.814  0.6595E+01  0.1587E+02
      5.912  0.6049E+01  0.1646E+02
      6.009  0.6791E+01  0.1712E+02
      6.107  0.8173E+01  0.1792E+02
      6.205  0.8383E+01  0.1874E+02
      6.302  0.8603E+01  0.1958E+02
      6.400  0.1074E+02  0.2062E+02
      6.497  0.1258E+02  0.2185E+02
      6.595  0.1113E+02  0.2294E+02
      6.693  0.7869E+01  0.2371E+02
      6.790  0.6335E+01  0.2432E+02
      6.888  0.7435E+01  0.2505E+02
      6.985  0.9044E+01  0.2593E+02
      7.083  0.9556E+01  0.2687E+02
      7.181  0.9481E+01  0.2779E+02
      7.278  0.9188E+01  0.2869E+02
      7.376  0.7914E+01  0.2946E+02
      7.474  0.5956E+01  0.3004E+02
      7.571  0.4851E+01  0.3052E+02
      7.669  0.4779E+01  0.3098E+02
      7.766  0.4833E+01  0.3145E+02
      7.864  0.4635E+01  0.3191E+02
      7.962  0.4592E+01  0.3235E+02
      8.059  0.5479E+01  0.3289E+02
      8.157  0.7164E+01  0.3359E+02
      8.254  0.8242E+01  0.3439E+02
      8.352  0.8006E+01  0.3518E+02
      8.450  0.7075E+01  0.3587E+02
      8.547  0.5990E+01  0.3645E+02
      8.645  0.5037E+01  0.3694E+02
      8.743  0.4359E+01  0.3737E+02
      8.840  0.4373E+01  0.3779E+02
      8.938  0.5349E+01  0.3832E+02
      9.035  0.6364E+01  0.3894E+02
      9.133  0.6623E+01  0.3958E+02
      9.231  0.6196E+01  0.4019E+02
      9.328  0.5329E+01  0.4071E+02
      9.426  0.4451E+01  0.4114E+02
      9.523  0.3769E+01  0.4151E+02
      9.621  0.3396E+01  0.4184E+02
      9.719  0.3595E+01  0.4219E+02
      9.816  0.3544E+01  0.4254E+02
      9.914  0.2352E+01  0.4277E+02
     10.012  0.1053E+01  0.4287E+02
     10.109  0.8731E+00  0.4296E+02
     10.207  0.1285E+01  0.4308E+02
     10.304  0.1235E+01  0.4320E+02
     10.402  0.8724E+00  0.4329E+02
     10.500  0.8570E+00  0.4337E+02
     10.597  0.9871E+00  0.4347E+02
     10.695  0.8945E+00  0.4356E+02
     10.792  0.9182E+00  0.4365E+02
     10.890  0.1255E+01  0.4377E+02
     10.988  0.1557E+01  0.4392E+02
     11.085  0.1669E+01  0.4408E+02
     11.183  0.1423E+01  0.4422E+02
     11.281  0.7788E+00  0.4430E+02
     11.378  0.4203E+00  0.4434E+02
     11.476  0.6927E+00  0.4441E+02
     11.573  0.9709E+00  0.4450E+02
     11.671  0.8120E+00  0.4458E+02
     11.769  0.6659E+00  0.4465E+02
     11.866  0.8664E+00  0.4473E+02
     11.964  0.1003E+01  0.4483E+02
     12.062  0.8136E+00  0.4491E+02
     12.159  0.5877E+00  0.4497E+02
     12.257  0.4775E+00  0.4501E+02
     12.354  0.3604E+00  0.4505E+02
     12.452  0.3772E+00  0.4508E+02
     12.550  0.7312E+00  0.4516E+02
     12.647  0.1312E+01  0.4528E+02
     12.745  0.1712E+01  0.4545E+02
     12.842  0.1643E+01  0.4561E+02
     12.940  0.1397E+01  0.4575E+02
     13.038  0.1257E+01  0.4587E+02
     13.135  0.1140E+01  0.4598E+02
     13.233  0.9312E+00  0.4607E+02
     13.331  0.7404E+00  0.4614E+02
     13.428  0.7835E+00  0.4622E+02
     13.526  0.9265E+00  0.4631E+02
     13.623  0.9426E+00  0.4640E+02
     13.721  0.1238E+01  0.4652E+02
     13.819  0.1982E+01  0.4672E+02
     13.916  0.2251E+01  0.4694E+02
     14.014  0.1719E+01  0.4710E+02
     14.111  0.9818E+00  0.4720E+02
     14.209  0.3444E+00  0.4723E+02
     14.307  0.2897E-01  0.4724E+02
     14.404  0.1926E+00  0.4726E+02
     14.502  0.5821E+00  0.4731E+02
     14.600  0.6919E+00  0.4738E+02
     14.697  0.3750E+00  0.4742E+02
     14.795  0.6452E-01  0.4742E+02
     14.892  0.1464E+00  0.4744E+02
     14.990  0.5675E+00  0.4749E+02
     15.088  0.1093E+01  0.4760E+02
     15.185  0.1460E+01  0.4774E+02
     15.283  0.1386E+01  0.4788E+02
     15.380  0.1155E+01  0.4799E+02
     15.478  0.1470E+01  0.4813E+02
     15.576  0.2086E+01  0.4834E+02
     15.673  0.2134E+01  0.4855E+02
     15.771  0.1772E+01  0.4872E+02
     15.869  0.1437E+01  0.4886E+02
     15.966  0.1010E+01  0.4896E+02
     16.064  0.8854E+00  0.4904E+02
     16.161  0.1470E+01  0.4919E+02
     16.259  0.1979E+01  0.4938E+02
     16.357  0.1496E+01  0.4953E+02
     16.454  0.4937E+00  0.4957E+02
     16.552 -0.7689E-01  0.4957E+02
     16.649  0.2844E-01  0.4957E+02
     16.747  0.7670E+00  0.4964E+02
     16.845  0.1810E+01  0.4982E+02
     16.942  0.2301E+01  0.5005E+02
     17.040  0.1886E+01  0.5023E+02
     17.138  0.1056E+01  0.5033E+02
     17.235  0.3299E+00  0.5037E+02
     17.333  0.1114E+00  0.5038E+02
     17.430  0.5431E+00  0.5043E+02
     17.528  0.1158E+01  0.5054E+02
     17.626  0.1387E+01  0.5068E+02
     17.723  0.1370E+01  0.5081E+02
     17.821  0.1796E+01  0.5099E+02
     17.918  0.2756E+01  0.5126E+02
     18.016  0.3029E+01  0.5155E+02
     18.114  0.1983E+01  0.5175E+02
     18.211  0.7579E+00  0.5182E+02
     18.309  0.3731E+00  0.5186E+02
     18.407  0.6261E+00  0.5192E+02
     18.504  0.1050E+01  0.5202E+02
     18.602  0.1534E+01  0.5217E+02
     18.699  0.1802E+01  0.5234E+02
     18.797  0.1658E+01  0.5251E+02
     18.895  0.1511E+01  0.5265E+02
     18.992  0.1505E+01  0.5280E+02
     19.090  0.1189E+01  0.5292E+02
     19.187  0.6115E+00  0.5298E+02
     19.285  0.4497E+00  0.5302E+02
     19.383  0.9347E+00  0.5311E+02
     19.480  0.1469E+01  0.5326E+02
     19.578  0.1457E+01  0.5340E+02
     19.676  0.1135E+01  0.5351E+02
     19.773  0.1251E+01  0.5363E+02
     19.871  0.1910E+01  0.5382E+02
     19.968  0.2532E+01  0.5406E+02
     20.066  0.2764E+01  0.5433E+02
     20.164  0.2461E+01  0.5457E+02
     20.261  0.1794E+01  0.5475E+02
     20.359  0.1569E+01  0.5490E+02
     20.456  0.1931E+01  0.5509E+02
     20.554  0.1979E+01  0.5528E+02
     20.652  0.1437E+01  0.5542E+02
     20.749  0.8094E+00  0.5550E+02
     20.847  0.4599E+00  0.5555E+02
     20.945  0.6923E+00  0.5562E+02
     21.042  0.1516E+01  0.5576E+02
     21.140  0.2214E+01  0.5598E+02
     21.237  0.2128E+01  0.5619E+02
     21.335  0.1637E+01  0.5635E+02
     21.433  0.1668E+01  0.5651E+02
     21.530  0.2318E+01  0.5674E+02
     21.628  0.2730E+01  0.5700E+02
     21.725  0.2434E+01  0.5724E+02
     21.823  0.1881E+01  0.5742E+02
     21.921  0.1574E+01  0.5758E+02
     22.018  0.1520E+01  0.5773E+02
     22.116  0.1615E+01  0.5788E+02
     22.214  0.1764E+01  0.5806E+02
     22.311  0.1808E+01  0.5823E+02
     22.409  0.1719E+01  0.5840E+02
     22.506  0.1389E+01  0.5854E+02
     22.604  0.9475E+00  0.5863E+02
     22.702  0.8319E+00  0.5871E+02
     22.799  0.1091E+01  0.5882E+02
     22.897  0.1407E+01  0.5895E+02
     22.994  0.1424E+01  0.5909E+02
     23.092  0.1002E+01  0.5919E+02
     23.190  0.4867E+00  0.5924E+02
     23.287  0.3213E+00  0.5927E+02
     23.385  0.4110E+00  0.5931E+02
     23.483  0.3718E+00  0.5935E+02
     23.580  0.1656E+00  0.5936E+02
     23.678  0.1274E-01  0.5936E+02
     23.775 -0.2000E-01  0.5936E+02
     23.873 -0.9741E-02  0.5936E+02
     23.971 -0.6243E-02  0.5936E+02
     24.068 -0.1945E-01  0.5936E+02
     24.166 -0.3493E-01  0.5935E+02
     24.263  0.3759E-01  0.5936E+02
     24.361  0.3103E+00  0.5939E+02
     24.459  0.7227E+00  0.5946E+02
     24.556  0.1069E+01  0.5956E+02
     24.654  0.1091E+01  0.5967E+02
     24.752  0.6717E+00  0.5974E+02
     24.849  0.1700E+00  0.5975E+02
     24.947 -0.5788E-01  0.5975E+02
     25.044 -0.7925E-01  0.5974E+02
     25.142  0.4452E-01  0.5974E+02
     25.240  0.4263E+00  0.5978E+02
     25.337  0.8755E+00  0.5987E+02
     25.435  0.8888E+00  0.5996E+02
     25.533  0.4504E+00  0.6000E+02
     25.630  0.6581E-01  0.6001E+02
     25.728 -0.4148E-01  0.6000E+02
     25.825 -0.2370E-01  0.6000E+02
     25.923 -0.5384E-02  0.6000E+02
     26.021 -0.6594E-03  0.6000E+02
     26.118 -0.4683E-04  0.6000E+02
     26.216 -0.1984E-05  0.6000E+02
     26.313 -0.5083E-07  0.6000E+02
     26.411 -0.7934E-09  0.6000E+02
     26.509 -0.7582E-11  0.6000E+02
     26.606 -0.4455E-13  0.6000E+02
     26.704 -0.2912E-15  0.6000E+02
     26.802  0.0000E+00  0.6000E+02
     26.899  0.0000E+00  0.6000E+02
     26.997  0.0000E+00  0.6000E+02
     27.094  0.0000E+00  0.6000E+02
     27.192  0.0000E+00  0.6000E+02
     27.290  0.0000E+00  0.6000E+02
     27.387  0.0000E+00  0.6000E+02
