    4    4    1    1
  0.1444527E+02  0.3866000E-09  0.3866000E-09  0.3866000E-09  0.5000000E-15
  1.000000000000000E-004
  CAR 
 unknown system                          
     40     27     30
 
  0.0000000E+00  0.0000000E+00  0.0000000E+00  0.8000000E-02
    1        0.102424   1.000000
    2        2.575169   1.000000
    3        3.526251   1.000000
    4        3.538209   1.000000
    5        3.612619   1.000000
    6        3.707179   1.000000
    7        3.716032   1.000000
    8        6.188143   1.000000
    9        6.192461   1.000000
   10        6.333058   1.000000
   11        7.411220   1.000000
   12        7.543351   1.000000
   13        8.181693   1.000000
   14        8.347825   1.000000
   15        8.502088   1.000005
   16        9.206602   0.467095
   17        9.379539  -0.012015
   18        9.474661  -0.032505
   19        9.755760  -0.000296
   20       10.229067  -0.000000
   21       10.809996  -0.000000
   22       11.395937  -0.000000
   23       11.403974  -0.000000
   24       11.416681  -0.000000
   25       17.880904   0.000000
   26       18.145674   0.000000
   27       19.747933   0.000000
   28       20.300974   0.000000
   29       20.445766   0.000000
   30       20.683816   0.000000
 
  0.2000000E+00  0.0000000E+00  0.0000000E+00  0.1600000E-01
    1        0.568880   1.000000
    2        2.878685   1.000000
    3        3.695803   1.000000
    4        3.696892   1.000000
    5        3.898488   1.000000
    6        3.982889   1.000000
    7        4.046522   1.000000
    8        5.965695   1.000000
    9        6.336082   1.000000
   10        6.497701   1.000000
   11        7.326428   1.000000
   12        7.465726   1.000000
   13        7.661279   1.000000
   14        7.848304   1.000000
   15        7.973132   1.000000
   16        8.184771   1.000000
   17        8.998132   1.025480
   18        9.091104   0.890545
   19        9.232256   0.360690
   20        9.458708  -0.034683
   21        9.718979  -0.000729
   22       10.809656  -0.000000
   23       13.180966  -0.000000
   24       13.185808  -0.000000
   25       17.889477   0.000000
   26       18.020664   0.000000
   27       20.395550   0.000000
   28       20.436876   0.000000
   29       20.597187   0.000000
   30       20.978436   0.000000
 
  0.0000000E+00  0.2000000E+00  0.0000000E+00  0.1600000E-01
    1        0.621039   1.000000
    2        2.896127   1.000000
    3        3.650268   1.000000
    4        3.767606   1.000000
    5        3.840662   1.000000
    6        3.978624   1.000000
    7        4.078105   1.000000
    8        6.143004   1.000000
    9        6.361753   1.000000
   10        6.370847   1.000000
   11        7.256753   1.000000
   12        7.593981   1.000000
   13        7.594084   1.000000
   14        7.752788   1.000000
   15        8.247494   1.000000
   16        8.737300   1.002619
   17        9.004745   1.021773
   18        9.172537   0.610155
   19        9.215581   0.429352
   20        9.280210   0.185194
   21        9.460372  -0.034512
   22        9.701529  -0.001090
   23       13.292556  -0.000000
   24       13.410841  -0.000000
   25       17.428842   0.000000
   26       18.666427   0.000000
   27       20.330678   0.000000
   28       20.392053   0.000000
   29       20.592115   0.000000
   30       21.281355   0.000000
 
  0.0000000E+00  0.0000000E+00  0.2000000E+00  0.1600000E-01
    1        0.622791   1.000000
    2        2.908702   1.000000
    3        3.803856   1.000000
    4        3.849747   1.000000
    5        3.889869   1.000000
    6        3.890828   1.000000
    7        3.904121   1.000000
    8        5.956447   1.000000
    9        6.332316   1.000000
   10        6.500660   1.000000
   11        7.263980   1.000000
   12        7.559900   1.000000
   13        7.562085   1.000000
   14        7.934727   1.000000
   15        8.056837   1.000000
   16        8.489960   1.000003
   17        8.825945   1.012082
   18        9.117304   0.815206
   19        9.155168   0.679918
   20        9.295404   0.139426
   21        9.732144  -0.000533
   22       10.216760  -0.000000
   23       13.262924  -0.000000
   24       13.376420  -0.000000
   25       17.115525   0.000000
   26       18.873303   0.000000
   27       20.421050   0.000000
   28       20.444772   0.000000
   29       20.711899   0.000000
   30       21.203099   0.000000
 
  0.4000000E+00  0.0000000E+00  0.0000000E+00  0.1600000E-01
    1        1.676098   1.000000
    2        3.499513   1.000000
    3        3.799925   1.000000
    4        4.048090   1.000000
    5        4.701542   1.000000
    6        4.740984   1.000000
    7        4.826896   1.000000
    8        5.497275   1.000000
    9        6.025146   1.000000
   10        6.127030   1.000000
   11        6.847796   1.000000
   12        6.917098   1.000000
   13        6.952355   1.000000
   14        7.146171   1.000000
   15        7.310554   1.000000
   16        7.530030   1.000000
   17        8.168429   1.000000
   18        8.210336   1.000000
   19        8.240145   1.000000
   20        8.544179   1.000019
   21        9.332414   0.051809
   22       10.806972  -0.000000
   23       15.725554   0.000000
   24       15.800884   0.000000
   25       17.061772   0.000000
   26       18.019466   0.000000
   27       18.618509   0.000000
   28       18.740147   0.000000
   29       19.140543   0.000000
   30       21.826953   0.000000
 
  0.0000000E+00  0.4000000E+00  0.0000000E+00  0.1600000E-01
    1        1.994149   1.000000
    2        3.296283   1.000000
    3        3.767094   1.000000
    4        4.096557   1.000000
    5        4.634047   1.000000
    6        4.685016   1.000000
    7        4.958663   1.000000
    8        5.726887   1.000000
    9        6.336543   1.000000
   10        6.359673   1.000000
   11        6.809047   1.000000
   12        6.876489   1.000000
   13        6.900703   1.000000
   14        7.075401   1.000000
   15        7.527040   1.000000
   16        7.870854   1.000000
   17        7.878726   1.000000
   18        8.062150   1.000000
   19        8.173057   1.000000
   20        8.421635   1.000000
   21        9.109408   0.839652
   22        9.439907  -0.035399
   23       15.921764   0.000000
   24       15.967459   0.000000
   25       16.691115   0.000000
   26       18.477295   0.000000
   27       18.489772   0.000000
   28       18.630084   0.000000
   29       20.469924   0.000000
   30       20.738793   0.000000
 
  0.0000000E+00  0.0000000E+00  0.4000000E+00  0.1600000E-01
    1        2.010221   1.000000
    2        3.293553   1.000000
    3        3.977793   1.000000
    4        4.337187   1.000000
    5        4.631377   1.000000
    6        4.722927   1.000000
    7        4.737242   1.000000
    8        5.400581   1.000000
    9        6.020984   1.000000
   10        6.138525   1.000000
   11        6.820029   1.000000
   12        6.965534   1.000000
   13        6.966194   1.000000
   14        7.100127   1.000000
   15        7.362583   1.000000
   16        7.666694   1.000000
   17        8.015532   1.000000
   18        8.043348   1.000000
   19        8.415932   1.000000
   20        8.458604   1.000001
   21        8.916936   1.031423
   22       10.194655  -0.000000
   23       15.895966   0.000000
   24       16.021893   0.000000
   25       16.248539   0.000000
   26       18.450202   0.000000
   27       18.723608   0.000000
   28       18.980817   0.000000
   29       20.060570   0.000000
   30       21.097471   0.000000
 
  0.2000000E+00  0.2000000E+00  0.0000000E+00  0.3200000E-01
    1        1.065460   1.000000
    2        3.187466   1.000000
    3        3.926354   1.000000
    4        3.926836   1.000000
    5        4.099585   1.000000
    6        4.100047   1.000000
    7        4.391150   1.000000
    8        5.908852   1.000000
    9        6.387852   1.000000
   10        6.525652   1.000000
   11        7.048248   1.000000
   12        7.241914   1.000000
   13        7.265975   1.000000
   14        7.326199   1.000000
   15        7.784607   1.000000
   16        7.974218   1.000000
   17        8.331085   1.000000
   18        8.900055   1.027926
   19        8.956517   1.035430
   20        9.050752   0.973171
   21        9.723858  -0.000650
   22       10.890381  -0.000000
   23       11.881926  -0.000000
   24       14.556429  -0.000000
   25       16.963816   0.000000
   26       19.018642   0.000000
   27       20.044925   0.000000
   28       20.414560   0.000000
   29       21.052888   0.000000
   30       21.687566   0.000000
 
  0.0000000E+00  0.2000000E+00  0.2000000E+00  0.3200000E-01
    1        1.092045   1.000000
    2        3.221117   1.000000
    3        3.908998   1.000000
    4        3.973124   1.000000
    5        4.039312   1.000000
    6        4.210750   1.000000
    7        4.336532   1.000000
    8        5.895225   1.000000
    9        6.385471   1.000000
   10        6.530484   1.000000
   11        7.067483   1.000000
   12        7.218974   1.000000
   13        7.285253   1.000000
   14        7.310722   1.000000
   15        7.743562   1.000000
   16        8.075850   1.000000
   17        8.433380   1.000000
   18        8.704916   1.001325
   19        8.908045   1.029650
   20        8.916215   1.031286
   21        9.550658  -0.016048
   22       10.928057  -0.000000
   23       12.245589  -0.000000
   24       14.459041  -0.000000
   25       16.822905   0.000000
   26       19.071676   0.000000
   27       19.530414   0.000000
   28       20.941833   0.000000
   29       21.211108   0.000000
   30       21.922171   0.000000
 
  0.2000000E+00  0.0000000E+00  0.2000000E+00  0.3200000E-01
    1        1.065413   1.000000
    2        3.203485   1.000000
    3        3.927685   1.000000
    4        3.946673   1.000000
    5        4.067898   1.000000
    6        4.218268   1.000000
    7        4.323964   1.000000
    8        5.767459   1.000000
    9        6.448779   1.000000
   10        6.556072   1.000000
   11        7.012994   1.000000
   12        7.224168   1.000000
   13        7.229276   1.000000
   14        7.287140   1.000000
   15        7.782664   1.000000
   16        7.833616   1.000000
   17        8.197395   1.000000
   18        8.992444   1.028127
   19        9.055569   0.965419
   20        9.252624   0.281212
   21        9.844011  -0.000025
   22       11.137550  -0.000000
   23       11.544471  -0.000000
   24       14.549837  -0.000000
   25       16.930702   0.000000
   26       18.948311   0.000000
   27       19.990569   0.000000
   28       20.537457   0.000000
   29       21.124875   0.000000
   30       21.825726   0.000000
 
  0.4000000E+00  0.2000000E+00  0.0000000E+00  0.3200000E-01
    1        2.140932   1.000000
    2        3.775320   1.000000
    3        4.122679   1.000000
    4        4.287747   1.000000
    5        4.670266   1.000000
    6        4.831651   1.000000
    7        5.022488   1.000000
    8        5.459578   1.000000
    9        5.666065   1.000000
   10        6.085034   1.000000
   11        6.344675   1.000000
   12        6.472996   1.000000
   13        6.919892   1.000000
   14        7.172447   1.000000
   15        7.310057   1.000000
   16        7.656267   1.000000
   17        7.832719   1.000000
   18        8.400070   1.000000
   19        8.442339   1.000001
   20        8.937540   1.034541
   21        9.548734  -0.016443
   22        9.813483  -0.000062
   23       13.126762  -0.000000
   24       15.198045   0.000000
   25       16.924207   0.000000
   26       18.087765   0.000000
   27       19.567912   0.000000
   28       19.820573   0.000000
   29       21.836439   0.000000
   30       23.081268   0.000000
 
  0.0000000E+00  0.4000000E+00  0.2000000E+00  0.3200000E-01
    1        2.346800   1.000000
    2        3.637007   1.000000
    3        4.019500   1.000000
    4        4.291654   1.000000
    5        4.589574   1.000000
    6        4.805318   1.000000
    7        5.159179   1.000000
    8        5.633455   1.000000
    9        5.782911   1.000000
   10        6.262250   1.000000
   11        6.326232   1.000000
   12        6.489719   1.000000
   13        6.918116   1.000000
   14        7.133165   1.000000
   15        7.600630   1.000000
   16        7.684709   1.000000
   17        7.755650   1.000000
   18        8.173664   1.000000
   19        8.374715   1.000000
   20        8.941742   1.034937
   21        9.064461   0.949638
   22        9.370525  -0.003542
   23       13.602085  -0.000000
   24       15.153179   0.000000
   25       16.794645   0.000000
   26       18.369337   0.000000
   27       19.389297   0.000000
   28       19.574501   0.000000
   29       21.682173   0.000000
   30       23.309769   0.000000
 
  0.2000000E+00  0.0000000E+00  0.4000000E+00  0.3200000E-01
    1        2.384430   1.000000
    2        3.645065   1.000000
    3        4.239138   1.000000
    4        4.430701   1.000000
    5        4.625651   1.000000
    6        4.951169   1.000000
    7        4.956784   1.000000
    8        5.283805   1.000000
    9        5.559607   1.000000
   10        6.144364   1.000000
   11        6.410130   1.000000
   12        6.504732   1.000000
   13        6.946962   1.000000
   14        7.184605   1.000000
   15        7.337240   1.000000
   16        7.667640   1.000000
   17        7.972992   1.000000
   18        8.270625   1.000000
   19        8.455146   1.000001
   20        8.685344   1.000852
   21        9.273370   0.207535
   22        9.446189  -0.035436
   23       13.464899  -0.000000
   24       15.196019   0.000000
   25       16.847063   0.000000
   26       17.958146   0.000000
   27       19.377126   0.000000
   28       20.133837   0.000000
   29       21.951972   0.000000
   30       22.964877   0.000000
 
 -0.2000000E+00  0.4000000E+00  0.0000000E+00  0.3200000E-01
    1        2.381590   1.000000
    2        3.624779   1.000000
    3        4.068280   1.000000
    4        4.305414   1.000000
    5        4.609074   1.000000
    6        4.768137   1.000000
    7        5.143737   1.000000
    8        5.637710   1.000000
    9        5.957110   1.000000
   10        6.245420   1.000000
   11        6.246644   1.000000
   12        6.470820   1.000000
   13        6.914914   1.000000
   14        7.168191   1.000000
   15        7.509218   1.000000
   16        7.709702   1.000000
   17        7.788234   1.000000
   18        8.192092   1.000000
   19        8.448022   1.000001
   20        8.849954   1.016660
   21        8.962884   1.035125
   22        9.227885   0.378444
   23       13.516057  -0.000000
   24       15.187276   0.000000
   25       16.845180   0.000000
   26       18.334052   0.000000
   27       19.361252   0.000000
   28       19.754272   0.000000
   29       21.993861   0.000000
   30       22.994396   0.000000
 
 -0.4000000E+00  0.0000000E+00  0.2000000E+00  0.3200000E-01
    1        2.136849   1.000000
    2        3.813077   1.000000
    3        4.081787   1.000000
    4        4.256403   1.000000
    5        4.618840   1.000000
    6        4.878247   1.000000
    7        5.071873   1.000000
    8        5.407662   1.000000
    9        5.577436   1.000000
   10        6.149249   1.000000
   11        6.415435   1.000000
   12        6.517114   1.000000
   13        6.928922   1.000000
   14        7.181488   1.000000
   15        7.274998   1.000000
   16        7.644301   1.000000
   17        8.049940   1.000000
   18        8.149400   1.000000
   19        8.537616   1.000015
   20        8.964492   1.034991
   21        9.514275  -0.024118
   22        9.766647  -0.000223
   23       13.105500  -0.000000
   24       15.262030   0.000000
   25       16.877400   0.000000
   26       18.052916   0.000000
   27       19.471756   0.000000
   28       19.756819   0.000000
   29       21.946610   0.000000
   30       22.965608   0.000000
 
  0.0000000E+00  0.2000000E+00  0.4000000E+00  0.3200000E-01
    1        2.355532   1.000000
    2        3.618680   1.000000
    3        4.242476   1.000000
    4        4.464635   1.000000
    5        4.641021   1.000000
    6        4.907613   1.000000
    7        4.927083   1.000000
    8        5.350203   1.000000
    9        5.551034   1.000000
   10        6.088920   1.000000
   11        6.320557   1.000000
   12        6.500215   1.000000
   13        6.952485   1.000000
   14        7.136008   1.000000
   15        7.431909   1.000000
   16        7.688386   1.000000
   17        7.754648   1.000000
   18        8.301330   1.000000
   19        8.602801   1.000104
   20        8.625130   1.000191
   21        9.463705  -0.034126
   22        9.566094  -0.013073
   23       13.561782  -0.000000
   24       15.096359   0.000000
   25       16.850594   0.000000
   26       18.013172   0.000000
   27       19.494463   0.000000
   28       20.016416   0.000000
   29       21.560539   0.000000
   30       23.417473   0.000000
 
  0.4000000E+00  0.4000000E+00  0.0000000E+00  0.3200000E-01
    1        3.286385   1.000000
    2        4.205423   1.000000
    3        4.468885   1.000000
    4        4.796133   1.000000
    5        4.870664   1.000000
    6        5.085356   1.000000
    7        5.201015   1.000000
    8        5.321591   1.000000
    9        5.369268   1.000000
   10        5.860271   1.000000
   11        5.997341   1.000000
   12        6.265773   1.000000
   13        6.897952   1.000000
   14        7.077849   1.000000
   15        7.088890   1.000000
   16        7.320247   1.000000
   17        7.511749   1.000000
   18        8.098319   1.000000
   19        8.405141   1.000000
   20        8.437320   1.000001
   21        9.143906   0.722931
   22       10.138720  -0.000000
   23       11.625117  -0.000000
   24       12.966592  -0.000000
   25       18.828807   0.000000
   26       18.963261   0.000000
   27       20.502131   0.000000
   28       21.195767   0.000000
   29       21.236049   0.000000
   30       21.677356   0.000000
 
  0.0000000E+00  0.4000000E+00  0.4000000E+00  0.3200000E-01
    1        3.181800   1.000000
    2        3.983690   1.000000
    3        4.372941   1.000000
    4        4.760217   1.000000
    5        4.974036   1.000000
    6        5.109348   1.000000
    7        5.129507   1.000000
    8        5.400170   1.000000
    9        5.418136   1.000000
   10        5.875662   1.000000
   11        6.089374   1.000000
   12        6.265501   1.000000
   13        6.899144   1.000000
   14        7.056101   1.000000
   15        7.146634   1.000000
   16        7.213658   1.000000
   17        7.412538   1.000000
   18        8.045331   1.000000
   19        8.630702   1.000221
   20        8.683934   1.000825
   21        9.212082   0.444016
   22        9.970797  -0.000000
   23       12.189080  -0.000000
   24       13.025595  -0.000000
   25       18.570316   0.000000
   26       18.696958   0.000000
   27       20.388842   0.000000
   28       20.519094   0.000000
   29       21.071231   0.000000
   30       22.135610   0.000000
 
  0.4000000E+00  0.0000000E+00  0.4000000E+00  0.3200000E-01
    1        3.254084   1.000000
    2        4.352760   1.000000
    3        4.431552   1.000000
    4        4.668279   1.000000
    5        4.757632   1.000000
    6        4.991028   1.000000
    7        5.047449   1.000000
    8        5.257116   1.000000
    9        5.576153   1.000000
   10        6.016075   1.000000
   11        6.148234   1.000000
   12        6.374701   1.000000
   13        6.848976   1.000000
   14        7.079509   1.000000
   15        7.079673   1.000000
   16        7.330690   1.000000
   17        7.809457   1.000000
   18        7.955105   1.000000
   19        8.205612   1.000000
   20        8.301285   1.000000
   21        9.339633   0.038715
   22       10.534515  -0.000000
   23       11.169664  -0.000000
   24       12.852989  -0.000000
   25       18.738971   0.000000
   26       18.922378   0.000000
   27       20.705707   0.000000
   28       21.025569   0.000000
   29       21.430158   0.000000
   30       21.496733   0.000000
 
  0.2000000E+00  0.2000000E+00  0.2000000E+00  0.6400000E-01
    1        1.479055   1.000000
    2        3.424551   1.000000
    3        3.992294   1.000000
    4        4.129094   1.000000
    5        4.188267   1.000000
    6        4.564981   1.000000
    7        4.691930   1.000000
    8        5.723533   1.000000
    9        6.442550   1.000000
   10        6.541101   1.000000
   11        6.655801   1.000000
   12        6.855340   1.000000
   13        7.037489   1.000000
   14        7.280224   1.000000
   15        7.397281   1.000000
   16        7.606905   1.000000
   17        8.312909   1.000000
   18        8.383474   1.000000
   19        8.534667   1.000014
   20        9.089083   0.895657
   21        9.826283  -0.000042
   22       11.832188  -0.000000
   23       12.504598  -0.000000
   24       12.720985  -0.000000
   25       17.671498   0.000000
   26       17.904579   0.000000
   27       18.616290   0.000000
   28       21.123422   0.000000
   29       21.536994   0.000000
   30       21.710650   0.000000
 
  0.4000000E+00  0.2000000E+00  0.2000000E+00  0.6400000E-01
    1        2.392935   1.000000
    2        3.732822   1.000000
    3        4.212788   1.000000
    4        4.548301   1.000000
    5        4.562180   1.000000
    6        4.840632   1.000000
    7        5.346288   1.000000
    8        5.538772   1.000000
    9        5.800676   1.000000
   10        6.010172   1.000000
   11        6.368816   1.000000
   12        6.480824   1.000000
   13        6.685014   1.000000
   14        7.023121   1.000000
   15        7.094490   1.000000
   16        7.557924   1.000000
   17        8.097120   1.000000
   18        8.199925   1.000000
   19        8.638835   1.000274
   20        9.018298   1.011846
   21        9.513530  -0.024290
   22        9.789224  -0.000122
   23       13.812933  -0.000000
   24       13.829637  -0.000000
   25       15.534313   0.000000
   26       16.290766   0.000000
   27       20.117635   0.000000
   28       21.520150   0.000000
   29       22.102389   0.000000
   30       22.363666   0.000000
 
  0.2000000E+00  0.4000000E+00  0.2000000E+00  0.6400000E-01
    1        2.563630   1.000000
    2        3.629807   1.000000
    3        4.020849   1.000000
    4        4.506678   1.000000
    5        4.680115   1.000000
    6        4.874174   1.000000
    7        5.539511   1.000000
    8        5.609126   1.000000
    9        5.788085   1.000000
   10        6.098644   1.000000
   11        6.463547   1.000000
   12        6.501769   1.000000
   13        6.602894   1.000000
   14        7.018526   1.000000
   15        7.174210   1.000000
   16        7.271550   1.000000
   17        8.178181   1.000000
   18        8.248021   1.000000
   19        8.429909   1.000000
   20        8.931783   1.033848
   21        9.363427   0.004292
   22        9.656959  -0.002801
   23       13.817585  -0.000000
   24       14.053351  -0.000000
   25       15.595695   0.000000
   26       16.146072   0.000000
   27       20.200693   0.000000
   28       21.588266   0.000000
   29       22.237005   0.000000
   30       22.402974   0.000000
 
  0.2000000E+00  0.2000000E+00  0.4000000E+00  0.6400000E-01
    1        2.568192   1.000000
    2        3.629132   1.000000
    3        4.169173   1.000000
    4        4.505156   1.000000
    5        4.686517   1.000000
    6        5.052000   1.000000
    7        5.194339   1.000000
    8        5.524397   1.000000
    9        5.749033   1.000000
   10        5.984367   1.000000
   11        6.364673   1.000000
   12        6.483368   1.000000
   13        6.691896   1.000000
   14        7.043824   1.000000
   15        7.136789   1.000000
   16        7.426317   1.000000
   17        8.195328   1.000000
   18        8.203138   1.000000
   19        8.557376   1.000028
   20        8.874069   1.021971
   21        9.447702  -0.035400
   22        9.736832  -0.000475
   23       13.822636  -0.000000
   24       13.993761  -0.000000
   25       15.578981   0.000000
   26       16.236119   0.000000
   27       20.108807   0.000000
   28       21.365542   0.000000
   29       22.197986   0.000000
   30       22.468257   0.000000
 
  0.4000000E+00  0.4000000E+00  0.2000000E+00  0.6400000E-01
    1        3.043995   1.000000
    2        3.556618   1.000000
    3        3.877494   1.000000
    4        4.264060   1.000000
    5        5.186740   1.000000
    6        5.482261   1.000000
    7        5.724192   1.000000
    8        5.908891   1.000000
    9        6.071566   1.000000
   10        6.122596   1.000000
   11        6.334403   1.000000
   12        6.502106   1.000000
   13        6.604699   1.000000
   14        6.723956   1.000000
   15        6.874854   1.000000
   16        6.951779   1.000000
   17        7.918457   1.000000
   18        8.358710   1.000000
   19        8.754498   1.003664
   20        9.083554   0.909109
   21        9.223400   0.396859
   22       10.263298  -0.000000
   23       11.508646  -0.000000
   24       12.721622  -0.000000
   25       15.813331   0.000000
   26       17.487500   0.000000
   27       17.910442   0.000000
   28       19.895874   0.000000
   29       22.785231   0.000000
   30       24.568305   0.000000
 
  0.2000000E+00  0.4000000E+00  0.4000000E+00  0.6400000E-01
    1        3.029189   1.000000
    2        3.590409   1.000000
    3        3.649818   1.000000
    4        4.274230   1.000000
    5        5.190015   1.000000
    6        5.485429   1.000000
    7        5.711882   1.000000
    8        5.959078   1.000000
    9        6.082008   1.000000
   10        6.118921   1.000000
   11        6.325876   1.000000
   12        6.511366   1.000000
   13        6.613070   1.000000
   14        6.725407   1.000000
   15        6.872637   1.000000
   16        6.938112   1.000000
   17        7.960720   1.000000
   18        8.387023   1.000000
   19        8.882922   1.024015
   20        9.069680   0.939468
   21        9.201542   0.488482
   22       10.145044  -0.000000
   23       11.990901  -0.000000
   24       12.906844  -0.000000
   25       15.552741   0.000000
   26       17.060863   0.000000
   27       17.949328   0.000000
   28       19.866765   0.000000
   29       22.873925   0.000000
   30       24.415088   0.000000
 
  0.4000000E+00  0.2000000E+00  0.4000000E+00  0.6400000E-01
    1        3.037658   1.000000
    2        3.587109   1.000000
    3        3.915153   1.000000
    4        4.103139   1.000000
    5        5.157945   1.000000
    6        5.381542   1.000000
    7        5.695467   1.000000
    8        6.071938   1.000000
    9        6.183243   1.000000
   10        6.219169   1.000000
   11        6.432537   1.000000
   12        6.449562   1.000000
   13        6.606117   1.000000
   14        6.776024   1.000000
   15        6.818564   1.000000
   16        6.890043   1.000000
   17        8.078878   1.000000
   18        8.118246   1.000000
   19        8.578625   1.000053
   20        9.215545   0.429501
   21        9.350716   0.021057
   22       10.629112  -0.000000
   23       11.058701  -0.000000
   24       12.657553  -0.000000
   25       15.787506   0.000000
   26       17.528127   0.000000
   27       17.897529   0.000000
   28       19.956624   0.000000
   29       22.648839   0.000000
   30       24.640847   0.000000
 
  0.4000000E+00  0.4000000E+00  0.4000000E+00  0.6400000E-01
    1        2.914761   1.000000
    2        3.042022   1.000000
    3        3.279546   1.000000
    4        3.655891   1.000000
    5        5.614740   1.000000
    6        5.728309   1.000000
    7        5.824835   1.000000
    8        6.097796   1.000000
    9        6.179367   1.000000
   10        6.417883   1.000000
   11        6.424020   1.000000
   12        6.618260   1.000000
   13        7.280838   1.000000
   14        7.342841   1.000000
   15        7.509992   1.000000
   16        7.844190   1.000000
   17        8.255415   1.000000
   18        8.680753   1.000766
   19        8.750305   1.003382
   20        9.165163   0.640202
   21        9.704514  -0.001019
   22       10.483541  -0.000000
   23       10.883546  -0.000000
   24       11.110479  -0.000000
   25       14.980301   0.000000
   26       15.389844   0.000000
   27       16.195787   0.000000
   28       17.706180   0.000000
   29       25.291797   0.000000
   30       25.387203   0.000000
