       N       E                     dE             d eps       ncg     rms          rms(c)
DAV:   1    -0.231671797333E+02   -0.23167E+02   -0.59077E-03  2114   0.747E-01    0.131E-01
DAV:   2    -0.231402398429E+02    0.26940E-01   -0.92620E-03  2064   0.113E+00    0.219E-01
DAV:   3    -0.231395795243E+02    0.66032E-03   -0.12826E-03  2204   0.810E-01    0.489E-02
DAV:   4    -0.231395768967E+02    0.26277E-05   -0.83021E-05  2396   0.139E-01    0.409E-02
DAV:   5    -0.231395708471E+02    0.60495E-05   -0.12404E-05  2058   0.903E-02    0.297E-02
DAV:   6    -0.231395708610E+02   -0.13872E-07   -0.10549E-06   998   0.155E-02
   1 F= -.23139571E+02 E0= -.23137492E+02  d E =-.623757E-02
