 vasp.6.2.0 18Jan21 (build Mar 17 2021 09:06:54) complex                        
  
 executed on             LinuxIFC date 2021.06.11  11:56:38
 serial version


--------------------------------------------------------------------------------------------------------


 INCAR:
   ENCUT = 230.000000
   SIGMA = 0.200000
   EDIFF = 1.00e-06
   GGA = PE
   PREC = normal
   IBRION = -1
   ICHARG = 1
   ISMEAR = 1
   KPAR = 1
   NBANDS = 30
   NSW = 0
   NCORE = 1
   LCHARG = .TRUE.

 POTCAR:    PAW_PBE Pd 04Jan2005                  
 POTCAR:    PAW_PBE Ir 06Sep2000                  
 POTCAR:    PAW_PBE Pt 04Feb2005                  
 POTCAR:    PAW_PBE Cu 22Jun2005                  
 POTCAR:    PAW_PBE Pd 04Jan2005                  
   SHA256 =  dd6f6f02930356371984e2b707ff5e456046761dc76b07c1eba30abd15eb3c39 Pd/POTCAR             
   COPYR  = (c) Copyright 04Jan2005 Georg Kresse                                                    
   COPYR  = This file is part of the software VASP. Any use, copying, and all other rights are regul
   COPYR  = If you do not have a valid VASP license, you may not use, copy or distribute this file. 
   VRHFIN =Pd : s1 d9                                                                               
   LEXCH  = PE                                                                                      
   EATOM  =   809.7530 eV,   59.5152 Ry                                                             
                                                                                                    
   TITEL  = PAW_PBE Pd 04Jan2005                                                                    
   LULTRA =        F    use ultrasoft PP ?                                                          
   IUNSCR =        1    unscreen: 0-lin 1-nonlin 2-no                                               
   RPACOR =    2.000    partial core radius                                                         
   POMASS =  106.420; ZVAL   =   10.000    mass and valenz                                          
   RCORE  =    2.600    outmost cutoff radius                                                       
   RWIGS  =    2.710; RWIGS  =    1.434    wigner-seitz radius (au A)                               
   ENMAX  =  250.925; ENMIN  =  188.194 eV                                                          
   ICORE  =        3    local potential                                                             
   LCOR   =        T    correct aug charges                                                         
   LPAW   =        T    paw PP                                                                      
   EAUG   =  416.230                                                                                
   DEXC   =    0.000                                                                                
   RMAX   =    2.653    core radius for proj-oper                                                   
   RAUG   =    1.300    factor for augmentation sphere                                              
   RDEP   =    2.734    radius for radial grids                                                     
   RDEPT  =    2.103    core radius for aug-charge                                                  
                                                                                                    
   Atomic configuration                                                                             
   12 entries                                                                                       
     n  l   j            E        occ.                                                              
     1  0  0.50    -24164.6631   2.0000                                                             
     2  0  0.50     -3530.9218   2.0000                                                             
     2  1  1.50     -3165.6822   6.0000                                                             
     3  0  0.50      -639.4577   2.0000                                                             
     3  1  1.50      -519.4532   6.0000                                                             
     3  2  2.50      -328.9757  10.0000                                                             
     4  0  0.50       -88.7014   2.0000                                                             
     4  1  1.50       -54.4540   6.0000                                                             
     4  2  2.50        -6.6878   9.0000                                                             
     5  0  0.50        -4.3543   1.0000                                                             
     5  1  0.50        -1.3606   0.0000                                                             
     4  3  2.50        -1.3606   0.0000                                                             
   Description                                                                                      
     l       E           TYP  RCUT    TYP  RCUT                                                     
     2     -6.6878251     23  2.400                                                                 
     2     -8.0484077     23  2.400                                                                 
     0     -4.3542939     23  2.400                                                                 
     0      4.3406793     23  2.400                                                                 
     1     -4.0817478     23  2.600                                                                 
     1     15.8380318     23  2.600                                                                 
     3     -4.0817478     23  2.400                                                                 
  local pseudopotential read in
  partial core-charges read in
  partial kinetic energy density read in
  atomic valenz-charges read in
  non local Contribution for L=           2  read in
    real space projection operators read in
  non local Contribution for L=           2  read in
    real space projection operators read in
  non local Contribution for L=           0  read in
    real space projection operators read in
  non local Contribution for L=           0  read in
    real space projection operators read in
  non local Contribution for L=           1  read in
    real space projection operators read in
  non local Contribution for L=           1  read in
    real space projection operators read in
    PAW grid and wavefunctions read in
 
   number of l-projection  operators is LMAX  =           6
   number of lm-projection operators is LMMAX =          18
 
 POTCAR:    PAW_PBE Ir 06Sep2000                  
   SHA256 =  7c6af8d4d487b237782eb51e6f62977b27a1da78c3c96acd1cebefd6c308f120 Ir/POTCAR             
   COPYR  = (c) Copyright 06Sep2000 Georg Kresse                                                    
   COPYR  = This file is part of the software VASP. Any use, copying, and all other rights are regul
   COPYR  = If you do not have a valid VASP license, you may not use, copy or distribute this file. 
   VRHFIN =Ir: s1d8                                                                                 
   LEXCH  = PE                                                                                      
   EATOM  =   560.1833 eV,   41.1723 Ry                                                             
                                                                                                    
   TITEL  = PAW_PBE Ir 06Sep2000                                                                    
   LULTRA =        F    use ultrasoft PP ?                                                          
   IUNSCR =        1    unscreen: 0-lin 1-nonlin 2-no                                               
   RPACOR =    2.250    partial core radius                                                         
   POMASS =  192.220; ZVAL   =    9.000    mass and valenz                                          
   RCORE  =    2.600    outmost cutoff radius                                                       
   RWIGS  =    2.690; RWIGS  =    1.423    wigner-seitz radius (au A)                               
   ENMAX  =  210.864; ENMIN  =  158.148 eV                                                          
   RCLOC  =    1.857    cutoff for local pot                                                        
   LCOR   =        T    correct aug charges                                                         
   LPAW   =        T    paw PP                                                                      
   EAUG   =  318.962                                                                                
   DEXC   =    0.000                                                                                
   RMAX   =    2.667    core radius for proj-oper                                                   
   RAUG   =    1.300    factor for augmentation sphere                                              
   RDEP   =    2.748    radius for radial grids                                                     
   RDEPT  =    2.300    core radius for aug-charge                                                  
                                                                                                    
   Atomic configuration                                                                             
   16 entries                                                                                       
     n  l   j            E        occ.                                                              
     1  0  0.50    -76100.0449   2.0000                                                             
     2  0  0.50    -13308.1683   2.0000                                                             
     2  1  1.50    -11558.0021   6.0000                                                             
     3  0  0.50     -3110.7274   2.0000                                                             
     3  1  1.50     -2599.2109   6.0000                                                             
     3  2  2.50     -2037.1515  10.0000                                                             
     4  0  0.50      -661.6001   2.0000                                                             
     4  1  1.50      -493.8981   6.0000                                                             
     4  2  2.50      -288.1909  10.0000                                                             
     4  3  3.50       -59.5718  14.0000                                                             
     5  0  0.50       -95.3879   2.0000                                                             
     5  1  1.50       -52.2747   6.0000                                                             
     5  2  2.50        -5.4180   8.0000                                                             
     6  0  0.50        -5.5479   1.0000                                                             
     6  1  1.50        -6.8029   0.0000                                                             
     5  3  2.50        -1.3606   0.0000                                                             
   Description                                                                                      
     l       E           TYP  RCUT    TYP  RCUT                                                     
     2     -5.4179967     23  2.600                                                                 
     2     -6.7785793     23  2.600                                                                 
     0     -5.5478636     23  2.600                                                                 
     0      2.2542272     23  2.600                                                                 
     1     -2.7211652     23  2.600                                                                 
     1     20.4087390     23  2.600                                                                 
  local pseudopotential read in
  partial core-charges read in
  partial kinetic energy density read in
  atomic valenz-charges read in
  non local Contribution for L=           2  read in
    real space projection operators read in
  non local Contribution for L=           2  read in
    real space projection operators read in
  non local Contribution for L=           0  read in
    real space projection operators read in
  non local Contribution for L=           0  read in
    real space projection operators read in
  non local Contribution for L=           1  read in
    real space projection operators read in
  non local Contribution for L=           1  read in
    real space projection operators read in
    PAW grid and wavefunctions read in
 
   number of l-projection  operators is LMAX  =           6
   number of lm-projection operators is LMMAX =          18
 
 POTCAR:    PAW_PBE Pt 04Feb2005                  
   SHA256 =  3ed90460adef76debcff1cfb73ee1349b515b1a3db03439735b44de3a8db7dc8 Pt/POTCAR             
   COPYR  = (c) Copyright 04Feb2005 Georg Kresse                                                    
   COPYR  = This file is part of the software VASP. Any use, copying, and all other rights are regul
   COPYR  = If you do not have a valid VASP license, you may not use, copy or distribute this file. 
   VRHFIN =Pt: s1d9                                                                                 
   LEXCH  = PE                                                                                      
   EATOM  =   729.1176 eV,   53.5886 Ry                                                             
                                                                                                    
   TITEL  = PAW_PBE Pt 04Feb2005                                                                    
   LULTRA =        F    use ultrasoft PP ?                                                          
   IUNSCR =        1    unscreen: 0-lin 1-nonlin 2-no                                               
   RPACOR =    2.330    partial core radius                                                         
   POMASS =  195.080; ZVAL   =   10.000    mass and valenz                                          
   RCORE  =    2.600    outmost cutoff radius                                                       
   RWIGS  =    2.750; RWIGS  =    1.455    wigner-seitz radius (au A)                               
   ENMAX  =  230.283; ENMIN  =  172.712 eV                                                          
   ICORE  =        3    local potential                                                             
   LCOR   =        T    correct aug charges                                                         
   LPAW   =        T    paw PP                                                                      
   EAUG   =  358.966                                                                                
   DEXC   =    0.000                                                                                
   RMAX   =    2.658    core radius for proj-oper                                                   
   RAUG   =    1.300    factor for augmentation sphere                                              
   RDEP   =    2.761    radius for radial grids                                                     
   RDEPT  =    2.203    core radius for aug-charge                                                  
                                                                                                    
   Atomic configuration                                                                             
   16 entries                                                                                       
     n  l   j            E        occ.                                                              
     1  0  0.50    -78401.1885   2.0000                                                             
     2  0  0.50    -13770.7750   2.0000                                                             
     2  1  1.50    -11931.0468   6.0000                                                             
     3  0  0.50     -3234.7234   2.0000                                                             
     3  1  1.50     -2699.2216   6.0000                                                             
     3  2  2.50     -2119.5714  10.0000                                                             
     4  0  0.50      -695.1528   2.0000                                                             
     4  1  1.50      -519.6034   6.0000                                                             
     4  2  2.50      -306.6786  10.0000                                                             
     4  3  3.50       -70.1041  14.0000                                                             
     5  0  0.50      -101.7747   2.0000                                                             
     5  1  1.50       -55.9873   6.0000                                                             
     5  2  2.50        -6.1423   9.0000                                                             
     6  0  0.50        -5.6573   1.0000                                                             
     6  1  1.50        -6.8029   0.0000                                                             
     5  3  2.50        -1.3606   0.0000                                                             
   Description                                                                                      
     l       E           TYP  RCUT    TYP  RCUT                                                     
     2     -6.1423404     23  2.500                                                                 
     2     -7.5029230     23  2.500                                                                 
     0     -5.6573207     23  2.500                                                                 
     0      0.7416693     23  2.500                                                                 
     1     -2.7211652     23  2.600                                                                 
     1     20.4087390     23  2.600                                                                 
     3     -1.3605826     23  2.500                                                                 
  local pseudopotential read in
  partial core-charges read in
  partial kinetic energy density read in
  atomic valenz-charges read in
  non local Contribution for L=           2  read in
    real space projection operators read in
  non local Contribution for L=           2  read in
    real space projection operators read in
  non local Contribution for L=           0  read in
    real space projection operators read in
  non local Contribution for L=           0  read in
    real space projection operators read in
  non local Contribution for L=           1  read in
    real space projection operators read in
  non local Contribution for L=           1  read in
    real space projection operators read in
    PAW grid and wavefunctions read in
 
   number of l-projection  operators is LMAX  =           6
   number of lm-projection operators is LMMAX =          18
 
 POTCAR:    PAW_PBE Cu 22Jun2005                  
   SHA256 =  0e71e558f37a4e8407882b4609ceaae59938afaad9ced71dfe8490308a0ab630 Cu/POTCAR             
   COPYR  = (c) Copyright 22Jun2005 Georg Kresse                                                    
   COPYR  = This file is part of the software VASP. Any use, copying, and all other rights are regul
   COPYR  = If you do not have a valid VASP license, you may not use, copy or distribute this file. 
   VRHFIN =Cu: d10 p1                                                                               
   LEXCH  = PE                                                                                      
   EATOM  =  1390.9808 eV,  102.2342 Ry                                                             
                                                                                                    
   TITEL  = PAW_PBE Cu 22Jun2005                                                                    
   LULTRA =        F    use ultrasoft PP ?                                                          
   IUNSCR =        1    unscreen: 0-lin 1-nonlin 2-no                                               
   RPACOR =    2.000    partial core radius                                                         
   POMASS =   63.546; ZVAL   =   11.000    mass and valenz                                          
   RCORE  =    2.300    outmost cutoff radius                                                       
   RWIGS  =    2.200; RWIGS  =    1.164    wigner-seitz radius (au A)                               
   ENMAX  =  295.446; ENMIN  =  221.585 eV                                                          
   ICORE  =        3    local potential                                                             
   LCOR   =        T    correct aug charges                                                         
   LPAW   =        T    paw PP                                                                      
   EAUG   =  586.980                                                                                
   DEXC   =    0.000                                                                                
   RMAX   =    2.344    core radius for proj-oper                                                   
   RAUG   =    1.300    factor for augmentation sphere                                              
   RDEP   =    2.302    radius for radial grids                                                     
   RDEPT  =    1.771    core radius for aug-charge                                                  
                                                                                                    
   Atomic configuration                                                                             
    9 entries                                                                                       
     n  l   j            E        occ.                                                              
     1  0  0.50     -8850.2468   2.0000                                                             
     2  0  0.50     -1062.3498   2.0000                                                             
     2  1  1.50      -916.8226   6.0000                                                             
     3  0  0.50      -114.6929   2.0000                                                             
     3  1  1.50       -72.1325   6.0000                                                             
     3  2  2.50        -5.0394  10.0000                                                             
     4  0  0.50        -4.6097   1.0000                                                             
     4  1  0.50        -4.0817   0.0000                                                             
     4  3  2.50        -1.3606   0.0000                                                             
   Description                                                                                      
     l       E           TYP  RCUT    TYP  RCUT                                                     
     2     -5.0393973     23  2.200                                                                 
     2     10.8846608     23  2.200                                                                 
     0     -4.6097109     23  2.200                                                                 
     0      8.2520465     23  2.200                                                                 
     1     -2.7211652     23  2.200                                                                 
     1     21.7055443     23  2.200                                                                 
     3      2.7211652     23  2.300                                                                 
  local pseudopotential read in
  partial core-charges read in
  partial kinetic energy density read in
  atomic valenz-charges read in
  non local Contribution for L=           2  read in
    real space projection operators read in
  non local Contribution for L=           2  read in
    real space projection operators read in
  non local Contribution for L=           0  read in
    real space projection operators read in
  non local Contribution for L=           0  read in
    real space projection operators read in
  non local Contribution for L=           1  read in
    real space projection operators read in
  non local Contribution for L=           1  read in
    real space projection operators read in
    PAW grid and wavefunctions read in
 
   number of l-projection  operators is LMAX  =           6
   number of lm-projection operators is LMMAX =          18
 
  PAW_PBE Pd 04Jan2005                  :
 energy of atom  1       EATOM= -809.7530
 kinetic energy error for atom=    0.1359 (will be added to EATOM!!)
  PAW_PBE Ir 06Sep2000                  :
 energy of atom  2       EATOM= -560.1833
 kinetic energy error for atom=    0.0423 (will be added to EATOM!!)
  PAW_PBE Pt 04Feb2005                  :
 energy of atom  3       EATOM= -729.1176
 kinetic energy error for atom=    0.0649 (will be added to EATOM!!)
  PAW_PBE Cu 22Jun2005                  :
 energy of atom  4       EATOM=-1390.9808
 kinetic energy error for atom=    0.5929 (will be added to EATOM!!)
 
 
 POSCAR: Pd Ir Pt Cu
  positions in cartesian coordinates
  No initial velocities read in
 exchange correlation table for  LEXCH =        8
   RHO(1)=    0.500       N(1)  =     2000
   RHO(2)=  100.500       N(2)  =     4000
 


--------------------------------------------------------------------------------------------------------


 ion  position               nearest neighbor table
   1  0.000  0.000  0.000-   2 2.73   3 2.73   4 2.73   3 2.73   4 2.73   2 2.73   4 2.73   4 2.73
                             2 2.73   3 2.73   3 2.73   2 2.73
   2  0.500  0.500  0.000-   1 2.73   3 2.73   4 2.73   3 2.73   4 2.73   1 2.73   3 2.73   3 2.73
                             1 2.73   4 2.73   4 2.73   1 2.73
   3  0.500  0.000  0.500-   1 2.73   2 2.73   4 2.73   1 2.73   2 2.73   2 2.73   4 2.73   2 2.73
                             1 2.73   4 2.73   1 2.73   4 2.73
   4  0.000  0.500  0.500-   1 2.73   2 2.73   3 2.73   1 2.73   2 2.73   1 2.73   3 2.73   1 2.73
                             2 2.73   3 2.73   2 2.73   3 2.73
 
  LATTYP: Found a simple cubic cell.
 ALAT       =     3.8660000000
  
  Lattice vectors:
  
 A1 = (   3.8660000000,   0.0000000000,   0.0000000000)
 A2 = (   0.0000000000,   3.8660000000,   0.0000000000)
 A3 = (   0.0000000000,   0.0000000000,   3.8660000000)


Analysis of symmetry for initial positions (statically):
=====================================================================
 Subroutine PRICEL returns:
 Original cell was already a primitive cell.
 

 Routine SETGRP: Setting up the symmetry group for a 
 simple cubic supercell.


 Subroutine GETGRP returns: Found  8 space group operations
 (whereof  8 operations were pure point group operations)
 out of a pool of 48 trial point group operations.


The static configuration has the point symmetry D_2h.


Analysis of symmetry for dynamics (positions and initial velocities):
=====================================================================
 Subroutine PRICEL returns:
 Original cell was already a primitive cell.
 

 Routine SETGRP: Setting up the symmetry group for a 
 simple cubic supercell.


 Subroutine GETGRP returns: Found  8 space group operations
 (whereof  8 operations were pure point group operations)
 out of a pool of 48 trial point group operations.


The dynamic configuration has the point symmetry D_2h.


 Subroutine INISYM returns: Found  8 space group operations
 (whereof  8 operations are pure point group operations),
 and found     1 'primitive' translations


----------------------------------------------------------------------------------------

                                     Primitive cell                                     

  volume of cell :      57.7811

  direct lattice vectors                    reciprocal lattice vectors
     3.866000000  0.000000000  0.000000000     0.258665287  0.000000000  0.000000000
     0.000000000  3.866000000  0.000000000     0.000000000  0.258665287  0.000000000
     0.000000000  0.000000000  3.866000000     0.000000000  0.000000000  0.258665287

  length of vectors
     3.866000000  3.866000000  3.866000000     0.258665287  0.258665287  0.258665287

  position of ions in fractional coordinates (direct lattice)
     0.000000000  0.000000000  0.000000000
     0.500000000  0.500000000  0.000000000
     0.500000000  0.000000000  0.500000000
     0.000000000  0.500000000  0.500000000

  ion indices of the primitive-cell ions
   primitive index   ion index
                 1           1
                 2           2
                 3           3
                 4           4

----------------------------------------------------------------------------------------

 
 
 KPOINTS: KPOINTS created by Atomic Simulation Env

Automatic generation of k-mesh.
 Grid dimensions read from file:
 generate k-points for:    5    5    5

 Generating k-lattice:

  Cartesian coordinates                     Fractional coordinates (reciprocal lattice)
     0.051733057  0.000000000  0.000000000     0.200000000  0.000000000  0.000000000
     0.000000000  0.051733057  0.000000000     0.000000000  0.200000000  0.000000000
     0.000000000  0.000000000  0.051733057     0.000000000  0.000000000  0.200000000

  Length of vectors
     0.051733057  0.051733057  0.051733057

  Shift w.r.t. Gamma in fractional coordinates (k-lattice)
     0.000000000  0.000000000  0.000000000

 
 Subroutine IBZKPT returns following result:
 ===========================================
 
 Found     27 irreducible k-points:
 
 Following reciprocal coordinates:
            Coordinates               Weight
  0.000000  0.000000  0.000000      1.000000
  0.200000  0.000000  0.000000      2.000000
  0.000000  0.200000  0.000000      2.000000
  0.000000  0.000000  0.200000      2.000000
  0.400000  0.000000  0.000000      2.000000
  0.000000  0.400000  0.000000      2.000000
  0.000000  0.000000  0.400000      2.000000
  0.200000  0.200000  0.000000      4.000000
  0.000000  0.200000  0.200000      4.000000
  0.200000  0.000000  0.200000      4.000000
  0.400000  0.200000  0.000000      4.000000
  0.000000  0.400000  0.200000      4.000000
  0.200000  0.000000  0.400000      4.000000
 -0.200000  0.400000  0.000000      4.000000
 -0.400000  0.000000  0.200000      4.000000
  0.000000  0.200000  0.400000      4.000000
  0.400000  0.400000  0.000000      4.000000
  0.000000  0.400000  0.400000      4.000000
  0.400000  0.000000  0.400000      4.000000
  0.200000  0.200000  0.200000      8.000000
  0.400000  0.200000  0.200000      8.000000
  0.200000  0.400000  0.200000      8.000000
  0.200000  0.200000  0.400000      8.000000
  0.400000  0.400000  0.200000      8.000000
  0.200000  0.400000  0.400000      8.000000
  0.400000  0.200000  0.400000      8.000000
  0.400000  0.400000  0.400000      8.000000
 
 Following cartesian coordinates:
            Coordinates               Weight
  0.000000  0.000000  0.000000      1.000000
  0.051733  0.000000  0.000000      2.000000
  0.000000  0.051733  0.000000      2.000000
  0.000000  0.000000  0.051733      2.000000
  0.103466  0.000000  0.000000      2.000000
  0.000000  0.103466  0.000000      2.000000
  0.000000  0.000000  0.103466      2.000000
  0.051733  0.051733  0.000000      4.000000
  0.000000  0.051733  0.051733      4.000000
  0.051733  0.000000  0.051733      4.000000
  0.103466  0.051733  0.000000      4.000000
  0.000000  0.103466  0.051733      4.000000
  0.051733  0.000000  0.103466      4.000000
 -0.051733  0.103466  0.000000      4.000000
 -0.103466  0.000000  0.051733      4.000000
  0.000000  0.051733  0.103466      4.000000
  0.103466  0.103466  0.000000      4.000000
  0.000000  0.103466  0.103466      4.000000
  0.103466  0.000000  0.103466      4.000000
  0.051733  0.051733  0.051733      8.000000
  0.103466  0.051733  0.051733      8.000000
  0.051733  0.103466  0.051733      8.000000
  0.051733  0.051733  0.103466      8.000000
  0.103466  0.103466  0.051733      8.000000
  0.051733  0.103466  0.103466      8.000000
  0.103466  0.051733  0.103466      8.000000
  0.103466  0.103466  0.103466      8.000000
 


--------------------------------------------------------------------------------------------------------




 Dimension of arrays:
   k-points           NKPTS =     27   k-points in BZ     NKDIM =     27   number of bands    NBANDS=     30
   number of dos      NEDOS =    301   number of ions     NIONS =      4
   non local maximal  LDIM  =      6   non local SUM 2l+1 LMDIM =     18
   total plane-waves  NPLWV =   2744
   max r-space proj   IRMAX =      1   max aug-charges    IRDMAX=   3633
   dimension x,y,z NGX =    14 NGY =   14 NGZ =   14
   dimension x,y,z NGXF=    28 NGYF=   28 NGZF=   28
   support grid    NGXF=    28 NGYF=   28 NGZF=   28
   ions per type =               1   1   1   1
   NGX,Y,Z   is equivalent  to a cutoff of   6.02,  6.02,  6.02 a.u.
   NGXF,Y,Z  is equivalent  to a cutoff of  12.04, 12.04, 12.04 a.u.

 SYSTEM =  unknown system                          
 POSCAR =  Pd Ir Pt Cu                             

 Startparameter for this run:
   NWRITE =      2    write-flag & timer
   PREC   = normal    normal or accurate (medium, high low for compatibility)
   ISTART =      1    job   : 0-new  1-cont  2-samecut
   ICHARG =      1    charge: 1-file 2-atom 10-const
   ISPIN  =      1    spin polarized calculation?
   LNONCOLLINEAR =      F non collinear calculations
   LSORBIT =      F    spin-orbit coupling
   INIWAV =      1    electr: 0-lowe 1-rand  2-diag
   LASPH  =      F    aspherical Exc in radial PAW
   METAGGA=      F    non-selfconsistent MetaGGA calc.

 Electronic Relaxation 1
   ENCUT  =  230.0 eV  16.90 Ry    4.11 a.u.   4.78  4.78  4.78*2*pi/ulx,y,z
   ENINI  =  230.0     initial cutoff
   ENAUG  =  587.0 eV  augmentation charge cutoff
   NELM   =     60;   NELMIN=  2; NELMDL=  0     # of ELM steps 
   EDIFF  = 0.1E-05   stopping-criterion for ELM
   LREAL  =      F    real-space projection
   NLSPLINE    = F    spline interpolate recip. space projectors
   LCOMPAT=      F    compatible to vasp.4.4
   GGA_COMPAT  = T    GGA compatible to vasp.4.4-vasp.4.6
   LMAXPAW     = -100 max onsite density
   LMAXMIX     =    2 max onsite mixed and CHGCAR
   VOSKOWN=      0    Vosko Wilk Nusair interpolation
   ROPT   =    0.00000   0.00000   0.00000   0.00000
 Ionic relaxation
   EDIFFG = 0.1E-04   stopping-criterion for IOM
   NSW    =      0    number of steps for IOM
   NBLOCK =      1;   KBLOCK =      1    inner block; outer block 
   IBRION =     -1    ionic relax: 0-MD 1-quasi-New 2-CG
   NFREE  =      0    steps in history (QN), initial steepest desc. (CG)
   ISIF   =      2    stress and relaxation
   IWAVPR =      0    prediction:  0-non 1-charg 2-wave 3-comb
   ISYM   =      2    0-nonsym 1-usesym 2-fastsym
   LCORR  =      T    Harris-Foulkes like correction to forces

   POTIM  = 0.5000    time-step for ionic-motion
   TEIN   =    0.0    initial temperature
   TEBEG  =    0.0;   TEEND  =   0.0 temperature during run
   SMASS  =  -3.00    Nose mass-parameter (am)
   estimated Nose-frequenzy (Omega)   =  0.10E-29 period in steps = 0.13E+47 mass=  -0.342E-27a.u.
   SCALEE = 1.0000    scale energy and forces
   NPACO  =    256;   APACO  = 16.0  distance and # of slots for P.C.
   PSTRESS=    0.0 pullay stress

  Mass of Ions in am
   POMASS = 106.42192.22195.08 63.55
  Ionic Valenz
   ZVAL   =  10.00  9.00 10.00 11.00
  Atomic Wigner-Seitz radii
   RWIGS  =  -1.00 -1.00 -1.00 -1.00
  virtual crystal weights 
   VCA    =   1.00  1.00  1.00  1.00
   NELECT =      40.0000    total number of electrons
   NUPDOWN=      -1.0000    fix difference up-down

 DOS related values:
   EMIN   =  10.00;   EMAX   =-10.00  energy-range for DOS
   EFERMI =   0.00
   ISMEAR =     1;   SIGMA  =   0.20  broadening in eV -4-tet -1-fermi 0-gaus

 Electronic relaxation 2 (details)
   IALGO  =     38    algorithm
   LDIAG  =      T    sub-space diagonalisation (order eigenvalues)
   LSUBROT=      F    optimize rotation matrix (better conditioning)
   TURBO    =      0    0=normal 1=particle mesh
   IRESTART =      0    0=no restart 2=restart with 2 vectors
   NREBOOT  =      0    no. of reboots
   NMIN     =      0    reboot dimension
   EREF     =   0.00    reference energy to select bands
   IMIX   =      4    mixing-type and parameters
     AMIX     =   0.40;   BMIX     =  1.00
     AMIX_MAG =   1.60;   BMIX_MAG =  1.00
     AMIN     =   0.10
     WC   =   100.;   INIMIX=   1;  MIXPRE=   1;  MAXMIX= -45

 Intra band minimization:
   WEIMIN = 0.0000     energy-eigenvalue tresh-hold
   EBREAK =  0.83E-08  absolut break condition
   DEPER  =   0.30     relativ break condition  

   TIME   =   0.40     timestep for ELM

  volume/ion in A,a.u.               =      14.45        97.48
  Fermi-wavevector in a.u.,A,eV,Ry     =   1.448215  2.736729 28.535854  2.097326
  Thomas-Fermi vector in A             =   2.566081
 
 Write flags
   LWAVE        =      T    write WAVECAR
   LDOWNSAMPLE  =      F    k-point downsampling of WAVECAR
   LCHARG       =      T    write CHGCAR
   LVTOT        =      F    write LOCPOT, total local potential
   LVHAR        =      F    write LOCPOT, Hartree potential only
   LELF         =      F    write electronic localiz. function (ELF)
   LORBIT       =      0    0 simple, 1 ext, 2 COOP (PROOUT), +10 PAW based schemes


 Dipole corrections
   LMONO  =      F    monopole corrections only (constant potential shift)
   LDIPOL =      F    correct potential (dipole corrections)
   IDIPOL =      0    1-x, 2-y, 3-z, 4-all directions 
   EPSILON=  1.0000000 bulk dielectric constant

 Exchange correlation treatment:
   GGA     =    PE    GGA type
   LEXCH   =     8    internal setting for exchange type
   VOSKOWN=      0    Vosko Wilk Nusair interpolation
   LHFCALC =     F    Hartree Fock is set to
   LHFONE  =     F    Hartree Fock one center treatment
   AEXX    =    0.0000 exact exchange contribution

 Linear response parameters
   LEPSILON=     F    determine dielectric tensor
   LRPA    =     F    only Hartree local field effects (RPA)
   LNABLA  =     F    use nabla operator in PAW spheres
   LVEL    =     F    velocity operator in full k-point grid
   LINTERFAST=   F  fast interpolation
   KINTER  =     0    interpolate to denser k-point grid
   CSHIFT  =0.1000    complex shift for real part using Kramers Kronig
   OMEGAMAX=  -1.0    maximum frequency
   DEG_THRESHOLD= 0.2000000E-02 threshold for treating states as degnerate
   RTIME   =   -0.100 relaxation time in fs
  (WPLASMAI=    0.000 imaginary part of plasma frequency in eV, 0.658/RTIME)
   DFIELD  = 0.0000000 0.0000000 0.0000000 field for delta impulse in time
 
 Orbital magnetization related:
   ORBITALMAG=     F  switch on orbital magnetization
   LCHIMAG   =     F  perturbation theory with respect to B field
   DQ        =  0.001000  dq finite difference perturbation B field
   LLRAUG    =     F  two centre corrections for induced B field



--------------------------------------------------------------------------------------------------------


 Static calculation
 charge density and potential will be updated during run
 non-spin polarized calculation
 Variant of blocked Davidson
 Davidson routine will perform the subspace rotation
 perform sub-space diagonalisation
    after iterative eigenvector-optimisation
 modified Broyden-mixing scheme, WC =      100.0
 initial mixing is a Kerker type mixing with AMIX =  0.4000 and BMIX =      1.0000
 Hartree-type preconditioning will be used
 using additional bands           10
 reciprocal scheme for non local part
 use partial core corrections
 calculate Harris-corrections to forces 
   (improved forces if not selfconsistent)
 use gradient corrections 
 use of overlap-Matrix (Vanderbilt PP)
 Methfessel and Paxton  Order N= 1 SIGMA  =   0.20


--------------------------------------------------------------------------------------------------------


  energy-cutoff  :      230.00
  volume of cell :       57.78
      direct lattice vectors                 reciprocal lattice vectors
     3.866000000  0.000000000  0.000000000     0.258665287  0.000000000  0.000000000
     0.000000000  3.866000000  0.000000000     0.000000000  0.258665287  0.000000000
     0.000000000  0.000000000  3.866000000     0.000000000  0.000000000  0.258665287

  length of vectors
     3.866000000  3.866000000  3.866000000     0.258665287  0.258665287  0.258665287


 
 old parameters found on file WAVECAR:
  energy-cutoff  :      230.00
  volume of cell :       57.78
      direct lattice vectors                 reciprocal lattice vectors
     3.866000000  0.000000000  0.000000000     0.258665287  0.000000000  0.000000000
     0.000000000  3.866000000  0.000000000     0.000000000  0.258665287  0.000000000
     0.000000000  0.000000000  3.866000000     0.000000000  0.000000000  0.258665287

  length of vectors

 
 k-points in units of 2pi/SCALE and weight: KPOINTS created by Atomic Simulation Env
   0.00000000  0.00000000  0.00000000       0.008
   0.05173306  0.00000000  0.00000000       0.016
   0.00000000  0.05173306  0.00000000       0.016
   0.00000000  0.00000000  0.05173306       0.016
   0.10346611  0.00000000  0.00000000       0.016
   0.00000000  0.10346611  0.00000000       0.016
   0.00000000  0.00000000  0.10346611       0.016
   0.05173306  0.05173306  0.00000000       0.032
   0.00000000  0.05173306  0.05173306       0.032
   0.05173306  0.00000000  0.05173306       0.032
   0.10346611  0.05173306  0.00000000       0.032
   0.00000000  0.10346611  0.05173306       0.032
   0.05173306  0.00000000  0.10346611       0.032
  -0.05173306  0.10346611  0.00000000       0.032
  -0.10346611  0.00000000  0.05173306       0.032
   0.00000000  0.05173306  0.10346611       0.032
   0.10346611  0.10346611  0.00000000       0.032
   0.00000000  0.10346611  0.10346611       0.032
   0.10346611  0.00000000  0.10346611       0.032
   0.05173306  0.05173306  0.05173306       0.064
   0.10346611  0.05173306  0.05173306       0.064
   0.05173306  0.10346611  0.05173306       0.064
   0.05173306  0.05173306  0.10346611       0.064
   0.10346611  0.10346611  0.05173306       0.064
   0.05173306  0.10346611  0.10346611       0.064
   0.10346611  0.05173306  0.10346611       0.064
   0.10346611  0.10346611  0.10346611       0.064
 
 k-points in reciprocal lattice and weights: KPOINTS created by Atomic Simulation Env
   0.00000000  0.00000000  0.00000000       0.008
   0.20000000  0.00000000  0.00000000       0.016
   0.00000000  0.20000000  0.00000000       0.016
   0.00000000  0.00000000  0.20000000       0.016
   0.40000000  0.00000000  0.00000000       0.016
   0.00000000  0.40000000  0.00000000       0.016
   0.00000000  0.00000000  0.40000000       0.016
   0.20000000  0.20000000  0.00000000       0.032
   0.00000000  0.20000000  0.20000000       0.032
   0.20000000  0.00000000  0.20000000       0.032
   0.40000000  0.20000000  0.00000000       0.032
   0.00000000  0.40000000  0.20000000       0.032
   0.20000000  0.00000000  0.40000000       0.032
  -0.20000000  0.40000000  0.00000000       0.032
  -0.40000000  0.00000000  0.20000000       0.032
   0.00000000  0.20000000  0.40000000       0.032
   0.40000000  0.40000000  0.00000000       0.032
   0.00000000  0.40000000  0.40000000       0.032
   0.40000000  0.00000000  0.40000000       0.032
   0.20000000  0.20000000  0.20000000       0.064
   0.40000000  0.20000000  0.20000000       0.064
   0.20000000  0.40000000  0.20000000       0.064
   0.20000000  0.20000000  0.40000000       0.064
   0.40000000  0.40000000  0.20000000       0.064
   0.20000000  0.40000000  0.40000000       0.064
   0.40000000  0.20000000  0.40000000       0.064
   0.40000000  0.40000000  0.40000000       0.064
 
 position of ions in fractional coordinates (direct lattice) 
   0.00000000  0.00000000  0.00000000
   0.50000000  0.50000000  0.00000000
   0.50000000  0.00000000  0.50000000
   0.00000000  0.50000000  0.50000000
 
 position of ions in cartesian coordinates  (Angst):
   0.00000000  0.00000000  0.00000000
   1.93300000  1.93300000  0.00000000
   1.93300000  0.00000000  1.93300000
   0.00000000  1.93300000  1.93300000
 


--------------------------------------------------------------------------------------------------------


 k-point   1 :   0.0000 0.0000 0.0000  plane waves:     461
 k-point   2 :   0.2000 0.0000 0.0000  plane waves:     457
 k-point   3 :   0.0000 0.2000 0.0000  plane waves:     457
 k-point   4 :   0.0000 0.0000 0.2000  plane waves:     457
 k-point   5 :   0.4000 0.0000 0.0000  plane waves:     462
 k-point   6 :   0.0000 0.4000 0.0000  plane waves:     462
 k-point   7 :   0.0000 0.0000 0.4000  plane waves:     462
 k-point   8 :   0.2000 0.2000 0.0000  plane waves:     455
 k-point   9 :   0.0000 0.2000 0.2000  plane waves:     455
 k-point  10 :   0.2000 0.0000 0.2000  plane waves:     455
 k-point  11 :   0.4000 0.2000 0.0000  plane waves:     460
 k-point  12 :   0.0000 0.4000 0.2000  plane waves:     460
 k-point  13 :   0.2000 0.0000 0.4000  plane waves:     460
 k-point  14 :  -0.2000 0.4000 0.0000  plane waves:     460
 k-point  15 :  -0.4000 0.0000 0.2000  plane waves:     460
 k-point  16 :   0.0000 0.2000 0.4000  plane waves:     460
 k-point  17 :   0.4000 0.4000 0.0000  plane waves:     460
 k-point  18 :   0.0000 0.4000 0.4000  plane waves:     460
 k-point  19 :   0.4000 0.0000 0.4000  plane waves:     460
 k-point  20 :   0.2000 0.2000 0.2000  plane waves:     452
 k-point  21 :   0.4000 0.2000 0.2000  plane waves:     462
 k-point  22 :   0.2000 0.4000 0.2000  plane waves:     462
 k-point  23 :   0.2000 0.2000 0.4000  plane waves:     462
 k-point  24 :   0.4000 0.4000 0.2000  plane waves:     459
 k-point  25 :   0.2000 0.4000 0.4000  plane waves:     459
 k-point  26 :   0.4000 0.2000 0.4000  plane waves:     459
 k-point  27 :   0.4000 0.4000 0.4000  plane waves:     456

 maximum number of plane-waves:       462
 maximum index in each direction: 
   IXMAX=    5   IYMAX=    4   IZMAX=    4
   IXMIN=   -5   IYMIN=   -5   IZMIN=   -5


 total amount of memory used by VASP MPI-rank0    45977. kBytes
=======================================================================

   base      :      30000. kBytes
   nonl-proj :       7214. kBytes
   grid      :       1781. kBytes
   one-center:         62. kBytes
   wavefun   :       6920. kBytes
 
     INWAV:  cpu time    0.0083: real time    0.0083
 Broyden mixing: mesh for mixing (old mesh)
   NGX =  9   NGY =  9   NGZ =  9
  (NGX  = 28   NGY  = 28   NGZ  = 28)
  gives a total of    729 points

 initial charge density was supplied:
 number of electron      39.9998791 magnetization 
 keeping initial charge density in first step


--------------------------------------------------------------------------------------------------------


 Maximum index for augmentation-charges         3287 (set IRDMAX)


--------------------------------------------------------------------------------------------------------


 First call to EWALD:  gamma=   0.458
 Maximum number of real-space cells 3x 3x 3
 Maximum number of reciprocal cells 3x 3x 3

    FEWALD:  cpu time    0.0008: real time    0.0008


--------------------------------------- Iteration      1(   1)  ---------------------------------------


    POTLOK:  cpu time    0.0055: real time    0.0055
    SETDIJ:  cpu time    0.0038: real time    0.0038
     EDDAV:  cpu time    0.2981: real time    0.3187
       DOS:  cpu time    0.0024: real time    0.0024
    CHARGE:  cpu time    0.0155: real time    0.0155
    MIXING:  cpu time    0.0002: real time    0.0002
    --------------------------------------------
      LOOP:  cpu time    0.3254: real time    0.3460

 eigenvalue-minimisations  :  2114
 total energy-change (2. order) :-0.2316718E+02  (-0.5907675E-03)
 number of electron      39.9998790 magnetization 
 augmentation part       16.9006852 magnetization 

 Broyden mixing:
  rms(total) = 0.13121E-01    rms(broyden)= 0.12496E-01
  rms(prec ) = 0.24186E-01
  weight for this iteration     100.00

 Free energy of the ion-electron system (eV)
  ---------------------------------------------------
  alpha Z        PSCENC =       244.65455147
  Ewald energy   TEWEN  =     -3423.86860972
  -Hartree energ DENC   =      -596.42700546
  -exchange      EXHF   =         0.00000000
  -V(xc)+E(xc)   XCENC  =         1.62830556
  PAW double counting   =      3929.66729620    -3913.42707780
  entropy T*S    EENTRO =        -0.00551600
  eigenvalues    EBANDS =       245.41227407
  atomic energy  EATOM  =      3489.19860195
  Solvation  Ediel_sol  =         0.00000000
  ---------------------------------------------------
  free energy    TOTEN  =       -23.16717973 eV

  energy without entropy =      -23.16166374  energy(sigma->0) =      -23.16534107


--------------------------------------------------------------------------------------------------------




--------------------------------------- Iteration      1(   2)  ---------------------------------------


    POTLOK:  cpu time    0.0054: real time    0.0054
    SETDIJ:  cpu time    0.0038: real time    0.0038
     EDDAV:  cpu time    0.2637: real time    0.2637
       DOS:  cpu time    0.0024: real time    0.0024
    CHARGE:  cpu time    0.0161: real time    0.0161
    MIXING:  cpu time    0.0002: real time    0.0002
    --------------------------------------------
      LOOP:  cpu time    0.2916: real time    0.2916

 eigenvalue-minimisations  :  2064
 total energy-change (2. order) : 0.2693989E-01  (-0.9262048E-03)
 number of electron      39.9998793 magnetization 
 augmentation part       16.8954621 magnetization 

 Broyden mixing:
  rms(total) = 0.21864E-01    rms(broyden)= 0.21478E-01
  rms(prec ) = 0.56849E-01
  weight for this iteration     100.00

 eigenvalues of (default mixing * dielectric matrix)
  average eigenvalue GAMMA=   0.3557
  0.3557

 Free energy of the ion-electron system (eV)
  ---------------------------------------------------
  alpha Z        PSCENC =       244.65455147
  Ewald energy   TEWEN  =     -3423.86860972
  -Hartree energ DENC   =      -596.50993198
  -exchange      EXHF   =         0.00000000
  -V(xc)+E(xc)   XCENC  =         1.63418272
  PAW double counting   =      3930.01910756    -3913.86456850
  entropy T*S    EENTRO =        -0.00673720
  eigenvalues    EBANDS =       245.60316386
  atomic energy  EATOM  =      3489.19860195
  Solvation  Ediel_sol  =         0.00000000
  ---------------------------------------------------
  free energy    TOTEN  =       -23.14023984 eV

  energy without entropy =      -23.13350264  energy(sigma->0) =      -23.13799411


--------------------------------------------------------------------------------------------------------




--------------------------------------- Iteration      1(   3)  ---------------------------------------


    POTLOK:  cpu time    0.0053: real time    0.0053
    SETDIJ:  cpu time    0.0038: real time    0.0038
     EDDAV:  cpu time    0.2810: real time    0.2810
       DOS:  cpu time    0.0024: real time    0.0024
    CHARGE:  cpu time    0.0161: real time    0.0161
    MIXING:  cpu time    0.0003: real time    0.0003
    --------------------------------------------
      LOOP:  cpu time    0.3088: real time    0.3089

 eigenvalue-minimisations  :  2204
 total energy-change (2. order) : 0.6603186E-03  (-0.1282595E-03)
 number of electron      39.9998791 magnetization 
 augmentation part       16.9008995 magnetization 

 Broyden mixing:
  rms(total) = 0.48851E-02    rms(broyden)= 0.48308E-02
  rms(prec ) = 0.10376E-01
  weight for this iteration     100.00

 eigenvalues of (default mixing * dielectric matrix)
  average eigenvalue GAMMA=   0.4538
  0.5534  0.3542

 Free energy of the ion-electron system (eV)
  ---------------------------------------------------
  alpha Z        PSCENC =       244.65455147
  Ewald energy   TEWEN  =     -3423.86860972
  -Hartree energ DENC   =      -596.40881225
  -exchange      EXHF   =         0.00000000
  -V(xc)+E(xc)   XCENC  =         1.62877504
  PAW double counting   =      3929.93673936    -3913.72361016
  entropy T*S    EENTRO =        -0.00617636
  eigenvalues    EBANDS =       245.44896115
  atomic energy  EATOM  =      3489.19860195
  Solvation  Ediel_sol  =         0.00000000
  ---------------------------------------------------
  free energy    TOTEN  =       -23.13957952 eV

  energy without entropy =      -23.13340316  energy(sigma->0) =      -23.13752074


--------------------------------------------------------------------------------------------------------




--------------------------------------- Iteration      1(   4)  ---------------------------------------


    POTLOK:  cpu time    0.0053: real time    0.0053
    SETDIJ:  cpu time    0.0039: real time    0.0039
     EDDAV:  cpu time    0.3009: real time    0.3009
       DOS:  cpu time    0.0024: real time    0.0024
    CHARGE:  cpu time    0.0154: real time    0.0154
    MIXING:  cpu time    0.0003: real time    0.0003
    --------------------------------------------
      LOOP:  cpu time    0.3281: real time    0.3281

 eigenvalue-minimisations  :  2396
 total energy-change (2. order) : 0.2627664E-05  (-0.8302131E-05)
 number of electron      39.9998791 magnetization 
 augmentation part       16.8995273 magnetization 

 Broyden mixing:
  rms(total) = 0.40939E-02    rms(broyden)= 0.40927E-02
  rms(prec ) = 0.87053E-02
  weight for this iteration     100.00

 eigenvalues of (default mixing * dielectric matrix)
  average eigenvalue GAMMA=   0.4324
  0.5113  0.5113  0.2748

 Free energy of the ion-electron system (eV)
  ---------------------------------------------------
  alpha Z        PSCENC =       244.65455147
  Ewald energy   TEWEN  =     -3423.86860972
  -Hartree energ DENC   =      -596.44781421
  -exchange      EXHF   =         0.00000000
  -V(xc)+E(xc)   XCENC  =         1.63012858
  PAW double counting   =      3929.92111488    -3913.71765017
  entropy T*S    EENTRO =        -0.00630902
  eigenvalues    EBANDS =       245.49640936
  atomic energy  EATOM  =      3489.19860195
  Solvation  Ediel_sol  =         0.00000000
  ---------------------------------------------------
  free energy    TOTEN  =       -23.13957690 eV

  energy without entropy =      -23.13326787  energy(sigma->0) =      -23.13747389


--------------------------------------------------------------------------------------------------------




--------------------------------------- Iteration      1(   5)  ---------------------------------------


    POTLOK:  cpu time    0.0052: real time    0.0052
    SETDIJ:  cpu time    0.0037: real time    0.0037
     EDDAV:  cpu time    0.2633: real time    0.2633
       DOS:  cpu time    0.0024: real time    0.0024
    CHARGE:  cpu time    0.0155: real time    0.0155
    MIXING:  cpu time    0.0003: real time    0.0003
    --------------------------------------------
      LOOP:  cpu time    0.2903: real time    0.2903

 eigenvalue-minimisations  :  2058
 total energy-change (2. order) : 0.6049515E-05  (-0.1240390E-05)
 number of electron      39.9998791 magnetization 
 augmentation part       16.9002053 magnetization 

 Broyden mixing:
  rms(total) = 0.29748E-02    rms(broyden)= 0.29738E-02
  rms(prec ) = 0.58102E-02
  weight for this iteration     100.00

 eigenvalues of (default mixing * dielectric matrix)
  average eigenvalue GAMMA=   0.5372
  0.7499  0.7499  0.3246  0.3246

 Free energy of the ion-electron system (eV)
  ---------------------------------------------------
  alpha Z        PSCENC =       244.65455147
  Ewald energy   TEWEN  =     -3423.86860972
  -Hartree energ DENC   =      -596.42819204
  -exchange      EXHF   =         0.00000000
  -V(xc)+E(xc)   XCENC  =         1.62917923
  PAW double counting   =      3929.88411322    -3913.67385630
  entropy T*S    EENTRO =        -0.00623939
  eigenvalues    EBANDS =       245.47088075
  atomic energy  EATOM  =      3489.19860195
  Solvation  Ediel_sol  =         0.00000000
  ---------------------------------------------------
  free energy    TOTEN  =       -23.13957085 eV

  energy without entropy =      -23.13333145  energy(sigma->0) =      -23.13749105


--------------------------------------------------------------------------------------------------------




--------------------------------------- Iteration      1(   6)  ---------------------------------------


    POTLOK:  cpu time    0.0051: real time    0.0051
    SETDIJ:  cpu time    0.0037: real time    0.0037
     EDDAV:  cpu time    0.1632: real time    0.1632
       DOS:  cpu time    0.0024: real time    0.0024
    --------------------------------------------
      LOOP:  cpu time    0.1745: real time    0.1796

 eigenvalue-minimisations  :   998
 total energy-change (2. order) :-0.1387207E-07  (-0.1054934E-06)
 number of electron      39.9998791 magnetization 
 augmentation part       16.9002053 magnetization 

 Free energy of the ion-electron system (eV)
  ---------------------------------------------------
  alpha Z        PSCENC =       244.65455147
  Ewald energy   TEWEN  =     -3423.86860972
  -Hartree energ DENC   =      -596.42637053
  -exchange      EXHF   =         0.00000000
  -V(xc)+E(xc)   XCENC  =         1.62893064
  PAW double counting   =      3929.83759902    -3913.62606128
  entropy T*S    EENTRO =        -0.00623757
  eigenvalues    EBANDS =       245.46802517
  atomic energy  EATOM  =      3489.19860195
  Solvation  Ediel_sol  =         0.00000000
  ---------------------------------------------------
  free energy    TOTEN  =       -23.13957086 eV

  energy without entropy =      -23.13333329  energy(sigma->0) =      -23.13749167


--------------------------------------------------------------------------------------------------------




 average (electrostatic) potential at core
  the test charge radii are     1.1199  1.2793  1.2059  0.9430
  (the norm of the test charge is              1.0000)
       1 -71.7978       2 -48.8094       3 -64.8815       4 -61.7987
 
 
 
 E-fermi :   9.1988     XC(G=0): -13.1551     alpha+bet :-15.1862

 Fermi energy:         9.1988197023

 k-point     1 :       0.0000    0.0000    0.0000
  band No.  band energies     occupation 
      1       0.1024      2.00000
      2       2.5752      2.00000
      3       3.5263      2.00000
      4       3.5382      2.00000
      5       3.6126      2.00000
      6       3.7072      2.00000
      7       3.7160      2.00000
      8       6.1881      2.00000
      9       6.1925      2.00000
     10       6.3331      2.00000
     11       7.4112      2.00000
     12       7.5434      2.00000
     13       8.1817      2.00000
     14       8.3478      2.00000
     15       8.5021      2.00001
     16       9.2066      0.93419
     17       9.3795     -0.02403
     18       9.4747     -0.06501
     19       9.7558     -0.00059
     20      10.2291     -0.00000
     21      10.8100     -0.00000
     22      11.3959     -0.00000
     23      11.4040     -0.00000
     24      11.4167     -0.00000
     25      17.8809      0.00000
     26      18.1457      0.00000
     27      19.7479      0.00000
     28      20.3010      0.00000
     29      20.4458      0.00000
     30      20.6838      0.00000

 k-point     2 :       0.2000    0.0000    0.0000
  band No.  band energies     occupation 
      1       0.5689      2.00000
      2       2.8787      2.00000
      3       3.6958      2.00000
      4       3.6969      2.00000
      5       3.8985      2.00000
      6       3.9829      2.00000
      7       4.0465      2.00000
      8       5.9657      2.00000
      9       6.3361      2.00000
     10       6.4977      2.00000
     11       7.3264      2.00000
     12       7.4657      2.00000
     13       7.6613      2.00000
     14       7.8483      2.00000
     15       7.9731      2.00000
     16       8.1848      2.00000
     17       8.9981      2.05096
     18       9.0911      1.78109
     19       9.2323      0.72138
     20       9.4587     -0.06937
     21       9.7190     -0.00146
     22      10.8097     -0.00000
     23      13.1810     -0.00000
     24      13.1858     -0.00000
     25      17.8895      0.00000
     26      18.0207      0.00000
     27      20.3956      0.00000
     28      20.4369      0.00000
     29      20.5972      0.00000
     30      20.9784      0.00000

 k-point     3 :       0.0000    0.2000    0.0000
  band No.  band energies     occupation 
      1       0.6210      2.00000
      2       2.8961      2.00000
      3       3.6503      2.00000
      4       3.7676      2.00000
      5       3.8407      2.00000
      6       3.9786      2.00000
      7       4.0781      2.00000
      8       6.1430      2.00000
      9       6.3618      2.00000
     10       6.3708      2.00000
     11       7.2568      2.00000
     12       7.5940      2.00000
     13       7.5941      2.00000
     14       7.7528      2.00000
     15       8.2475      2.00000
     16       8.7373      2.00524
     17       9.0047      2.04355
     18       9.1725      1.22031
     19       9.2156      0.85870
     20       9.2802      0.37039
     21       9.4604     -0.06902
     22       9.7015     -0.00218
     23      13.2926     -0.00000
     24      13.4108     -0.00000
     25      17.4288      0.00000
     26      18.6664      0.00000
     27      20.3307      0.00000
     28      20.3921      0.00000
     29      20.5921      0.00000
     30      21.2814      0.00000

 k-point     4 :       0.0000    0.0000    0.2000
  band No.  band energies     occupation 
      1       0.6228      2.00000
      2       2.9087      2.00000
      3       3.8039      2.00000
      4       3.8497      2.00000
      5       3.8899      2.00000
      6       3.8908      2.00000
      7       3.9041      2.00000
      8       5.9564      2.00000
      9       6.3323      2.00000
     10       6.5007      2.00000
     11       7.2640      2.00000
     12       7.5599      2.00000
     13       7.5621      2.00000
     14       7.9347      2.00000
     15       8.0568      2.00000
     16       8.4900      2.00001
     17       8.8259      2.02416
     18       9.1173      1.63041
     19       9.1552      1.35984
     20       9.2954      0.27885
     21       9.7321     -0.00107
     22      10.2168     -0.00000
     23      13.2629     -0.00000
     24      13.3764     -0.00000
     25      17.1155      0.00000
     26      18.8733      0.00000
     27      20.4210      0.00000
     28      20.4448      0.00000
     29      20.7119      0.00000
     30      21.2031      0.00000

 k-point     5 :       0.4000    0.0000    0.0000
  band No.  band energies     occupation 
      1       1.6761      2.00000
      2       3.4995      2.00000
      3       3.7999      2.00000
      4       4.0481      2.00000
      5       4.7015      2.00000
      6       4.7410      2.00000
      7       4.8269      2.00000
      8       5.4973      2.00000
      9       6.0251      2.00000
     10       6.1270      2.00000
     11       6.8478      2.00000
     12       6.9171      2.00000
     13       6.9524      2.00000
     14       7.1462      2.00000
     15       7.3106      2.00000
     16       7.5300      2.00000
     17       8.1684      2.00000
     18       8.2103      2.00000
     19       8.2401      2.00000
     20       8.5442      2.00004
     21       9.3324      0.10362
     22      10.8070     -0.00000
     23      15.7256      0.00000
     24      15.8009      0.00000
     25      17.0618      0.00000
     26      18.0195      0.00000
     27      18.6185      0.00000
     28      18.7401      0.00000
     29      19.1405      0.00000
     30      21.8270      0.00000

 k-point     6 :       0.0000    0.4000    0.0000
  band No.  band energies     occupation 
      1       1.9941      2.00000
      2       3.2963      2.00000
      3       3.7671      2.00000
      4       4.0966      2.00000
      5       4.6340      2.00000
      6       4.6850      2.00000
      7       4.9587      2.00000
      8       5.7269      2.00000
      9       6.3365      2.00000
     10       6.3597      2.00000
     11       6.8090      2.00000
     12       6.8765      2.00000
     13       6.9007      2.00000
     14       7.0754      2.00000
     15       7.5270      2.00000
     16       7.8709      2.00000
     17       7.8787      2.00000
     18       8.0622      2.00000
     19       8.1731      2.00000
     20       8.4216      2.00000
     21       9.1094      1.67930
     22       9.4399     -0.07080
     23      15.9218      0.00000
     24      15.9675      0.00000
     25      16.6911      0.00000
     26      18.4773      0.00000
     27      18.4898      0.00000
     28      18.6301      0.00000
     29      20.4699      0.00000
     30      20.7388      0.00000

 k-point     7 :       0.0000    0.0000    0.4000
  band No.  band energies     occupation 
      1       2.0102      2.00000
      2       3.2936      2.00000
      3       3.9778      2.00000
      4       4.3372      2.00000
      5       4.6314      2.00000
      6       4.7229      2.00000
      7       4.7372      2.00000
      8       5.4006      2.00000
      9       6.0210      2.00000
     10       6.1385      2.00000
     11       6.8200      2.00000
     12       6.9655      2.00000
     13       6.9662      2.00000
     14       7.1001      2.00000
     15       7.3626      2.00000
     16       7.6667      2.00000
     17       8.0155      2.00000
     18       8.0433      2.00000
     19       8.4159      2.00000
     20       8.4586      2.00000
     21       8.9169      2.06285
     22      10.1947     -0.00000
     23      15.8960      0.00000
     24      16.0219      0.00000
     25      16.2485      0.00000
     26      18.4502      0.00000
     27      18.7236      0.00000
     28      18.9808      0.00000
     29      20.0606      0.00000
     30      21.0975      0.00000

 k-point     8 :       0.2000    0.2000    0.0000
  band No.  band energies     occupation 
      1       1.0655      2.00000
      2       3.1875      2.00000
      3       3.9264      2.00000
      4       3.9268      2.00000
      5       4.0996      2.00000
      6       4.1000      2.00000
      7       4.3912      2.00000
      8       5.9089      2.00000
      9       6.3879      2.00000
     10       6.5257      2.00000
     11       7.0482      2.00000
     12       7.2419      2.00000
     13       7.2660      2.00000
     14       7.3262      2.00000
     15       7.7846      2.00000
     16       7.9742      2.00000
     17       8.3311      2.00000
     18       8.9001      2.05585
     19       8.9565      2.07086
     20       9.0508      1.94634
     21       9.7239     -0.00130
     22      10.8904     -0.00000
     23      11.8819     -0.00000
     24      14.5564     -0.00000
     25      16.9638      0.00000
     26      19.0186      0.00000
     27      20.0449      0.00000
     28      20.4146      0.00000
     29      21.0529      0.00000
     30      21.6876      0.00000

 k-point     9 :       0.0000    0.2000    0.2000
  band No.  band energies     occupation 
      1       1.0920      2.00000
      2       3.2211      2.00000
      3       3.9090      2.00000
      4       3.9731      2.00000
      5       4.0393      2.00000
      6       4.2107      2.00000
      7       4.3365      2.00000
      8       5.8952      2.00000
      9       6.3855      2.00000
     10       6.5305      2.00000
     11       7.0675      2.00000
     12       7.2190      2.00000
     13       7.2853      2.00000
     14       7.3107      2.00000
     15       7.7436      2.00000
     16       8.0758      2.00000
     17       8.4334      2.00000
     18       8.7049      2.00265
     19       8.9080      2.05930
     20       8.9162      2.06257
     21       9.5507     -0.03210
     22      10.9281     -0.00000
     23      12.2456     -0.00000
     24      14.4590     -0.00000
     25      16.8229      0.00000
     26      19.0717      0.00000
     27      19.5304      0.00000
     28      20.9418      0.00000
     29      21.2111      0.00000
     30      21.9222      0.00000

 k-point    10 :       0.2000    0.0000    0.2000
  band No.  band energies     occupation 
      1       1.0654      2.00000
      2       3.2035      2.00000
      3       3.9277      2.00000
      4       3.9467      2.00000
      5       4.0679      2.00000
      6       4.2183      2.00000
      7       4.3240      2.00000
      8       5.7675      2.00000
      9       6.4488      2.00000
     10       6.5561      2.00000
     11       7.0130      2.00000
     12       7.2242      2.00000
     13       7.2293      2.00000
     14       7.2871      2.00000
     15       7.7827      2.00000
     16       7.8336      2.00000
     17       8.1974      2.00000
     18       8.9924      2.05625
     19       9.0556      1.93084
     20       9.2526      0.56242
     21       9.8440     -0.00005
     22      11.1376     -0.00000
     23      11.5445     -0.00000
     24      14.5498     -0.00000
     25      16.9307      0.00000
     26      18.9483      0.00000
     27      19.9906      0.00000
     28      20.5375      0.00000
     29      21.1249      0.00000
     30      21.8257      0.00000

 k-point    11 :       0.4000    0.2000    0.0000
  band No.  band energies     occupation 
      1       2.1409      2.00000
      2       3.7753      2.00000
      3       4.1227      2.00000
      4       4.2877      2.00000
      5       4.6703      2.00000
      6       4.8317      2.00000
      7       5.0225      2.00000
      8       5.4596      2.00000
      9       5.6661      2.00000
     10       6.0850      2.00000
     11       6.3447      2.00000
     12       6.4730      2.00000
     13       6.9199      2.00000
     14       7.1724      2.00000
     15       7.3101      2.00000
     16       7.6563      2.00000
     17       7.8327      2.00000
     18       8.4001      2.00000
     19       8.4423      2.00000
     20       8.9375      2.06908
     21       9.5487     -0.03289
     22       9.8135     -0.00012
     23      13.1268     -0.00000
     24      15.1980      0.00000
     25      16.9242      0.00000
     26      18.0878      0.00000
     27      19.5679      0.00000
     28      19.8206      0.00000
     29      21.8364      0.00000
     30      23.0813      0.00000

 k-point    12 :       0.0000    0.4000    0.2000
  band No.  band energies     occupation 
      1       2.3468      2.00000
      2       3.6370      2.00000
      3       4.0195      2.00000
      4       4.2917      2.00000
      5       4.5896      2.00000
      6       4.8053      2.00000
      7       5.1592      2.00000
      8       5.6335      2.00000
      9       5.7829      2.00000
     10       6.2623      2.00000
     11       6.3262      2.00000
     12       6.4897      2.00000
     13       6.9181      2.00000
     14       7.1332      2.00000
     15       7.6006      2.00000
     16       7.6847      2.00000
     17       7.7557      2.00000
     18       8.1737      2.00000
     19       8.3747      2.00000
     20       8.9417      2.06987
     21       9.0645      1.89928
     22       9.3705     -0.00708
     23      13.6021     -0.00000
     24      15.1532      0.00000
     25      16.7946      0.00000
     26      18.3693      0.00000
     27      19.3893      0.00000
     28      19.5745      0.00000
     29      21.6822      0.00000
     30      23.3098      0.00000

 k-point    13 :       0.2000    0.0000    0.4000
  band No.  band energies     occupation 
      1       2.3844      2.00000
      2       3.6451      2.00000
      3       4.2391      2.00000
      4       4.4307      2.00000
      5       4.6257      2.00000
      6       4.9512      2.00000
      7       4.9568      2.00000
      8       5.2838      2.00000
      9       5.5596      2.00000
     10       6.1444      2.00000
     11       6.4101      2.00000
     12       6.5047      2.00000
     13       6.9470      2.00000
     14       7.1846      2.00000
     15       7.3372      2.00000
     16       7.6676      2.00000
     17       7.9730      2.00000
     18       8.2706      2.00000
     19       8.4551      2.00000
     20       8.6853      2.00170
     21       9.2734      0.41507
     22       9.4462     -0.07087
     23      13.4649     -0.00000
     24      15.1960      0.00000
     25      16.8471      0.00000
     26      17.9581      0.00000
     27      19.3771      0.00000
     28      20.1338      0.00000
     29      21.9520      0.00000
     30      22.9649      0.00000

 k-point    14 :      -0.2000    0.4000    0.0000
  band No.  band energies     occupation 
      1       2.3816      2.00000
      2       3.6248      2.00000
      3       4.0683      2.00000
      4       4.3054      2.00000
      5       4.6091      2.00000
      6       4.7681      2.00000
      7       5.1437      2.00000
      8       5.6377      2.00000
      9       5.9571      2.00000
     10       6.2454      2.00000
     11       6.2466      2.00000
     12       6.4708      2.00000
     13       6.9149      2.00000
     14       7.1682      2.00000
     15       7.5092      2.00000
     16       7.7097      2.00000
     17       7.7882      2.00000
     18       8.1921      2.00000
     19       8.4480      2.00000
     20       8.8500      2.03332
     21       8.9629      2.07025
     22       9.2279      0.75689
     23      13.5161     -0.00000
     24      15.1873      0.00000
     25      16.8452      0.00000
     26      18.3341      0.00000
     27      19.3613      0.00000
     28      19.7543      0.00000
     29      21.9939      0.00000
     30      22.9944      0.00000

 k-point    15 :      -0.4000    0.0000    0.2000
  band No.  band energies     occupation 
      1       2.1368      2.00000
      2       3.8131      2.00000
      3       4.0818      2.00000
      4       4.2564      2.00000
      5       4.6188      2.00000
      6       4.8782      2.00000
      7       5.0719      2.00000
      8       5.4077      2.00000
      9       5.5774      2.00000
     10       6.1492      2.00000
     11       6.4154      2.00000
     12       6.5171      2.00000
     13       6.9289      2.00000
     14       7.1815      2.00000
     15       7.2750      2.00000
     16       7.6443      2.00000
     17       8.0499      2.00000
     18       8.1494      2.00000
     19       8.5376      2.00003
     20       8.9645      2.06998
     21       9.5143     -0.04824
     22       9.7666     -0.00045
     23      13.1055     -0.00000
     24      15.2620      0.00000
     25      16.8774      0.00000
     26      18.0529      0.00000
     27      19.4718      0.00000
     28      19.7568      0.00000
     29      21.9466      0.00000
     30      22.9656      0.00000

 k-point    16 :       0.0000    0.2000    0.4000
  band No.  band energies     occupation 
      1       2.3555      2.00000
      2       3.6187      2.00000
      3       4.2425      2.00000
      4       4.4646      2.00000
      5       4.6410      2.00000
      6       4.9076      2.00000
      7       4.9271      2.00000
      8       5.3502      2.00000
      9       5.5510      2.00000
     10       6.0889      2.00000
     11       6.3206      2.00000
     12       6.5002      2.00000
     13       6.9525      2.00000
     14       7.1360      2.00000
     15       7.4319      2.00000
     16       7.6884      2.00000
     17       7.7546      2.00000
     18       8.3013      2.00000
     19       8.6028      2.00021
     20       8.6251      2.00038
     21       9.4637     -0.06825
     22       9.5661     -0.02615
     23      13.5618     -0.00000
     24      15.0964      0.00000
     25      16.8506      0.00000
     26      18.0132      0.00000
     27      19.4945      0.00000
     28      20.0164      0.00000
     29      21.5605      0.00000
     30      23.4175      0.00000

 k-point    17 :       0.4000    0.4000    0.0000
  band No.  band energies     occupation 
      1       3.2864      2.00000
      2       4.2054      2.00000
      3       4.4689      2.00000
      4       4.7961      2.00000
      5       4.8707      2.00000
      6       5.0854      2.00000
      7       5.2010      2.00000
      8       5.3216      2.00000
      9       5.3693      2.00000
     10       5.8603      2.00000
     11       5.9973      2.00000
     12       6.2658      2.00000
     13       6.8980      2.00000
     14       7.0778      2.00000
     15       7.0889      2.00000
     16       7.3202      2.00000
     17       7.5117      2.00000
     18       8.0983      2.00000
     19       8.4051      2.00000
     20       8.4373      2.00000
     21       9.1439      1.44586
     22      10.1387     -0.00000
     23      11.6251     -0.00000
     24      12.9666     -0.00000
     25      18.8288      0.00000
     26      18.9633      0.00000
     27      20.5021      0.00000
     28      21.1958      0.00000
     29      21.2360      0.00000
     30      21.6774      0.00000

 k-point    18 :       0.0000    0.4000    0.4000
  band No.  band energies     occupation 
      1       3.1818      2.00000
      2       3.9837      2.00000
      3       4.3729      2.00000
      4       4.7602      2.00000
      5       4.9740      2.00000
      6       5.1093      2.00000
      7       5.1295      2.00000
      8       5.4002      2.00000
      9       5.4181      2.00000
     10       5.8757      2.00000
     11       6.0894      2.00000
     12       6.2655      2.00000
     13       6.8991      2.00000
     14       7.0561      2.00000
     15       7.1466      2.00000
     16       7.2137      2.00000
     17       7.4125      2.00000
     18       8.0453      2.00000
     19       8.6307      2.00044
     20       8.6839      2.00165
     21       9.2121      0.88803
     22       9.9708     -0.00000
     23      12.1891     -0.00000
     24      13.0256     -0.00000
     25      18.5703      0.00000
     26      18.6970      0.00000
     27      20.3888      0.00000
     28      20.5191      0.00000
     29      21.0712      0.00000
     30      22.1356      0.00000

 k-point    19 :       0.4000    0.0000    0.4000
  band No.  band energies     occupation 
      1       3.2541      2.00000
      2       4.3528      2.00000
      3       4.4316      2.00000
      4       4.6683      2.00000
      5       4.7576      2.00000
      6       4.9910      2.00000
      7       5.0474      2.00000
      8       5.2571      2.00000
      9       5.5762      2.00000
     10       6.0161      2.00000
     11       6.1482      2.00000
     12       6.3747      2.00000
     13       6.8490      2.00000
     14       7.0795      2.00000
     15       7.0797      2.00000
     16       7.3307      2.00000
     17       7.8095      2.00000
     18       7.9551      2.00000
     19       8.2056      2.00000
     20       8.3013      2.00000
     21       9.3396      0.07743
     22      10.5345     -0.00000
     23      11.1697     -0.00000
     24      12.8530     -0.00000
     25      18.7390      0.00000
     26      18.9224      0.00000
     27      20.7057      0.00000
     28      21.0256      0.00000
     29      21.4302      0.00000
     30      21.4967      0.00000

 k-point    20 :       0.2000    0.2000    0.2000
  band No.  band energies     occupation 
      1       1.4791      2.00000
      2       3.4246      2.00000
      3       3.9923      2.00000
      4       4.1291      2.00000
      5       4.1883      2.00000
      6       4.5650      2.00000
      7       4.6919      2.00000
      8       5.7235      2.00000
      9       6.4426      2.00000
     10       6.5411      2.00000
     11       6.6558      2.00000
     12       6.8553      2.00000
     13       7.0375      2.00000
     14       7.2802      2.00000
     15       7.3973      2.00000
     16       7.6069      2.00000
     17       8.3129      2.00000
     18       8.3835      2.00000
     19       8.5347      2.00003
     20       9.0891      1.79131
     21       9.8263     -0.00008
     22      11.8322     -0.00000
     23      12.5046     -0.00000
     24      12.7210     -0.00000
     25      17.6715      0.00000
     26      17.9046      0.00000
     27      18.6163      0.00000
     28      21.1234      0.00000
     29      21.5370      0.00000
     30      21.7106      0.00000

 k-point    21 :       0.4000    0.2000    0.2000
  band No.  band energies     occupation 
      1       2.3929      2.00000
      2       3.7328      2.00000
      3       4.2128      2.00000
      4       4.5483      2.00000
      5       4.5622      2.00000
      6       4.8406      2.00000
      7       5.3463      2.00000
      8       5.5388      2.00000
      9       5.8007      2.00000
     10       6.0102      2.00000
     11       6.3688      2.00000
     12       6.4808      2.00000
     13       6.6850      2.00000
     14       7.0231      2.00000
     15       7.0945      2.00000
     16       7.5579      2.00000
     17       8.0971      2.00000
     18       8.1999      2.00000
     19       8.6388      2.00055
     20       9.0183      2.02369
     21       9.5135     -0.04858
     22       9.7892     -0.00024
     23      13.8129     -0.00000
     24      13.8296     -0.00000
     25      15.5343      0.00000
     26      16.2908      0.00000
     27      20.1176      0.00000
     28      21.5201      0.00000
     29      22.1024      0.00000
     30      22.3637      0.00000

 k-point    22 :       0.2000    0.4000    0.2000
  band No.  band energies     occupation 
      1       2.5636      2.00000
      2       3.6298      2.00000
      3       4.0208      2.00000
      4       4.5067      2.00000
      5       4.6801      2.00000
      6       4.8742      2.00000
      7       5.5395      2.00000
      8       5.6091      2.00000
      9       5.7881      2.00000
     10       6.0986      2.00000
     11       6.4635      2.00000
     12       6.5018      2.00000
     13       6.6029      2.00000
     14       7.0185      2.00000
     15       7.1742      2.00000
     16       7.2716      2.00000
     17       8.1782      2.00000
     18       8.2480      2.00000
     19       8.4299      2.00000
     20       8.9318      2.06770
     21       9.3634      0.00858
     22       9.6570     -0.00560
     23      13.8176     -0.00000
     24      14.0534     -0.00000
     25      15.5957      0.00000
     26      16.1461      0.00000
     27      20.2007      0.00000
     28      21.5883      0.00000
     29      22.2370      0.00000
     30      22.4030      0.00000

 k-point    23 :       0.2000    0.2000    0.4000
  band No.  band energies     occupation 
      1       2.5682      2.00000
      2       3.6291      2.00000
      3       4.1692      2.00000
      4       4.5052      2.00000
      5       4.6865      2.00000
      6       5.0520      2.00000
      7       5.1943      2.00000
      8       5.5244      2.00000
      9       5.7490      2.00000
     10       5.9844      2.00000
     11       6.3647      2.00000
     12       6.4834      2.00000
     13       6.6919      2.00000
     14       7.0438      2.00000
     15       7.1368      2.00000
     16       7.4263      2.00000
     17       8.1953      2.00000
     18       8.2031      2.00000
     19       8.5574      2.00006
     20       8.8741      2.04394
     21       9.4477     -0.07080
     22       9.7368     -0.00095
     23      13.8226     -0.00000
     24      13.9938     -0.00000
     25      15.5790      0.00000
     26      16.2361      0.00000
     27      20.1088      0.00000
     28      21.3655      0.00000
     29      22.1980      0.00000
     30      22.4683      0.00000

 k-point    24 :       0.4000    0.4000    0.2000
  band No.  band energies     occupation 
      1       3.0440      2.00000
      2       3.5566      2.00000
      3       3.8775      2.00000
      4       4.2641      2.00000
      5       5.1867      2.00000
      6       5.4823      2.00000
      7       5.7242      2.00000
      8       5.9089      2.00000
      9       6.0716      2.00000
     10       6.1226      2.00000
     11       6.3344      2.00000
     12       6.5021      2.00000
     13       6.6047      2.00000
     14       6.7240      2.00000
     15       6.8749      2.00000
     16       6.9518      2.00000
     17       7.9185      2.00000
     18       8.3587      2.00000
     19       8.7545      2.00733
     20       9.0836      1.81822
     21       9.2234      0.79372
     22      10.2633     -0.00000
     23      11.5086     -0.00000
     24      12.7216     -0.00000
     25      15.8133      0.00000
     26      17.4875      0.00000
     27      17.9104      0.00000
     28      19.8959      0.00000
     29      22.7852      0.00000
     30      24.5683      0.00000

 k-point    25 :       0.2000    0.4000    0.4000
  band No.  band energies     occupation 
      1       3.0292      2.00000
      2       3.5904      2.00000
      3       3.6498      2.00000
      4       4.2742      2.00000
      5       5.1900      2.00000
      6       5.4854      2.00000
      7       5.7119      2.00000
      8       5.9591      2.00000
      9       6.0820      2.00000
     10       6.1189      2.00000
     11       6.3259      2.00000
     12       6.5114      2.00000
     13       6.6131      2.00000
     14       6.7254      2.00000
     15       6.8726      2.00000
     16       6.9381      2.00000
     17       7.9607      2.00000
     18       8.3870      2.00000
     19       8.8829      2.04803
     20       9.0697      1.87894
     21       9.2015      0.97696
     22      10.1450     -0.00000
     23      11.9909     -0.00000
     24      12.9068     -0.00000
     25      15.5527      0.00000
     26      17.0609      0.00000
     27      17.9493      0.00000
     28      19.8668      0.00000
     29      22.8739      0.00000
     30      24.4151      0.00000

 k-point    26 :       0.4000    0.2000    0.4000
  band No.  band energies     occupation 
      1       3.0377      2.00000
      2       3.5871      2.00000
      3       3.9152      2.00000
      4       4.1031      2.00000
      5       5.1579      2.00000
      6       5.3815      2.00000
      7       5.6955      2.00000
      8       6.0719      2.00000
      9       6.1832      2.00000
     10       6.2192      2.00000
     11       6.4325      2.00000
     12       6.4496      2.00000
     13       6.6061      2.00000
     14       6.7760      2.00000
     15       6.8186      2.00000
     16       6.8900      2.00000
     17       8.0789      2.00000
     18       8.1182      2.00000
     19       8.5786      2.00011
     20       9.2155      0.85900
     21       9.3507      0.04211
     22      10.6291     -0.00000
     23      11.0587     -0.00000
     24      12.6576     -0.00000
     25      15.7875      0.00000
     26      17.5281      0.00000
     27      17.8975      0.00000
     28      19.9566      0.00000
     29      22.6488      0.00000
     30      24.6408      0.00000

 k-point    27 :       0.4000    0.4000    0.4000
  band No.  band energies     occupation 
      1       2.9148      2.00000
      2       3.0420      2.00000
      3       3.2795      2.00000
      4       3.6559      2.00000
      5       5.6147      2.00000
      6       5.7283      2.00000
      7       5.8248      2.00000
      8       6.0978      2.00000
      9       6.1794      2.00000
     10       6.4179      2.00000
     11       6.4240      2.00000
     12       6.6183      2.00000
     13       7.2808      2.00000
     14       7.3428      2.00000
     15       7.5100      2.00000
     16       7.8442      2.00000
     17       8.2554      2.00000
     18       8.6808      2.00153
     19       8.7503      2.00676
     20       9.1652      1.28040
     21       9.7045     -0.00204
     22      10.4835     -0.00000
     23      10.8835     -0.00000
     24      11.1105     -0.00000
     25      14.9803      0.00000
     26      15.3898      0.00000
     27      16.1958      0.00000
     28      17.7062      0.00000
     29      25.2918      0.00000
     30      25.3872      0.00000


--------------------------------------------------------------------------------------------------------


 soft charge-density along one line, spin component           1
         0         1         2         3         4         5         6         7         8         9
x    23.0997    0.0000   -1.4255    0.0000    0.7831    0.0000    0.2603    0.0000   -0.4814    0.0000
x    -0.0419    0.0000    0.1042    0.0000    0.0000    0.0000
y    23.0997    0.0000    1.4504    0.0000    0.8297    0.0000   -0.2747   -0.0000   -0.4542    0.0000
y     0.0093   -0.0000    0.1016    0.0000    0.0000    0.0000
z    23.0997    0.0000    0.4219    0.0000    0.8283    0.0000   -0.1639   -0.0000   -0.4656    0.0000
z     0.0118   -0.0000    0.1028    0.0000    0.0000    0.0000
 total charge-density along one line
x    39.9999    0.0000    3.7427    0.0000   10.8499    0.0000    3.1925    0.0000    1.3675    0.0000
x     0.4254    0.0000    0.1412    0.0000   -0.0174    0.0000    0.0023    0.0000    0.0068   -0.0000
x     0.0017    0.0000   -0.0014    0.0000   -0.0011    0.0000    0.0002    0.0000    0.0009    0.0000
y    39.9999    0.0000   -0.9252    0.0000   10.9355    0.0000   -1.8207    0.0000    1.4233   -0.0000
y    -0.3468    0.0000    0.1218    0.0000    0.0351    0.0000   -0.0018   -0.0000   -0.0094    0.0000
y     0.0018    0.0000    0.0030    0.0000   -0.0011    0.0000   -0.0007   -0.0000    0.0008    0.0000
z    39.9999    0.0000   -2.7224    0.0000   10.9044    0.0000   -2.1401    0.0000    1.3851   -0.0000
z    -0.3855    0.0000    0.1283    0.0000    0.0230    0.0000    0.0002   -0.0000   -0.0078   -0.0000
z     0.0018    0.0000    0.0023    0.0000   -0.0011    0.0000   -0.0005   -0.0000    0.0008    0.0000
 
 pseudopotential strength for first ion, spin component:           1
 -2.758  -0.000  -0.000  -0.000   0.000  -2.980  -0.000  -0.000
 -0.000  -2.672   0.000   0.000   0.000  -0.000  -2.898   0.000
 -0.000   0.000  -2.683  -0.000  -0.008  -0.000   0.000  -2.908
 -0.000   0.000  -0.000  -2.730  -0.000  -0.000   0.000  -0.000
  0.000   0.000  -0.008  -0.000  -2.693   0.000   0.000  -0.007
 -2.980  -0.000  -0.000  -0.000   0.000  -3.168  -0.000  -0.000
 -0.000  -2.898   0.000   0.000   0.000  -0.000  -3.090   0.000
 -0.000   0.000  -2.908  -0.000  -0.007  -0.000   0.000  -3.100
 -0.000   0.000  -0.000  -2.953  -0.000  -0.000   0.000  -0.000
  0.000   0.000  -0.007  -0.000  -2.917   0.000   0.000  -0.007
 -0.000   0.000  -0.008   0.000   0.006  -0.000   0.000  -0.008
 -0.000   0.000  -0.014   0.000   0.011  -0.000   0.000  -0.014
  0.000  -0.000   0.000   0.000  -0.000   0.000  -0.000   0.000
  0.000   0.000   0.000   0.000   0.000   0.000   0.000   0.000
 -0.000   0.000  -0.000  -0.000   0.000  -0.000   0.000  -0.000
  0.000  -0.000   0.000   0.000  -0.000   0.000  -0.000   0.000
  0.000   0.000   0.000   0.000   0.000   0.000   0.000   0.000
 -0.000   0.000  -0.000  -0.000   0.000  -0.000   0.000  -0.000
 total augmentation occupancy for first ion, spin component:           1
  2.002   0.000   0.000   0.000   0.000  -1.406   0.000  -0.000   0.000   0.000   0.000   0.000   0.000   0.000   0.000   0.000
  0.000   3.559   0.000   0.000   0.000   0.000  -2.072   0.000  -0.000   0.000   0.000   0.000   0.000   0.000   0.000   0.000
  0.000   0.000   3.088   0.000  -0.556  -0.000   0.000  -1.728   0.000   0.359   0.245  -0.049   0.000   0.000   0.000   0.000
  0.000   0.000   0.000   3.042   0.000   0.000  -0.000   0.000  -2.195   0.000   0.000   0.000   0.000   0.000   0.000   0.000
  0.000   0.000  -0.556   0.000   4.128  -0.000   0.000   0.357   0.000  -2.484  -0.384   0.072   0.000   0.000   0.000   0.000
 -1.406   0.000   0.000   0.000   0.000   2.465   0.000   0.000   0.000   0.000   0.000   0.000   0.000   0.000   0.000   0.000
  0.000  -2.072   0.000  -0.000   0.000   0.000   2.460   0.000   0.000   0.000   0.000   0.000   0.000   0.000   0.000   0.000
  0.000   0.000  -1.728   0.000   0.357  -0.000   0.000   2.197   0.000  -0.218  -0.182   0.013   0.000   0.000   0.000   0.000
  0.000  -0.000   0.000  -2.195   0.000   0.000   0.000   0.000   3.046   0.000   0.000   0.000   0.000   0.000   0.000   0.000
  0.000   0.000   0.359   0.000  -2.484   0.000   0.000  -0.218   0.000   2.735   0.307  -0.047   0.000   0.000   0.000   0.000
  0.000   0.000   0.245   0.000  -0.384   0.000   0.000  -0.182   0.000   0.307   2.136  -0.339   0.000   0.000   0.000   0.000
  0.000   0.000  -0.049   0.000   0.072   0.000   0.000   0.013   0.000  -0.047  -0.339   0.060   0.000   0.000   0.000   0.000
  0.000   0.000   0.000   0.000   0.000   0.000   0.000   0.000   0.000   0.000   0.000   0.000   0.280   0.000   0.000  -0.014
  0.000   0.000   0.000   0.000   0.000   0.000   0.000   0.000   0.000   0.000   0.000   0.000   0.000   0.269   0.000   0.000
  0.000   0.000   0.000   0.000   0.000   0.000   0.000   0.000   0.000   0.000   0.000   0.000   0.000   0.000   0.335  -0.000
  0.000   0.000   0.000   0.000   0.000   0.000   0.000   0.000   0.000   0.000   0.000   0.000  -0.014   0.000  -0.000   0.001
  0.000   0.000   0.000   0.000   0.000   0.000   0.000   0.000   0.000   0.000   0.000   0.000   0.000  -0.014   0.000   0.000
  0.000   0.000   0.000   0.000   0.000   0.000   0.000   0.000   0.000   0.000   0.000   0.000  -0.000   0.000  -0.019  -0.000


------------------------ aborting loop because EDIFF is reached ----------------------------------------


    CHARGE:  cpu time    0.0154: real time    0.0154
    FORLOC:  cpu time    0.0009: real time    0.0009
    FORNL :  cpu time    0.0759: real time    0.0759
    STRESS:  cpu time    0.1305: real time    0.1305
    FORCOR:  cpu time    0.0062: real time    0.0062
    FORHAR:  cpu time    0.0018: real time    0.0018
    MIXING:  cpu time    0.0003: real time    0.0003

  FORCE on cell =-STRESS in cart. coord.  units (eV):
  Direction    XX          YY          ZZ          XY          YZ          ZX
  --------------------------------------------------------------------------------------
  Alpha Z   244.65455   244.65455   244.65455
  Ewald   -1143.04101 -1137.78808 -1143.04101     0.00000     0.00000     0.00000
  Hartree   193.88206   205.12544   197.37462    -0.00000    -0.00000    -0.00000
  E(xc)    -202.57612  -202.44329  -202.54191     0.00000     0.00000     0.00000
  Local     181.59111   168.21948   180.71538    -0.00000    -0.00000    -0.00000
  n-local   -38.21626   -36.62230   -39.22443     5.94200     7.60840     6.31796
  augment   261.20870   259.70794   260.81943    -0.00000     0.00000     0.00000
  Kinetic   494.50701   490.78705   492.36260     1.95954     2.82309     1.43488
  Fock        0.00000     0.00000     0.00000     0.00000     0.00000     0.00000
  -------------------------------------------------------------------------------------
  Total      -7.98995    -8.35921    -8.88077     0.00000     0.00000     0.00000
  in kB    -221.54851  -231.78761  -246.24971     0.00000     0.00000     0.00000
  external pressure =     -233.20 kB  Pullay stress =        0.00 kB


 VOLUME and BASIS-vectors are now :
 -----------------------------------------------------------------------------
  energy-cutoff  :      230.00
  volume of cell :       57.78
      direct lattice vectors                 reciprocal lattice vectors
     3.866000000  0.000000000  0.000000000     0.258665287  0.000000000  0.000000000
     0.000000000  3.866000000  0.000000000     0.000000000  0.258665287  0.000000000
     0.000000000  0.000000000  3.866000000     0.000000000  0.000000000  0.258665287

  length of vectors
     3.866000000  3.866000000  3.866000000     0.258665287  0.258665287  0.258665287


 FORCES acting on ions
    electron-ion (+dipol)            ewald-force                    non-local-force                 convergence-correction
 -----------------------------------------------------------------------------------------------
   -.660E-13 -.230E-13 -.348E-13   0.892E-14 -.838E-14 -.466E-14   -.113E-23 -.963E-25 -.219E-24   -.105E-13 0.889E-14 0.265E-13
   0.578E-13 0.977E-13 -.286E-13   0.112E-14 0.145E-13 -.285E-14   -.962E-25 0.139E-24 0.612E-24   -.155E-13 -.150E-13 0.738E-14
   0.103E-12 -.211E-13 0.146E-12   -.749E-14 -.139E-13 0.598E-14   -.217E-24 0.896E-24 0.107E-23   -.197E-13 0.602E-14 -.542E-14
   -.114E-12 0.746E-12 0.751E-12   -.120E-14 0.656E-14 0.190E-14   -.260E-24 -.615E-24 0.128E-25   -.722E-13 -.110E-12 -.151E-12
 -----------------------------------------------------------------------------------------------
   -.189E-13 0.799E-12 0.834E-12   0.135E-14 -.120E-14 0.371E-15   -.171E-23 0.325E-24 0.148E-23   -.118E-12 -.110E-12 -.123E-12
 
 
 POSITION                                       TOTAL-FORCE (eV/Angst)
 -----------------------------------------------------------------------------------
      0.00000      0.00000      0.00000         0.000000      0.000000     -0.000000
      1.93300      1.93300      0.00000        -0.000000      0.000000     -0.000000
      1.93300      0.00000      1.93300         0.000000      0.000000     -0.000000
      0.00000      1.93300      1.93300        -0.000000     -0.000000      0.000000
 -----------------------------------------------------------------------------------
    total drift:                               -0.000000      0.000000      0.000000


--------------------------------------------------------------------------------------------------------



  FREE ENERGIE OF THE ION-ELECTRON SYSTEM (eV)
  ---------------------------------------------------
  free  energy   TOTEN  =       -23.13957086 eV

  energy  without entropy=      -23.13333329  energy(sigma->0) =      -23.13749167
 


--------------------------------------------------------------------------------------------------------


    POTLOK:  cpu time    0.0090: real time    0.0090


--------------------------------------------------------------------------------------------------------


 writing wavefunctions
     LOOP+:  cpu time    1.9844: real time    2.0102
    4ORBIT:  cpu time    0.0000: real time    0.0000

 total amount of memory used by VASP MPI-rank0    45977. kBytes
=======================================================================

   base      :      30000. kBytes
   nonl-proj :       7214. kBytes
   grid      :       1781. kBytes
   one-center:         62. kBytes
   wavefun   :       6920. kBytes
 
  
  
 General timing and accounting informations for this job:
 ========================================================
  
                  Total CPU time used (sec):        2.173
                            User time (sec):        2.141
                          System time (sec):        0.032
                         Elapsed time (sec):        2.190
  
                   Maximum memory used (kb):       53328.
                   Average memory used (kb):          N/A
  
                          Minor page faults:         6855
                          Major page faults:            0
                 Voluntary context switches:           27
