<?xml version="1.0" encoding="ISO-8859-1"?>
<modeling>
 <generator>
  <i name="program" type="string">vasp </i>
  <i name="version" type="string">6.2.0  </i>
  <i name="subversion" type="string">18Jan21 (build Mar 17 2021 09:06:54) complex                          serial </i>
  <i name="platform" type="string">LinuxIFC </i>
  <i name="date" type="string">2021 06 11 </i>
  <i name="time" type="string">11:56:38 </i>
 </generator>
 <incar>
  <i type="string" name="PREC">normal</i>
  <i type="int" name="ICHARG">     1</i>
  <i type="int" name="IBRION">    -1</i>
  <i name="EDIFF">      0.00000100</i>
  <i type="int" name="NSW">     0</i>
  <i name="ENCUT">    230.00000000</i>
  <i type="int" name="NBANDS">    30</i>
  <i type="int" name="ISMEAR">     1</i>
  <i name="SIGMA">      0.20000000</i>
  <i type="logical" name="LCHARG"> T  </i>
  <i type="int" name="KPAR">     1</i>
  <i type="int" name="NCORE">     1</i>
  <i type="string" name="GGA">PE</i>
 </incar>
 <primitive_cell>
  <structure name="primitive_cell" >
   <crystal>
    <varray name="basis" >
     <v>       3.86600000       0.00000000       0.00000000 </v>
     <v>       0.00000000       3.86600000       0.00000000 </v>
     <v>       0.00000000       0.00000000       3.86600000 </v>
    </varray>
    <i name="volume">     57.78106590 </i>
    <varray name="rec_basis" >
     <v>       0.25866529       0.00000000       0.00000000 </v>
     <v>       0.00000000       0.25866529       0.00000000 </v>
     <v>       0.00000000       0.00000000       0.25866529 </v>
    </varray>
   </crystal>
   <varray name="positions" >
    <v>       0.00000000       0.00000000       0.00000000 </v>
    <v>       0.50000000       0.50000000       0.00000000 </v>
    <v>       0.50000000       0.00000000       0.50000000 </v>
    <v>       0.00000000       0.50000000       0.50000000 </v>
   </varray>
  </structure>
  <varray name="primitive_index" >
   <v type="int" >        1 </v>
   <v type="int" >        2 </v>
   <v type="int" >        3 </v>
   <v type="int" >        4 </v>
  </varray>
 </primitive_cell>
 <kpoints>
  <generation param="Monkhorst-Pack">
   <v type="int" name="divisions">       5        5        5 </v>
   <v name="usershift">      0.00000000       0.00000000       0.00000000 </v>
   <v name="genvec1">      0.20000000       0.00000000       0.00000000 </v>
   <v name="genvec2">      0.00000000       0.20000000       0.00000000 </v>
   <v name="genvec3">      0.00000000       0.00000000       0.20000000 </v>
   <v name="shift">      0.00000000       0.00000000       0.00000000 </v>
  </generation>
  <varray name="kpointlist" >
   <v>       0.00000000       0.00000000       0.00000000 </v>
   <v>       0.20000000       0.00000000       0.00000000 </v>
   <v>       0.00000000       0.20000000       0.00000000 </v>
   <v>       0.00000000       0.00000000       0.20000000 </v>
   <v>       0.40000000       0.00000000       0.00000000 </v>
   <v>       0.00000000       0.40000000       0.00000000 </v>
   <v>       0.00000000       0.00000000       0.40000000 </v>
   <v>       0.20000000       0.20000000       0.00000000 </v>
   <v>       0.00000000       0.20000000       0.20000000 </v>
   <v>       0.20000000       0.00000000       0.20000000 </v>
   <v>       0.40000000       0.20000000       0.00000000 </v>
   <v>       0.00000000       0.40000000       0.20000000 </v>
   <v>       0.20000000       0.00000000       0.40000000 </v>
   <v>      -0.20000000       0.40000000       0.00000000 </v>
   <v>      -0.40000000       0.00000000       0.20000000 </v>
   <v>       0.00000000       0.20000000       0.40000000 </v>
   <v>       0.40000000       0.40000000       0.00000000 </v>
   <v>       0.00000000       0.40000000       0.40000000 </v>
   <v>       0.40000000       0.00000000       0.40000000 </v>
   <v>       0.20000000       0.20000000       0.20000000 </v>
   <v>       0.40000000       0.20000000       0.20000000 </v>
   <v>       0.20000000       0.40000000       0.20000000 </v>
   <v>       0.20000000       0.20000000       0.40000000 </v>
   <v>       0.40000000       0.40000000       0.20000000 </v>
   <v>       0.20000000       0.40000000       0.40000000 </v>
   <v>       0.40000000       0.20000000       0.40000000 </v>
   <v>       0.40000000       0.40000000       0.40000000 </v>
  </varray>
  <varray name="weights" >
   <v>       0.00800000 </v>
   <v>       0.01600000 </v>
   <v>       0.01600000 </v>
   <v>       0.01600000 </v>
   <v>       0.01600000 </v>
   <v>       0.01600000 </v>
   <v>       0.01600000 </v>
   <v>       0.03200000 </v>
   <v>       0.03200000 </v>
   <v>       0.03200000 </v>
   <v>       0.03200000 </v>
   <v>       0.03200000 </v>
   <v>       0.03200000 </v>
   <v>       0.03200000 </v>
   <v>       0.03200000 </v>
   <v>       0.03200000 </v>
   <v>       0.03200000 </v>
   <v>       0.03200000 </v>
   <v>       0.03200000 </v>
   <v>       0.06400000 </v>
   <v>       0.06400000 </v>
   <v>       0.06400000 </v>
   <v>       0.06400000 </v>
   <v>       0.06400000 </v>
   <v>       0.06400000 </v>
   <v>       0.06400000 </v>
   <v>       0.06400000 </v>
  </varray>
 </kpoints>
 <parameters>
  <separator name="general" >
   <i type="string" name="SYSTEM">unknown system</i>
   <i type="logical" name="LCOMPAT"> F  </i>
  </separator>
  <separator name="electronic" >
   <i type="string" name="PREC">normal</i>
   <i name="ENMAX">    230.00000000</i>
   <i name="ENAUG">    586.98000000</i>
   <i name="EDIFF">      0.00000100</i>
   <i type="int" name="IALGO">    38</i>
   <i type="int" name="IWAVPR">     0</i>
   <i type="int" name="NBANDS">    30</i>
   <i type="int" name="NBANDSLOW">    -1</i>
   <i type="int" name="NBANDSHIGH">    -1</i>
   <i name="NELECT">     40.00000000</i>
   <i type="int" name="TURBO">     0</i>
   <i type="int" name="IRESTART">     0</i>
   <i type="int" name="NREBOOT">     0</i>
   <i type="int" name="NMIN">     0</i>
   <i name="EREF">      0.00000000</i>
   <separator name="electronic smearing" >
    <i type="int" name="ISMEAR">     1</i>
    <i name="SIGMA">      0.20000000</i>
    <i name="KSPACING">      0.50000000</i>
    <i type="logical" name="KGAMMA"> T  </i>
    <i type="logical" name="KBLOWUP"> T  </i>
   </separator>
   <separator name="electronic projectors" >
    <i type="logical" name="LREAL"> F  </i>
    <v name="ROPT">      0.00000000      0.00000000      0.00000000      0.00000000</v>
    <i type="int" name="LMAXPAW">  -100</i>
    <i type="int" name="LMAXMIX">     2</i>
    <i type="logical" name="NLSPLINE"> F  </i>
   </separator>
   <separator name="electronic startup" >
    <i type="int" name="ISTART">     1</i>
    <i type="int" name="ICHARG">     1</i>
    <i type="int" name="INIWAV">     1</i>
   </separator>
   <separator name="electronic spin" >
    <i type="int" name="ISPIN">     1</i>
    <i type="logical" name="LNONCOLLINEAR"> F  </i>
    <v name="MAGMOM">      1.00000000      1.00000000      1.00000000      1.00000000</v>
    <i name="NUPDOWN">     -1.00000000</i>
    <i type="logical" name="LSORBIT"> F  </i>
    <v name="SAXIS">      0.00000000      0.00000000      1.00000000</v>
    <i type="logical" name="LSPIRAL"> F  </i>
    <v name="QSPIRAL">      0.00000000      0.00000000      0.00000000</v>
    <i type="logical" name="LZEROZ"> F  </i>
   </separator>
   <separator name="electronic exchange-correlation" >
    <i type="logical" name="LASPH"> F  </i>
    <i type="logical" name="LMETAGGA"> F  </i>
   </separator>
   <separator name="electronic convergence" >
    <i type="int" name="NELM">    60</i>
    <i type="int" name="NELMDL">     0</i>
    <i type="int" name="NELMIN">     2</i>
    <i name="ENINI">    230.00000000</i>
    <separator name="electronic convergence detail" >
     <i type="logical" name="LDIAG"> T  </i>
     <i type="logical" name="LSUBROT"> F  </i>
     <i name="WEIMIN">      0.00000000</i>
     <i name="EBREAK">      0.00000001</i>
     <i name="DEPER">      0.30000000</i>
     <i type="int" name="NRMM">     4</i>
     <i name="TIME">      0.40000000</i>
    </separator>
   </separator>
   <separator name="electronic mixer" >
    <i name="AMIX">      0.40000000</i>
    <i name="BMIX">      1.00000000</i>
    <i name="AMIN">      0.10000000</i>
    <i name="AMIX_MAG">      1.60000000</i>
    <i name="BMIX_MAG">      1.00000000</i>
    <separator name="electronic mixer details" >
     <i type="int" name="IMIX">     4</i>
     <i type="logical" name="MIXFIRST"> F  </i>
     <i type="int" name="MAXMIX">   -45</i>
     <i name="WC">    100.00000000</i>
     <i type="int" name="INIMIX">     1</i>
     <i type="int" name="MIXPRE">     1</i>
     <i type="int" name="MREMOVE">     5</i>
    </separator>
   </separator>
   <separator name="electronic dipolcorrection" >
    <i type="logical" name="LDIPOL"> F  </i>
    <i type="logical" name="LMONO"> F  </i>
    <i type="int" name="IDIPOL">     0</i>
    <i name="EPSILON">      1.00000000</i>
    <v name="DIPOL">   -100.00000000   -100.00000000   -100.00000000</v>
    <i name="EFIELD">      0.00000000</i>
   </separator>
  </separator>
  <separator name="grids" >
   <i type="int" name="NGX">    14</i>
   <i type="int" name="NGY">    14</i>
   <i type="int" name="NGZ">    14</i>
   <i type="int" name="NGXF">    28</i>
   <i type="int" name="NGYF">    28</i>
   <i type="int" name="NGZF">    28</i>
   <i type="logical" name="ADDGRID"> F  </i>
  </separator>
  <separator name="ionic" >
   <i type="int" name="NSW">     0</i>
   <i type="int" name="IBRION">    -1</i>
   <i type="int" name="MDALGO">     0</i>
   <i type="int" name="ISIF">     2</i>
   <i name="PSTRESS">      0.00000000</i>
   <i name="EDIFFG">      0.00001000</i>
   <i type="int" name="NFREE">     0</i>
   <i name="POTIM">      0.50000000</i>
   <i name="SMASS">     -3.00000000</i>
   <i name="SCALEE">      1.00000000</i>
  </separator>
  <separator name="ionic md" >
   <i name="TEBEG">      0.00010000</i>
   <i name="TEEND">      0.00010000</i>
   <i type="int" name="NBLOCK">     1</i>
   <i type="int" name="KBLOCK">     1</i>
   <i type="int" name="NPACO">   256</i>
   <i name="APACO">     16.00000000</i>
  </separator>
  <separator name="symmetry" >
   <i type="int" name="ISYM">     2</i>
   <i name="SYMPREC">      0.00001000</i>
  </separator>
  <separator name="dos" >
   <i type="int" name="LORBIT">     0</i>
   <v name="RWIGS">     -1.00000000     -1.00000000     -1.00000000     -1.00000000</v>
   <i type="int" name="NEDOS">   301</i>
   <i name="EMIN">     10.00000000</i>
   <i name="EMAX">    -10.00000000</i>
   <i name="EFERMI">      0.00000000</i>
  </separator>
  <separator name="writing" >
   <i type="int" name="NWRITE">     2</i>
   <i type="logical" name="LWAVE"> T  </i>
   <i type="logical" name="LDOWNSAMPLE"> F  </i>
   <i type="logical" name="LCHARG"> T  </i>
   <i type="logical" name="LPARD"> F  </i>
   <i type="logical" name="LVTOT"> F  </i>
   <i type="logical" name="LVHAR"> F  </i>
   <i type="logical" name="LELF"> F  </i>
   <i type="logical" name="LOPTICS"> F  </i>
   <v name="STM">      0.00000000      0.00000000      0.00000000      0.00000000      0.00000000      0.00000000      0.00000000</v>
  </separator>
  <separator name="performance" >
   <i type="int" name="NPAR">     1</i>
   <i type="int" name="NSIM">     4</i>
   <i type="int" name="NBLK">    -1</i>
   <i type="logical" name="LPLANE"> T  </i>
   <i type="logical" name="LSCALAPACK"> F  </i>
   <i type="logical" name="LSCAAWARE"> F  </i>
   <i type="logical" name="LSCALU"> F  </i>
   <i type="logical" name="LASYNC"> F  </i>
   <i type="logical" name="LORBITALREAL"> F  </i>
  </separator>
  <separator name="miscellaneous" >
   <i type="int" name="IDIOT">     3</i>
   <i type="int" name="PHON_NSTRUCT">    -1</i>
   <i type="logical" name="LMUSIC"> F  </i>
   <v name="POMASS">    106.42000000    192.22000000    195.08000000     63.54600000</v>
   <v name="DARWINR">      0.00000000      0.00000000      0.00000000      0.00000000</v>
   <v name="DARWINV">      1.00000000      1.00000000      1.00000000      1.00000000</v>
   <i type="logical" name="LCORR"> T  </i>
  </separator>
  <i type="logical" name="GGA_COMPAT"> T  </i>
  <i type="logical" name="LBERRY"> F  </i>
  <i type="int" name="ICORELEVEL">     0</i>
  <i type="logical" name="LDAU"> F  </i>
  <i type="int" name="I_CONSTRAINED_M">     0</i>
  <separator name="electronic exchange-correlation" >
   <i type="string" name="GGA">PE</i>
   <i type="int" name="VOSKOWN">     0</i>
   <i type="logical" name="LHFCALC"> F  </i>
   <i type="string" name="PRECFOCK"></i>
   <i type="logical" name="LSYMGRAD"> F  </i>
   <i type="logical" name="LHFONE"> F  </i>
   <i type="logical" name="LRHFCALC"> F  </i>
   <i type="logical" name="LTHOMAS"> F  </i>
   <i type="logical" name="LMODELHF"> F  </i>
   <i type="logical" name="LFOCKACE"> F  </i>
   <i name="ENCUT4O">     -1.00000000</i>
   <i type="int" name="EXXOEP">     0</i>
   <i type="int" name="FOURORBIT">     0</i>
   <i name="AEXX">      0.00000000</i>
   <i name="HFALPHA">      0.00000000</i>
   <i name="MCALPHA">      0.00000000</i>
   <i name="ALDAX">      1.00000000</i>
   <i name="AGGAX">      1.00000000</i>
   <i name="ALDAC">      1.00000000</i>
   <i name="AGGAC">      1.00000000</i>
   <i type="int" name="NKREDX">     1</i>
   <i type="int" name="NKREDY">     1</i>
   <i type="int" name="NKREDZ">     1</i>
   <i type="logical" name="SHIFTRED"> F  </i>
   <i type="logical" name="ODDONLY"> F  </i>
   <i type="logical" name="EVENONLY"> F  </i>
   <i type="int" name="LMAXFOCK">     0</i>
   <i type="int" name="NMAXFOCKAE">     0</i>
   <i type="logical" name="LFOCKAEDFT"> F  </i>
   <i name="HFSCREEN">      0.00000000</i>
   <i name="HFSCREENC">      0.00000000</i>
   <i type="int" name="NBANDSGWLOW">     0</i>
  </separator>
  <separator name="vdW DFT" >
   <i type="logical" name="LUSE_VDW"> F  </i>
   <i name="Zab_VDW">     -0.84910000</i>
   <i name="PARAM1">      0.12340000</i>
   <i name="PARAM2">      1.00000000</i>
   <i name="PARAM3">      0.00000000</i>
  </separator>
  <separator name="model GW" >
   <i type="int" name="MODEL_GW">     0</i>
   <i name="MODEL_EPS0">      8.66715988</i>
   <i name="MODEL_ALPHA">      1.00000000</i>
  </separator>
  <separator name="linear response parameters" >
   <i type="logical" name="LEPSILON"> F  </i>
   <i type="logical" name="LRPA"> F  </i>
   <i type="logical" name="LNABLA"> F  </i>
   <i type="logical" name="LVEL"> F  </i>
   <i type="int" name="KINTER">     0</i>
   <i name="CSHIFT">      0.10000000</i>
   <i name="OMEGAMAX">     -1.00000000</i>
   <i name="DEG_THRESHOLD">      0.00200000</i>
   <i name="RTIME">     -0.10000000</i>
   <i name="WPLASMAI">      0.00000000</i>
   <v name="DFIELD">      0.00000000      0.00000000      0.00000000</v>
   <v name="WPLASMA">      0.00000000      0.00000000      0.00000000      0.00000000      0.00000000      0.00000000      0.00000000      0.00000000      0.00000000</v>
  </separator>
  <separator name="orbital magnetization" >
   <i type="logical" name="NUCIND"> F  </i>
   <v name="MAGPOS">      0.00000000      0.00000000      0.00000000</v>
   <i type="logical" name="LNICSALL"> T  </i>
   <i type="logical" name="ORBITALMAG"> F  </i>
   <i type="logical" name="LMAGBLOCH"> F  </i>
   <i type="logical" name="LCHIMAG"> F  </i>
   <i type="logical" name="LGAUGE"> T  </i>
   <i type="int" name="MAGATOM">     0</i>
   <v name="MAGDIPOL">      0.00000000      0.00000000      0.00000000</v>
   <v name="AVECCONST">      0.00000000      0.00000000      0.00000000</v>
  </separator>
  <separator name="response functions" >
   <i type="logical" name="LFINITE_TEMPERATURE"> F  </i>
   <i type="logical" name="LADDER"> F  </i>
   <i type="logical" name="LRPAFORCE"> F  </i>
   <i type="logical" name="LFXC"> F  </i>
   <i type="logical" name="LHARTREE"> T  </i>
   <i type="int" name="IBSE">     0</i>
   <v type="int" name="KPOINT">    -1     0     0     0</v>
   <i type="logical" name="LTCTC"> F  </i>
   <i type="logical" name="LTCTE"> F  </i>
   <i type="logical" name="LTETE"> F  </i>
   <i type="logical" name="LTRIPLET"> F  </i>
   <i type="logical" name="LFXCEPS"> F  </i>
   <i type="logical" name="LFXHEG"> F  </i>
   <i type="int" name="NATURALO">     2</i>
   <i type="logical" name="LHOLEGF"> F  </i>
   <i type="logical" name="L2ORDER"> F  </i>
   <i type="logical" name="LDMP1"> F  </i>
   <i type="logical" name="LMP2LT"> F  </i>
   <i type="logical" name="LSMP2LT"> F  </i>
   <i type="logical" name="LGWLF"> F  </i>
   <i name="ENCUTGW">     -2.00000000</i>
   <i name="ENCUTGWSOFT">     -2.00000000</i>
   <i name="ENCUTLF">     -1.00000000</i>
   <i type="logical" name="LESF_SPLINES"> F  </i>
   <i type="int" name="LMAXMP2">    -1</i>
   <i name="SCISSOR">      0.00000000</i>
   <i type="int" name="NOMEGA">     0</i>
   <i type="int" name="NOMEGAR">     0</i>
   <i type="int" name="NBANDSGW">    -1</i>
   <i type="int" name="NBANDSO">    -1</i>
   <i type="int" name="NBANDSV">    -1</i>
   <i type="int" name="NELM">     1</i>
   <i type="int" name="NELMHF">     1</i>
   <i type="int" name="DIM">     3</i>
   <i type="int" name="IESPILON">     4</i>
   <i type="int" name="ANTIRES">     0</i>
   <i name="OMEGAMAX">    -30.00000000</i>
   <i name="OMEGAMIN">    -30.00000000</i>
   <i name="OMEGATL">   -200.00000000</i>
   <i type="int" name="OMEGAGRID">     0</i>
   <i name="CSHIFT">     -0.10000000</i>
   <i type="logical" name="LSELFENERGY"> F  </i>
   <i type="logical" name="LSPECTRAL"> F  </i>
   <i type="logical" name="LSPECTRALGW"> F  </i>
   <i type="logical" name="LSINGLES"> F  </i>
   <i type="logical" name="LFERMIGW"> F  </i>
   <i type="logical" name="ODDONLYGW"> F  </i>
   <i type="logical" name="EVENONLYGW"> F  </i>
   <i type="int" name="NKREDLFX">     1</i>
   <i type="int" name="NKREDLFY">     1</i>
   <i type="int" name="NKREDLFZ">     1</i>
   <i type="int" name="MAXMEM">  2800</i>
   <i type="int" name="TELESCOPE">     0</i>
   <i type="int" name="NTAUPAR">    -1</i>
   <i type="int" name="NOMEGAPAR">    -1</i>
   <i name="DAMP_NEWTON">      0.80000001</i>
   <i name="LAMBDA">      1.00000000</i>
  </separator>
  <separator name="External order field" >
   <i name="OFIELD_KAPPA">      0.00000000</i>
   <v name="OFIELD_K">      0.00000000      0.00000000      0.00000000</v>
   <i name="OFIELD_Q6_NEAR">      0.00000000</i>
   <i name="OFIELD_Q6_FAR">      0.00000000</i>
   <i name="OFIELD_A">      0.00000000</i>
  </separator>
 </parameters>
 <atominfo>
  <atoms>       4 </atoms>
  <types>       4 </types>
  <array name="atoms" >
   <dimension dim="1">ion</dimension>
   <field type="string">element</field>
   <field type="int">atomtype</field>
   <set>
    <rc><c>Pd</c><c>   1</c></rc>
    <rc><c>Ir</c><c>   2</c></rc>
    <rc><c>Pt</c><c>   3</c></rc>
    <rc><c>Cu</c><c>   4</c></rc>
   </set>
  </array>
  <array name="atomtypes" >
   <dimension dim="1">type</dimension>
   <field type="int">atomspertype</field>
   <field type="string">element</field>
   <field>mass</field>
   <field>valence</field>
   <field type="string">pseudopotential</field>
   <set>
    <rc><c>   1</c><c>Pd</c><c>    106.42000000</c><c>     10.00000000</c><c>  PAW_PBE Pd 04Jan2005                  </c></rc>
    <rc><c>   1</c><c>Ir</c><c>    192.22000000</c><c>      9.00000000</c><c>  PAW_PBE Ir 06Sep2000                  </c></rc>
    <rc><c>   1</c><c>Pt</c><c>    195.08000000</c><c>     10.00000000</c><c>  PAW_PBE Pt 04Feb2005                  </c></rc>
    <rc><c>   1</c><c>Cu</c><c>     63.54600000</c><c>     11.00000000</c><c>  PAW_PBE Cu 22Jun2005                  </c></rc>
   </set>
  </array>
 </atominfo>
 <structure name="initialpos" >
  <crystal>
   <varray name="basis" >
    <v>       3.86600000       0.00000000       0.00000000 </v>
    <v>       0.00000000       3.86600000       0.00000000 </v>
    <v>       0.00000000       0.00000000       3.86600000 </v>
   </varray>
   <i name="volume">     57.78106590 </i>
   <varray name="rec_basis" >
    <v>       0.25866529       0.00000000       0.00000000 </v>
    <v>       0.00000000       0.25866529       0.00000000 </v>
    <v>       0.00000000       0.00000000       0.25866529 </v>
   </varray>
  </crystal>
  <varray name="positions" >
   <v>       0.00000000       0.00000000       0.00000000 </v>
   <v>       0.50000000       0.50000000       0.00000000 </v>
   <v>       0.50000000       0.00000000       0.50000000 </v>
   <v>       0.00000000       0.50000000       0.50000000 </v>
  </varray>
 </structure>
 <calculation>
  <scstep>
   <time name="dav">    0.30    0.32</time>
   <time name="total">    0.33    0.35</time>
   <energy>
    <i name="alphaZ">    244.65455147 </i>
    <i name="ewald">  -3423.86860972 </i>
    <i name="hartreedc">   -596.42700546 </i>
    <i name="XCdc">      1.62830556 </i>
    <i name="pawpsdc">   3929.66729620 </i>
    <i name="pawaedc">  -3913.42707780 </i>
    <i name="eentropy">     -0.00551600 </i>
    <i name="bandstr">    245.41227407 </i>
    <i name="atom">   3489.19860195 </i>
    <i name="e_fr_energy">    -23.16717973 </i>
    <i name="e_wo_entrp">    -23.16166374 </i>
    <i name="e_0_energy">    -23.16534107 </i>
   </energy>
  </scstep>
  <scstep>
   <time name="dav">    0.26    0.26</time>
   <time name="total">    0.29    0.29</time>
   <energy>
    <i name="e_fr_energy">    -23.14023984 </i>
    <i name="e_wo_entrp">    -23.13350264 </i>
    <i name="e_0_energy">    -23.13799411 </i>
   </energy>
  </scstep>
  <scstep>
   <time name="dav">    0.28    0.28</time>
   <time name="total">    0.31    0.31</time>
   <energy>
    <i name="e_fr_energy">    -23.13957952 </i>
    <i name="e_wo_entrp">    -23.13340316 </i>
    <i name="e_0_energy">    -23.13752074 </i>
   </energy>
  </scstep>
  <scstep>
   <time name="dav">    0.30    0.30</time>
   <time name="total">    0.33    0.33</time>
   <energy>
    <i name="e_fr_energy">    -23.13957690 </i>
    <i name="e_wo_entrp">    -23.13326787 </i>
    <i name="e_0_energy">    -23.13747389 </i>
   </energy>
  </scstep>
  <scstep>
   <time name="dav">    0.26    0.26</time>
   <time name="total">    0.29    0.29</time>
   <energy>
    <i name="e_fr_energy">    -23.13957085 </i>
    <i name="e_wo_entrp">    -23.13333145 </i>
    <i name="e_0_energy">    -23.13749105 </i>
   </energy>
  </scstep>
  <scstep>
   <time name="dav">    0.16    0.16</time>
   <time name="total">    0.17    0.18</time>
   <energy>
    <i name="alphaZ">    244.65455147 </i>
    <i name="ewald">  -3423.86860972 </i>
    <i name="hartreedc">   -596.42637053 </i>
    <i name="XCdc">      1.62893064 </i>
    <i name="pawpsdc">   3929.83759902 </i>
    <i name="pawaedc">  -3913.62606128 </i>
    <i name="eentropy">     -0.00623757 </i>
    <i name="bandstr">    245.46802517 </i>
    <i name="atom">   3489.19860195 </i>
    <i name="e_fr_energy">    -23.13957086 </i>
    <i name="e_wo_entrp">    -23.13333329 </i>
    <i name="e_0_energy">    -23.13749167 </i>
   </energy>
  </scstep>
  <structure>
   <crystal>
    <varray name="basis" >
     <v>       3.86600000       0.00000000       0.00000000 </v>
     <v>       0.00000000       3.86600000       0.00000000 </v>
     <v>       0.00000000       0.00000000       3.86600000 </v>
    </varray>
    <i name="volume">     57.78106590 </i>
    <varray name="rec_basis" >
     <v>       0.25866529       0.00000000       0.00000000 </v>
     <v>       0.00000000       0.25866529       0.00000000 </v>
     <v>       0.00000000       0.00000000       0.25866529 </v>
    </varray>
   </crystal>
   <varray name="positions" >
    <v>       0.00000000       0.00000000       0.00000000 </v>
    <v>       0.50000000       0.50000000       0.00000000 </v>
    <v>       0.50000000       0.00000000       0.50000000 </v>
    <v>       0.00000000       0.50000000       0.50000000 </v>
   </varray>
  </structure>
  <varray name="forces" >
   <v>       0.00000000       0.00000000      -0.00000000 </v>
   <v>      -0.00000000       0.00000000      -0.00000000 </v>
   <v>       0.00000000       0.00000000      -0.00000000 </v>
   <v>      -0.00000000      -0.00000000       0.00000000 </v>
  </varray>
  <varray name="stress" >
   <v>    -221.54850512       0.00000000       0.00000000 </v>
   <v>       0.00000000    -231.78760983       0.00000000 </v>
   <v>       0.00000000       0.00000000    -246.24970501 </v>
  </varray>
  <energy>
   <i name="e_fr_energy">    -23.13957086 </i>
   <i name="e_wo_entrp">    -23.13333329 </i>
   <i name="e_0_energy">    -23.13749167 </i>
  </energy>
  <time name="totalsc">    1.98    2.01</time>
  <eigenvalues>
   <array>
    <dimension dim="1">band</dimension>
    <dimension dim="2">kpoint</dimension>
    <dimension dim="3">spin</dimension>
    <field>eigene</field>
    <field>occ</field>
    <set>
     <set comment="spin 1">
      <set comment="kpoint 1">
       <r>    0.1024    1.0000 </r>
       <r>    2.5752    1.0000 </r>
       <r>    3.5263    1.0000 </r>
       <r>    3.5382    1.0000 </r>
       <r>    3.6126    1.0000 </r>
       <r>    3.7072    1.0000 </r>
       <r>    3.7160    1.0000 </r>
       <r>    6.1881    1.0000 </r>
       <r>    6.1925    1.0000 </r>
       <r>    6.3331    1.0000 </r>
       <r>    7.4112    1.0000 </r>
       <r>    7.5434    1.0000 </r>
       <r>    8.1817    1.0000 </r>
       <r>    8.3478    1.0000 </r>
       <r>    8.5021    1.0000 </r>
       <r>    9.2066    0.4671 </r>
       <r>    9.3795   -0.0120 </r>
       <r>    9.4747   -0.0325 </r>
       <r>    9.7558   -0.0003 </r>
       <r>   10.2291   -0.0000 </r>
       <r>   10.8100   -0.0000 </r>
       <r>   11.3959   -0.0000 </r>
       <r>   11.4040   -0.0000 </r>
       <r>   11.4167   -0.0000 </r>
       <r>   17.8809    0.0000 </r>
       <r>   18.1457    0.0000 </r>
       <r>   19.7479    0.0000 </r>
       <r>   20.3010    0.0000 </r>
       <r>   20.4458    0.0000 </r>
       <r>   20.6838    0.0000 </r>
      </set>
      <set comment="kpoint 2">
       <r>    0.5689    1.0000 </r>
       <r>    2.8787    1.0000 </r>
       <r>    3.6958    1.0000 </r>
       <r>    3.6969    1.0000 </r>
       <r>    3.8985    1.0000 </r>
       <r>    3.9829    1.0000 </r>
       <r>    4.0465    1.0000 </r>
       <r>    5.9657    1.0000 </r>
       <r>    6.3361    1.0000 </r>
       <r>    6.4977    1.0000 </r>
       <r>    7.3264    1.0000 </r>
       <r>    7.4657    1.0000 </r>
       <r>    7.6613    1.0000 </r>
       <r>    7.8483    1.0000 </r>
       <r>    7.9731    1.0000 </r>
       <r>    8.1848    1.0000 </r>
       <r>    8.9981    1.0255 </r>
       <r>    9.0911    0.8905 </r>
       <r>    9.2323    0.3607 </r>
       <r>    9.4587   -0.0347 </r>
       <r>    9.7190   -0.0007 </r>
       <r>   10.8097   -0.0000 </r>
       <r>   13.1810   -0.0000 </r>
       <r>   13.1858   -0.0000 </r>
       <r>   17.8895    0.0000 </r>
       <r>   18.0207    0.0000 </r>
       <r>   20.3956    0.0000 </r>
       <r>   20.4369    0.0000 </r>
       <r>   20.5972    0.0000 </r>
       <r>   20.9784    0.0000 </r>
      </set>
      <set comment="kpoint 3">
       <r>    0.6210    1.0000 </r>
       <r>    2.8961    1.0000 </r>
       <r>    3.6503    1.0000 </r>
       <r>    3.7676    1.0000 </r>
       <r>    3.8407    1.0000 </r>
       <r>    3.9786    1.0000 </r>
       <r>    4.0781    1.0000 </r>
       <r>    6.1430    1.0000 </r>
       <r>    6.3618    1.0000 </r>
       <r>    6.3708    1.0000 </r>
       <r>    7.2568    1.0000 </r>
       <r>    7.5940    1.0000 </r>
       <r>    7.5941    1.0000 </r>
       <r>    7.7528    1.0000 </r>
       <r>    8.2475    1.0000 </r>
       <r>    8.7373    1.0026 </r>
       <r>    9.0047    1.0218 </r>
       <r>    9.1725    0.6102 </r>
       <r>    9.2156    0.4294 </r>
       <r>    9.2802    0.1852 </r>
       <r>    9.4604   -0.0345 </r>
       <r>    9.7015   -0.0011 </r>
       <r>   13.2926   -0.0000 </r>
       <r>   13.4108   -0.0000 </r>
       <r>   17.4288    0.0000 </r>
       <r>   18.6664    0.0000 </r>
       <r>   20.3307    0.0000 </r>
       <r>   20.3921    0.0000 </r>
       <r>   20.5921    0.0000 </r>
       <r>   21.2814    0.0000 </r>
      </set>
      <set comment="kpoint 4">
       <r>    0.6228    1.0000 </r>
       <r>    2.9087    1.0000 </r>
       <r>    3.8039    1.0000 </r>
       <r>    3.8497    1.0000 </r>
       <r>    3.8899    1.0000 </r>
       <r>    3.8908    1.0000 </r>
       <r>    3.9041    1.0000 </r>
       <r>    5.9564    1.0000 </r>
       <r>    6.3323    1.0000 </r>
       <r>    6.5007    1.0000 </r>
       <r>    7.2640    1.0000 </r>
       <r>    7.5599    1.0000 </r>
       <r>    7.5621    1.0000 </r>
       <r>    7.9347    1.0000 </r>
       <r>    8.0568    1.0000 </r>
       <r>    8.4900    1.0000 </r>
       <r>    8.8259    1.0121 </r>
       <r>    9.1173    0.8152 </r>
       <r>    9.1552    0.6799 </r>
       <r>    9.2954    0.1394 </r>
       <r>    9.7321   -0.0005 </r>
       <r>   10.2168   -0.0000 </r>
       <r>   13.2629   -0.0000 </r>
       <r>   13.3764   -0.0000 </r>
       <r>   17.1155    0.0000 </r>
       <r>   18.8733    0.0000 </r>
       <r>   20.4210    0.0000 </r>
       <r>   20.4448    0.0000 </r>
       <r>   20.7119    0.0000 </r>
       <r>   21.2031    0.0000 </r>
      </set>
      <set comment="kpoint 5">
       <r>    1.6761    1.0000 </r>
       <r>    3.4995    1.0000 </r>
       <r>    3.7999    1.0000 </r>
       <r>    4.0481    1.0000 </r>
       <r>    4.7015    1.0000 </r>
       <r>    4.7410    1.0000 </r>
       <r>    4.8269    1.0000 </r>
       <r>    5.4973    1.0000 </r>
       <r>    6.0251    1.0000 </r>
       <r>    6.1270    1.0000 </r>
       <r>    6.8478    1.0000 </r>
       <r>    6.9171    1.0000 </r>
       <r>    6.9524    1.0000 </r>
       <r>    7.1462    1.0000 </r>
       <r>    7.3106    1.0000 </r>
       <r>    7.5300    1.0000 </r>
       <r>    8.1684    1.0000 </r>
       <r>    8.2103    1.0000 </r>
       <r>    8.2401    1.0000 </r>
       <r>    8.5442    1.0000 </r>
       <r>    9.3324    0.0518 </r>
       <r>   10.8070   -0.0000 </r>
       <r>   15.7256    0.0000 </r>
       <r>   15.8009    0.0000 </r>
       <r>   17.0618    0.0000 </r>
       <r>   18.0195    0.0000 </r>
       <r>   18.6185    0.0000 </r>
       <r>   18.7401    0.0000 </r>
       <r>   19.1405    0.0000 </r>
       <r>   21.8270    0.0000 </r>
      </set>
      <set comment="kpoint 6">
       <r>    1.9941    1.0000 </r>
       <r>    3.2963    1.0000 </r>
       <r>    3.7671    1.0000 </r>
       <r>    4.0966    1.0000 </r>
       <r>    4.6340    1.0000 </r>
       <r>    4.6850    1.0000 </r>
       <r>    4.9587    1.0000 </r>
       <r>    5.7269    1.0000 </r>
       <r>    6.3365    1.0000 </r>
       <r>    6.3597    1.0000 </r>
       <r>    6.8090    1.0000 </r>
       <r>    6.8765    1.0000 </r>
       <r>    6.9007    1.0000 </r>
       <r>    7.0754    1.0000 </r>
       <r>    7.5270    1.0000 </r>
       <r>    7.8709    1.0000 </r>
       <r>    7.8787    1.0000 </r>
       <r>    8.0622    1.0000 </r>
       <r>    8.1731    1.0000 </r>
       <r>    8.4216    1.0000 </r>
       <r>    9.1094    0.8397 </r>
       <r>    9.4399   -0.0354 </r>
       <r>   15.9218    0.0000 </r>
       <r>   15.9675    0.0000 </r>
       <r>   16.6911    0.0000 </r>
       <r>   18.4773    0.0000 </r>
       <r>   18.4898    0.0000 </r>
       <r>   18.6301    0.0000 </r>
       <r>   20.4699    0.0000 </r>
       <r>   20.7388    0.0000 </r>
      </set>
      <set comment="kpoint 7">
       <r>    2.0102    1.0000 </r>
       <r>    3.2936    1.0000 </r>
       <r>    3.9778    1.0000 </r>
       <r>    4.3372    1.0000 </r>
       <r>    4.6314    1.0000 </r>
       <r>    4.7229    1.0000 </r>
       <r>    4.7372    1.0000 </r>
       <r>    5.4006    1.0000 </r>
       <r>    6.0210    1.0000 </r>
       <r>    6.1385    1.0000 </r>
       <r>    6.8200    1.0000 </r>
       <r>    6.9655    1.0000 </r>
       <r>    6.9662    1.0000 </r>
       <r>    7.1001    1.0000 </r>
       <r>    7.3626    1.0000 </r>
       <r>    7.6667    1.0000 </r>
       <r>    8.0155    1.0000 </r>
       <r>    8.0433    1.0000 </r>
       <r>    8.4159    1.0000 </r>
       <r>    8.4586    1.0000 </r>
       <r>    8.9169    1.0314 </r>
       <r>   10.1947   -0.0000 </r>
       <r>   15.8960    0.0000 </r>
       <r>   16.0219    0.0000 </r>
       <r>   16.2485    0.0000 </r>
       <r>   18.4502    0.0000 </r>
       <r>   18.7236    0.0000 </r>
       <r>   18.9808    0.0000 </r>
       <r>   20.0606    0.0000 </r>
       <r>   21.0975    0.0000 </r>
      </set>
      <set comment="kpoint 8">
       <r>    1.0655    1.0000 </r>
       <r>    3.1875    1.0000 </r>
       <r>    3.9264    1.0000 </r>
       <r>    3.9268    1.0000 </r>
       <r>    4.0996    1.0000 </r>
       <r>    4.1000    1.0000 </r>
       <r>    4.3912    1.0000 </r>
       <r>    5.9089    1.0000 </r>
       <r>    6.3879    1.0000 </r>
       <r>    6.5257    1.0000 </r>
       <r>    7.0482    1.0000 </r>
       <r>    7.2419    1.0000 </r>
       <r>    7.2660    1.0000 </r>
       <r>    7.3262    1.0000 </r>
       <r>    7.7846    1.0000 </r>
       <r>    7.9742    1.0000 </r>
       <r>    8.3311    1.0000 </r>
       <r>    8.9001    1.0279 </r>
       <r>    8.9565    1.0354 </r>
       <r>    9.0508    0.9732 </r>
       <r>    9.7239   -0.0007 </r>
       <r>   10.8904   -0.0000 </r>
       <r>   11.8819   -0.0000 </r>
       <r>   14.5564   -0.0000 </r>
       <r>   16.9638    0.0000 </r>
       <r>   19.0186    0.0000 </r>
       <r>   20.0449    0.0000 </r>
       <r>   20.4146    0.0000 </r>
       <r>   21.0529    0.0000 </r>
       <r>   21.6876    0.0000 </r>
      </set>
      <set comment="kpoint 9">
       <r>    1.0920    1.0000 </r>
       <r>    3.2211    1.0000 </r>
       <r>    3.9090    1.0000 </r>
       <r>    3.9731    1.0000 </r>
       <r>    4.0393    1.0000 </r>
       <r>    4.2107    1.0000 </r>
       <r>    4.3365    1.0000 </r>
       <r>    5.8952    1.0000 </r>
       <r>    6.3855    1.0000 </r>
       <r>    6.5305    1.0000 </r>
       <r>    7.0675    1.0000 </r>
       <r>    7.2190    1.0000 </r>
       <r>    7.2853    1.0000 </r>
       <r>    7.3107    1.0000 </r>
       <r>    7.7436    1.0000 </r>
       <r>    8.0758    1.0000 </r>
       <r>    8.4334    1.0000 </r>
       <r>    8.7049    1.0013 </r>
       <r>    8.9080    1.0297 </r>
       <r>    8.9162    1.0313 </r>
       <r>    9.5507   -0.0160 </r>
       <r>   10.9281   -0.0000 </r>
       <r>   12.2456   -0.0000 </r>
       <r>   14.4590   -0.0000 </r>
       <r>   16.8229    0.0000 </r>
       <r>   19.0717    0.0000 </r>
       <r>   19.5304    0.0000 </r>
       <r>   20.9418    0.0000 </r>
       <r>   21.2111    0.0000 </r>
       <r>   21.9222    0.0000 </r>
      </set>
      <set comment="kpoint 10">
       <r>    1.0654    1.0000 </r>
       <r>    3.2035    1.0000 </r>
       <r>    3.9277    1.0000 </r>
       <r>    3.9467    1.0000 </r>
       <r>    4.0679    1.0000 </r>
       <r>    4.2183    1.0000 </r>
       <r>    4.3240    1.0000 </r>
       <r>    5.7675    1.0000 </r>
       <r>    6.4488    1.0000 </r>
       <r>    6.5561    1.0000 </r>
       <r>    7.0130    1.0000 </r>
       <r>    7.2242    1.0000 </r>
       <r>    7.2293    1.0000 </r>
       <r>    7.2871    1.0000 </r>
       <r>    7.7827    1.0000 </r>
       <r>    7.8336    1.0000 </r>
       <r>    8.1974    1.0000 </r>
       <r>    8.9924    1.0281 </r>
       <r>    9.0556    0.9654 </r>
       <r>    9.2526    0.2812 </r>
       <r>    9.8440   -0.0000 </r>
       <r>   11.1376   -0.0000 </r>
       <r>   11.5445   -0.0000 </r>
       <r>   14.5498   -0.0000 </r>
       <r>   16.9307    0.0000 </r>
       <r>   18.9483    0.0000 </r>
       <r>   19.9906    0.0000 </r>
       <r>   20.5375    0.0000 </r>
       <r>   21.1249    0.0000 </r>
       <r>   21.8257    0.0000 </r>
      </set>
      <set comment="kpoint 11">
       <r>    2.1409    1.0000 </r>
       <r>    3.7753    1.0000 </r>
       <r>    4.1227    1.0000 </r>
       <r>    4.2877    1.0000 </r>
       <r>    4.6703    1.0000 </r>
       <r>    4.8317    1.0000 </r>
       <r>    5.0225    1.0000 </r>
       <r>    5.4596    1.0000 </r>
       <r>    5.6661    1.0000 </r>
       <r>    6.0850    1.0000 </r>
       <r>    6.3447    1.0000 </r>
       <r>    6.4730    1.0000 </r>
       <r>    6.9199    1.0000 </r>
       <r>    7.1724    1.0000 </r>
       <r>    7.3101    1.0000 </r>
       <r>    7.6563    1.0000 </r>
       <r>    7.8327    1.0000 </r>
       <r>    8.4001    1.0000 </r>
       <r>    8.4423    1.0000 </r>
       <r>    8.9375    1.0345 </r>
       <r>    9.5487   -0.0164 </r>
       <r>    9.8135   -0.0001 </r>
       <r>   13.1268   -0.0000 </r>
       <r>   15.1980    0.0000 </r>
       <r>   16.9242    0.0000 </r>
       <r>   18.0878    0.0000 </r>
       <r>   19.5679    0.0000 </r>
       <r>   19.8206    0.0000 </r>
       <r>   21.8364    0.0000 </r>
       <r>   23.0813    0.0000 </r>
      </set>
      <set comment="kpoint 12">
       <r>    2.3468    1.0000 </r>
       <r>    3.6370    1.0000 </r>
       <r>    4.0195    1.0000 </r>
       <r>    4.2917    1.0000 </r>
       <r>    4.5896    1.0000 </r>
       <r>    4.8053    1.0000 </r>
       <r>    5.1592    1.0000 </r>
       <r>    5.6335    1.0000 </r>
       <r>    5.7829    1.0000 </r>
       <r>    6.2623    1.0000 </r>
       <r>    6.3262    1.0000 </r>
       <r>    6.4897    1.0000 </r>
       <r>    6.9181    1.0000 </r>
       <r>    7.1332    1.0000 </r>
       <r>    7.6006    1.0000 </r>
       <r>    7.6847    1.0000 </r>
       <r>    7.7557    1.0000 </r>
       <r>    8.1737    1.0000 </r>
       <r>    8.3747    1.0000 </r>
       <r>    8.9417    1.0349 </r>
       <r>    9.0645    0.9496 </r>
       <r>    9.3705   -0.0035 </r>
       <r>   13.6021   -0.0000 </r>
       <r>   15.1532    0.0000 </r>
       <r>   16.7946    0.0000 </r>
       <r>   18.3693    0.0000 </r>
       <r>   19.3893    0.0000 </r>
       <r>   19.5745    0.0000 </r>
       <r>   21.6822    0.0000 </r>
       <r>   23.3098    0.0000 </r>
      </set>
      <set comment="kpoint 13">
       <r>    2.3844    1.0000 </r>
       <r>    3.6451    1.0000 </r>
       <r>    4.2391    1.0000 </r>
       <r>    4.4307    1.0000 </r>
       <r>    4.6257    1.0000 </r>
       <r>    4.9512    1.0000 </r>
       <r>    4.9568    1.0000 </r>
       <r>    5.2838    1.0000 </r>
       <r>    5.5596    1.0000 </r>
       <r>    6.1444    1.0000 </r>
       <r>    6.4101    1.0000 </r>
       <r>    6.5047    1.0000 </r>
       <r>    6.9470    1.0000 </r>
       <r>    7.1846    1.0000 </r>
       <r>    7.3372    1.0000 </r>
       <r>    7.6676    1.0000 </r>
       <r>    7.9730    1.0000 </r>
       <r>    8.2706    1.0000 </r>
       <r>    8.4551    1.0000 </r>
       <r>    8.6853    1.0009 </r>
       <r>    9.2734    0.2075 </r>
       <r>    9.4462   -0.0354 </r>
       <r>   13.4649   -0.0000 </r>
       <r>   15.1960    0.0000 </r>
       <r>   16.8471    0.0000 </r>
       <r>   17.9581    0.0000 </r>
       <r>   19.3771    0.0000 </r>
       <r>   20.1338    0.0000 </r>
       <r>   21.9520    0.0000 </r>
       <r>   22.9649    0.0000 </r>
      </set>
      <set comment="kpoint 14">
       <r>    2.3816    1.0000 </r>
       <r>    3.6248    1.0000 </r>
       <r>    4.0683    1.0000 </r>
       <r>    4.3054    1.0000 </r>
       <r>    4.6091    1.0000 </r>
       <r>    4.7681    1.0000 </r>
       <r>    5.1437    1.0000 </r>
       <r>    5.6377    1.0000 </r>
       <r>    5.9571    1.0000 </r>
       <r>    6.2454    1.0000 </r>
       <r>    6.2466    1.0000 </r>
       <r>    6.4708    1.0000 </r>
       <r>    6.9149    1.0000 </r>
       <r>    7.1682    1.0000 </r>
       <r>    7.5092    1.0000 </r>
       <r>    7.7097    1.0000 </r>
       <r>    7.7882    1.0000 </r>
       <r>    8.1921    1.0000 </r>
       <r>    8.4480    1.0000 </r>
       <r>    8.8500    1.0167 </r>
       <r>    8.9629    1.0351 </r>
       <r>    9.2279    0.3784 </r>
       <r>   13.5161   -0.0000 </r>
       <r>   15.1873    0.0000 </r>
       <r>   16.8452    0.0000 </r>
       <r>   18.3341    0.0000 </r>
       <r>   19.3613    0.0000 </r>
       <r>   19.7543    0.0000 </r>
       <r>   21.9939    0.0000 </r>
       <r>   22.9944    0.0000 </r>
      </set>
      <set comment="kpoint 15">
       <r>    2.1368    1.0000 </r>
       <r>    3.8131    1.0000 </r>
       <r>    4.0818    1.0000 </r>
       <r>    4.2564    1.0000 </r>
       <r>    4.6188    1.0000 </r>
       <r>    4.8782    1.0000 </r>
       <r>    5.0719    1.0000 </r>
       <r>    5.4077    1.0000 </r>
       <r>    5.5774    1.0000 </r>
       <r>    6.1492    1.0000 </r>
       <r>    6.4154    1.0000 </r>
       <r>    6.5171    1.0000 </r>
       <r>    6.9289    1.0000 </r>
       <r>    7.1815    1.0000 </r>
       <r>    7.2750    1.0000 </r>
       <r>    7.6443    1.0000 </r>
       <r>    8.0499    1.0000 </r>
       <r>    8.1494    1.0000 </r>
       <r>    8.5376    1.0000 </r>
       <r>    8.9645    1.0350 </r>
       <r>    9.5143   -0.0241 </r>
       <r>    9.7666   -0.0002 </r>
       <r>   13.1055   -0.0000 </r>
       <r>   15.2620    0.0000 </r>
       <r>   16.8774    0.0000 </r>
       <r>   18.0529    0.0000 </r>
       <r>   19.4718    0.0000 </r>
       <r>   19.7568    0.0000 </r>
       <r>   21.9466    0.0000 </r>
       <r>   22.9656    0.0000 </r>
      </set>
      <set comment="kpoint 16">
       <r>    2.3555    1.0000 </r>
       <r>    3.6187    1.0000 </r>
       <r>    4.2425    1.0000 </r>
       <r>    4.4646    1.0000 </r>
       <r>    4.6410    1.0000 </r>
       <r>    4.9076    1.0000 </r>
       <r>    4.9271    1.0000 </r>
       <r>    5.3502    1.0000 </r>
       <r>    5.5510    1.0000 </r>
       <r>    6.0889    1.0000 </r>
       <r>    6.3206    1.0000 </r>
       <r>    6.5002    1.0000 </r>
       <r>    6.9525    1.0000 </r>
       <r>    7.1360    1.0000 </r>
       <r>    7.4319    1.0000 </r>
       <r>    7.6884    1.0000 </r>
       <r>    7.7546    1.0000 </r>
       <r>    8.3013    1.0000 </r>
       <r>    8.6028    1.0001 </r>
       <r>    8.6251    1.0002 </r>
       <r>    9.4637   -0.0341 </r>
       <r>    9.5661   -0.0131 </r>
       <r>   13.5618   -0.0000 </r>
       <r>   15.0964    0.0000 </r>
       <r>   16.8506    0.0000 </r>
       <r>   18.0132    0.0000 </r>
       <r>   19.4945    0.0000 </r>
       <r>   20.0164    0.0000 </r>
       <r>   21.5605    0.0000 </r>
       <r>   23.4175    0.0000 </r>
      </set>
      <set comment="kpoint 17">
       <r>    3.2864    1.0000 </r>
       <r>    4.2054    1.0000 </r>
       <r>    4.4689    1.0000 </r>
       <r>    4.7961    1.0000 </r>
       <r>    4.8707    1.0000 </r>
       <r>    5.0854    1.0000 </r>
       <r>    5.2010    1.0000 </r>
       <r>    5.3216    1.0000 </r>
       <r>    5.3693    1.0000 </r>
       <r>    5.8603    1.0000 </r>
       <r>    5.9973    1.0000 </r>
       <r>    6.2658    1.0000 </r>
       <r>    6.8980    1.0000 </r>
       <r>    7.0778    1.0000 </r>
       <r>    7.0889    1.0000 </r>
       <r>    7.3202    1.0000 </r>
       <r>    7.5117    1.0000 </r>
       <r>    8.0983    1.0000 </r>
       <r>    8.4051    1.0000 </r>
       <r>    8.4373    1.0000 </r>
       <r>    9.1439    0.7229 </r>
       <r>   10.1387   -0.0000 </r>
       <r>   11.6251   -0.0000 </r>
       <r>   12.9666   -0.0000 </r>
       <r>   18.8288    0.0000 </r>
       <r>   18.9633    0.0000 </r>
       <r>   20.5021    0.0000 </r>
       <r>   21.1958    0.0000 </r>
       <r>   21.2360    0.0000 </r>
       <r>   21.6774    0.0000 </r>
      </set>
      <set comment="kpoint 18">
       <r>    3.1818    1.0000 </r>
       <r>    3.9837    1.0000 </r>
       <r>    4.3729    1.0000 </r>
       <r>    4.7602    1.0000 </r>
       <r>    4.9740    1.0000 </r>
       <r>    5.1093    1.0000 </r>
       <r>    5.1295    1.0000 </r>
       <r>    5.4002    1.0000 </r>
       <r>    5.4181    1.0000 </r>
       <r>    5.8757    1.0000 </r>
       <r>    6.0894    1.0000 </r>
       <r>    6.2655    1.0000 </r>
       <r>    6.8991    1.0000 </r>
       <r>    7.0561    1.0000 </r>
       <r>    7.1466    1.0000 </r>
       <r>    7.2137    1.0000 </r>
       <r>    7.4125    1.0000 </r>
       <r>    8.0453    1.0000 </r>
       <r>    8.6307    1.0002 </r>
       <r>    8.6839    1.0008 </r>
       <r>    9.2121    0.4440 </r>
       <r>    9.9708   -0.0000 </r>
       <r>   12.1891   -0.0000 </r>
       <r>   13.0256   -0.0000 </r>
       <r>   18.5703    0.0000 </r>
       <r>   18.6970    0.0000 </r>
       <r>   20.3888    0.0000 </r>
       <r>   20.5191    0.0000 </r>
       <r>   21.0712    0.0000 </r>
       <r>   22.1356    0.0000 </r>
      </set>
      <set comment="kpoint 19">
       <r>    3.2541    1.0000 </r>
       <r>    4.3528    1.0000 </r>
       <r>    4.4316    1.0000 </r>
       <r>    4.6683    1.0000 </r>
       <r>    4.7576    1.0000 </r>
       <r>    4.9910    1.0000 </r>
       <r>    5.0474    1.0000 </r>
       <r>    5.2571    1.0000 </r>
       <r>    5.5762    1.0000 </r>
       <r>    6.0161    1.0000 </r>
       <r>    6.1482    1.0000 </r>
       <r>    6.3747    1.0000 </r>
       <r>    6.8490    1.0000 </r>
       <r>    7.0795    1.0000 </r>
       <r>    7.0797    1.0000 </r>
       <r>    7.3307    1.0000 </r>
       <r>    7.8095    1.0000 </r>
       <r>    7.9551    1.0000 </r>
       <r>    8.2056    1.0000 </r>
       <r>    8.3013    1.0000 </r>
       <r>    9.3396    0.0387 </r>
       <r>   10.5345   -0.0000 </r>
       <r>   11.1697   -0.0000 </r>
       <r>   12.8530   -0.0000 </r>
       <r>   18.7390    0.0000 </r>
       <r>   18.9224    0.0000 </r>
       <r>   20.7057    0.0000 </r>
       <r>   21.0256    0.0000 </r>
       <r>   21.4302    0.0000 </r>
       <r>   21.4967    0.0000 </r>
      </set>
      <set comment="kpoint 20">
       <r>    1.4791    1.0000 </r>
       <r>    3.4246    1.0000 </r>
       <r>    3.9923    1.0000 </r>
       <r>    4.1291    1.0000 </r>
       <r>    4.1883    1.0000 </r>
       <r>    4.5650    1.0000 </r>
       <r>    4.6919    1.0000 </r>
       <r>    5.7235    1.0000 </r>
       <r>    6.4426    1.0000 </r>
       <r>    6.5411    1.0000 </r>
       <r>    6.6558    1.0000 </r>
       <r>    6.8553    1.0000 </r>
       <r>    7.0375    1.0000 </r>
       <r>    7.2802    1.0000 </r>
       <r>    7.3973    1.0000 </r>
       <r>    7.6069    1.0000 </r>
       <r>    8.3129    1.0000 </r>
       <r>    8.3835    1.0000 </r>
       <r>    8.5347    1.0000 </r>
       <r>    9.0891    0.8957 </r>
       <r>    9.8263   -0.0000 </r>
       <r>   11.8322   -0.0000 </r>
       <r>   12.5046   -0.0000 </r>
       <r>   12.7210   -0.0000 </r>
       <r>   17.6715    0.0000 </r>
       <r>   17.9046    0.0000 </r>
       <r>   18.6163    0.0000 </r>
       <r>   21.1234    0.0000 </r>
       <r>   21.5370    0.0000 </r>
       <r>   21.7106    0.0000 </r>
      </set>
      <set comment="kpoint 21">
       <r>    2.3929    1.0000 </r>
       <r>    3.7328    1.0000 </r>
       <r>    4.2128    1.0000 </r>
       <r>    4.5483    1.0000 </r>
       <r>    4.5622    1.0000 </r>
       <r>    4.8406    1.0000 </r>
       <r>    5.3463    1.0000 </r>
       <r>    5.5388    1.0000 </r>
       <r>    5.8007    1.0000 </r>
       <r>    6.0102    1.0000 </r>
       <r>    6.3688    1.0000 </r>
       <r>    6.4808    1.0000 </r>
       <r>    6.6850    1.0000 </r>
       <r>    7.0231    1.0000 </r>
       <r>    7.0945    1.0000 </r>
       <r>    7.5579    1.0000 </r>
       <r>    8.0971    1.0000 </r>
       <r>    8.1999    1.0000 </r>
       <r>    8.6388    1.0003 </r>
       <r>    9.0183    1.0118 </r>
       <r>    9.5135   -0.0243 </r>
       <r>    9.7892   -0.0001 </r>
       <r>   13.8129   -0.0000 </r>
       <r>   13.8296   -0.0000 </r>
       <r>   15.5343    0.0000 </r>
       <r>   16.2908    0.0000 </r>
       <r>   20.1176    0.0000 </r>
       <r>   21.5201    0.0000 </r>
       <r>   22.1024    0.0000 </r>
       <r>   22.3637    0.0000 </r>
      </set>
      <set comment="kpoint 22">
       <r>    2.5636    1.0000 </r>
       <r>    3.6298    1.0000 </r>
       <r>    4.0208    1.0000 </r>
       <r>    4.5067    1.0000 </r>
       <r>    4.6801    1.0000 </r>
       <r>    4.8742    1.0000 </r>
       <r>    5.5395    1.0000 </r>
       <r>    5.6091    1.0000 </r>
       <r>    5.7881    1.0000 </r>
       <r>    6.0986    1.0000 </r>
       <r>    6.4635    1.0000 </r>
       <r>    6.5018    1.0000 </r>
       <r>    6.6029    1.0000 </r>
       <r>    7.0185    1.0000 </r>
       <r>    7.1742    1.0000 </r>
       <r>    7.2716    1.0000 </r>
       <r>    8.1782    1.0000 </r>
       <r>    8.2480    1.0000 </r>
       <r>    8.4299    1.0000 </r>
       <r>    8.9318    1.0338 </r>
       <r>    9.3634    0.0043 </r>
       <r>    9.6570   -0.0028 </r>
       <r>   13.8176   -0.0000 </r>
       <r>   14.0534   -0.0000 </r>
       <r>   15.5957    0.0000 </r>
       <r>   16.1461    0.0000 </r>
       <r>   20.2007    0.0000 </r>
       <r>   21.5883    0.0000 </r>
       <r>   22.2370    0.0000 </r>
       <r>   22.4030    0.0000 </r>
      </set>
      <set comment="kpoint 23">
       <r>    2.5682    1.0000 </r>
       <r>    3.6291    1.0000 </r>
       <r>    4.1692    1.0000 </r>
       <r>    4.5052    1.0000 </r>
       <r>    4.6865    1.0000 </r>
       <r>    5.0520    1.0000 </r>
       <r>    5.1943    1.0000 </r>
       <r>    5.5244    1.0000 </r>
       <r>    5.7490    1.0000 </r>
       <r>    5.9844    1.0000 </r>
       <r>    6.3647    1.0000 </r>
       <r>    6.4834    1.0000 </r>
       <r>    6.6919    1.0000 </r>
       <r>    7.0438    1.0000 </r>
       <r>    7.1368    1.0000 </r>
       <r>    7.4263    1.0000 </r>
       <r>    8.1953    1.0000 </r>
       <r>    8.2031    1.0000 </r>
       <r>    8.5574    1.0000 </r>
       <r>    8.8741    1.0220 </r>
       <r>    9.4477   -0.0354 </r>
       <r>    9.7368   -0.0005 </r>
       <r>   13.8226   -0.0000 </r>
       <r>   13.9938   -0.0000 </r>
       <r>   15.5790    0.0000 </r>
       <r>   16.2361    0.0000 </r>
       <r>   20.1088    0.0000 </r>
       <r>   21.3655    0.0000 </r>
       <r>   22.1980    0.0000 </r>
       <r>   22.4683    0.0000 </r>
      </set>
      <set comment="kpoint 24">
       <r>    3.0440    1.0000 </r>
       <r>    3.5566    1.0000 </r>
       <r>    3.8775    1.0000 </r>
       <r>    4.2641    1.0000 </r>
       <r>    5.1867    1.0000 </r>
       <r>    5.4823    1.0000 </r>
       <r>    5.7242    1.0000 </r>
       <r>    5.9089    1.0000 </r>
       <r>    6.0716    1.0000 </r>
       <r>    6.1226    1.0000 </r>
       <r>    6.3344    1.0000 </r>
       <r>    6.5021    1.0000 </r>
       <r>    6.6047    1.0000 </r>
       <r>    6.7240    1.0000 </r>
       <r>    6.8749    1.0000 </r>
       <r>    6.9518    1.0000 </r>
       <r>    7.9185    1.0000 </r>
       <r>    8.3587    1.0000 </r>
       <r>    8.7545    1.0037 </r>
       <r>    9.0836    0.9091 </r>
       <r>    9.2234    0.3969 </r>
       <r>   10.2633   -0.0000 </r>
       <r>   11.5086   -0.0000 </r>
       <r>   12.7216   -0.0000 </r>
       <r>   15.8133    0.0000 </r>
       <r>   17.4875    0.0000 </r>
       <r>   17.9104    0.0000 </r>
       <r>   19.8959    0.0000 </r>
       <r>   22.7852    0.0000 </r>
       <r>   24.5683    0.0000 </r>
      </set>
      <set comment="kpoint 25">
       <r>    3.0292    1.0000 </r>
       <r>    3.5904    1.0000 </r>
       <r>    3.6498    1.0000 </r>
       <r>    4.2742    1.0000 </r>
       <r>    5.1900    1.0000 </r>
       <r>    5.4854    1.0000 </r>
       <r>    5.7119    1.0000 </r>
       <r>    5.9591    1.0000 </r>
       <r>    6.0820    1.0000 </r>
       <r>    6.1189    1.0000 </r>
       <r>    6.3259    1.0000 </r>
       <r>    6.5114    1.0000 </r>
       <r>    6.6131    1.0000 </r>
       <r>    6.7254    1.0000 </r>
       <r>    6.8726    1.0000 </r>
       <r>    6.9381    1.0000 </r>
       <r>    7.9607    1.0000 </r>
       <r>    8.3870    1.0000 </r>
       <r>    8.8829    1.0240 </r>
       <r>    9.0697    0.9395 </r>
       <r>    9.2015    0.4885 </r>
       <r>   10.1450   -0.0000 </r>
       <r>   11.9909   -0.0000 </r>
       <r>   12.9068   -0.0000 </r>
       <r>   15.5527    0.0000 </r>
       <r>   17.0609    0.0000 </r>
       <r>   17.9493    0.0000 </r>
       <r>   19.8668    0.0000 </r>
       <r>   22.8739    0.0000 </r>
       <r>   24.4151    0.0000 </r>
      </set>
      <set comment="kpoint 26">
       <r>    3.0377    1.0000 </r>
       <r>    3.5871    1.0000 </r>
       <r>    3.9152    1.0000 </r>
       <r>    4.1031    1.0000 </r>
       <r>    5.1579    1.0000 </r>
       <r>    5.3815    1.0000 </r>
       <r>    5.6955    1.0000 </r>
       <r>    6.0719    1.0000 </r>
       <r>    6.1832    1.0000 </r>
       <r>    6.2192    1.0000 </r>
       <r>    6.4325    1.0000 </r>
       <r>    6.4496    1.0000 </r>
       <r>    6.6061    1.0000 </r>
       <r>    6.7760    1.0000 </r>
       <r>    6.8186    1.0000 </r>
       <r>    6.8900    1.0000 </r>
       <r>    8.0789    1.0000 </r>
       <r>    8.1182    1.0000 </r>
       <r>    8.5786    1.0001 </r>
       <r>    9.2155    0.4295 </r>
       <r>    9.3507    0.0211 </r>
       <r>   10.6291   -0.0000 </r>
       <r>   11.0587   -0.0000 </r>
       <r>   12.6576   -0.0000 </r>
       <r>   15.7875    0.0000 </r>
       <r>   17.5281    0.0000 </r>
       <r>   17.8975    0.0000 </r>
       <r>   19.9566    0.0000 </r>
       <r>   22.6488    0.0000 </r>
       <r>   24.6408    0.0000 </r>
      </set>
      <set comment="kpoint 27">
       <r>    2.9148    1.0000 </r>
       <r>    3.0420    1.0000 </r>
       <r>    3.2795    1.0000 </r>
       <r>    3.6559    1.0000 </r>
       <r>    5.6147    1.0000 </r>
       <r>    5.7283    1.0000 </r>
       <r>    5.8248    1.0000 </r>
       <r>    6.0978    1.0000 </r>
       <r>    6.1794    1.0000 </r>
       <r>    6.4179    1.0000 </r>
       <r>    6.4240    1.0000 </r>
       <r>    6.6183    1.0000 </r>
       <r>    7.2808    1.0000 </r>
       <r>    7.3428    1.0000 </r>
       <r>    7.5100    1.0000 </r>
       <r>    7.8442    1.0000 </r>
       <r>    8.2554    1.0000 </r>
       <r>    8.6808    1.0008 </r>
       <r>    8.7503    1.0034 </r>
       <r>    9.1652    0.6402 </r>
       <r>    9.7045   -0.0010 </r>
       <r>   10.4835   -0.0000 </r>
       <r>   10.8835   -0.0000 </r>
       <r>   11.1105   -0.0000 </r>
       <r>   14.9803    0.0000 </r>
       <r>   15.3898    0.0000 </r>
       <r>   16.1958    0.0000 </r>
       <r>   17.7062    0.0000 </r>
       <r>   25.2918    0.0000 </r>
       <r>   25.3872    0.0000 </r>
      </set>
     </set>
    </set>
   </array>
  </eigenvalues>
  <separator name="orbital magnetization" >
   <v name="MAGDIPOLOUT">      0.00000000      0.00000000      0.00000000</v>
  </separator>
  <dos>
   <i name="efermi">      9.19881970 </i>
   <total>
    <array>
     <dimension dim="1">gridpoints</dimension>
     <dimension dim="2">spin</dimension>
     <field>energy</field>
     <field>total</field>
     <field>integrated</field>
     <set>
      <set comment="spin 1">
       <r>    -1.8976     0.0000     0.0000 </r>
       <r>    -1.8000     0.0000     0.0000 </r>
       <r>    -1.7023     0.0000     0.0000 </r>
       <r>    -1.6047     0.0000     0.0000 </r>
       <r>    -1.5071    -0.0000    -0.0000 </r>
       <r>    -1.4095    -0.0000    -0.0000 </r>
       <r>    -1.3119    -0.0000    -0.0000 </r>
       <r>    -1.2143    -0.0000    -0.0000 </r>
       <r>    -1.1166    -0.0000    -0.0000 </r>
       <r>    -1.0190    -0.0000    -0.0000 </r>
       <r>    -0.9214    -0.0000    -0.0000 </r>
       <r>    -0.8238    -0.0000    -0.0000 </r>
       <r>    -0.7262    -0.0000    -0.0000 </r>
       <r>    -0.6286    -0.0000    -0.0000 </r>
       <r>    -0.5310    -0.0000    -0.0000 </r>
       <r>    -0.4333    -0.0001    -0.0000 </r>
       <r>    -0.3357    -0.0006    -0.0001 </r>
       <r>    -0.2381    -0.0023    -0.0003 </r>
       <r>    -0.1405    -0.0028    -0.0006 </r>
       <r>    -0.0429     0.0109     0.0005 </r>
       <r>     0.0547     0.0444     0.0048 </r>
       <r>     0.1524     0.0625     0.0109 </r>
       <r>     0.2500     0.0317     0.0140 </r>
       <r>     0.3476    -0.0063     0.0134 </r>
       <r>     0.4452     0.0474     0.0180 </r>
       <r>     0.5428     0.2330     0.0408 </r>
       <r>     0.6404     0.3727     0.0772 </r>
       <r>     0.7381     0.2607     0.1026 </r>
       <r>     0.8357     0.0594     0.1084 </r>
       <r>     0.9333     0.1364     0.1217 </r>
       <r>     1.0309     0.5352     0.1740 </r>
       <r>     1.1285     0.7588     0.2480 </r>
       <r>     1.2261     0.4810     0.2950 </r>
       <r>     1.3237     0.1769     0.3122 </r>
       <r>     1.4214     0.2874     0.3403 </r>
       <r>     1.5190     0.5111     0.3902 </r>
       <r>     1.6166     0.4486     0.4340 </r>
       <r>     1.7142     0.2147     0.4549 </r>
       <r>     1.8118     0.0620     0.4610 </r>
       <r>     1.9094     0.0925     0.4700 </r>
       <r>     2.0071     0.3074     0.5000 </r>
       <r>     2.1047     0.5405     0.5528 </r>
       <r>     2.2023     0.7053     0.6216 </r>
       <r>     2.2999     1.0778     0.7269 </r>
       <r>     2.3975     1.6437     0.8873 </r>
       <r>     2.4951     1.8405     1.0670 </r>
       <r>     2.5928     1.4703     1.2105 </r>
       <r>     2.6904     0.7753     1.2862 </r>
       <r>     2.7880     0.3733     1.3226 </r>
       <r>     2.8856     0.9224     1.4127 </r>
       <r>     2.9832     2.0952     1.6172 </r>
       <r>     3.0808     2.8496     1.8954 </r>
       <r>     3.1785     2.8346     2.1721 </r>
       <r>     3.2761     2.4153     2.4078 </r>
       <r>     3.3737     1.8174     2.5852 </r>
       <r>     3.4713     1.9844     2.7790 </r>
       <r>     3.5689     3.7945     3.1494 </r>
       <r>     3.6665     5.5526     3.6914 </r>
       <r>     3.7641     5.4352     4.2219 </r>
       <r>     3.8618     4.9959     4.7096 </r>
       <r>     3.9594     5.8380     5.2795 </r>
       <r>     4.0570     6.9582     5.9587 </r>
       <r>     4.1546     7.3731     6.6785 </r>
       <r>     4.2522     6.9937     7.3612 </r>
       <r>     4.3498     5.8035     7.9277 </r>
       <r>     4.4475     4.7472     8.3911 </r>
       <r>     4.5451     5.0509     8.8841 </r>
       <r>     4.6427     6.0594     9.4756 </r>
       <r>     4.7403     6.2584    10.0865 </r>
       <r>     4.8379     5.5037    10.6238 </r>
       <r>     4.9355     4.6688    11.0795 </r>
       <r>     5.0332     4.4017    11.5092 </r>
       <r>     5.1308     4.6726    11.9653 </r>
       <r>     5.2284     4.7249    12.4266 </r>
       <r>     5.3260     4.4409    12.8601 </r>
       <r>     5.4236     4.7470    13.3235 </r>
       <r>     5.5212     5.7495    13.8847 </r>
       <r>     5.6189     6.6728    14.5361 </r>
       <r>     5.7165     7.0283    15.2221 </r>
       <r>     5.8141     6.5951    15.8659 </r>
       <r>     5.9117     6.0493    16.4564 </r>
       <r>     6.0093     6.7909    17.1193 </r>
       <r>     6.1069     8.1730    17.9171 </r>
       <r>     6.2045     8.3831    18.7355 </r>
       <r>     6.3022     8.6028    19.5752 </r>
       <r>     6.3998    10.7447    20.6241 </r>
       <r>     6.4974    12.5750    21.8516 </r>
       <r>     6.5950    11.1283    22.9379 </r>
       <r>     6.6926     7.8687    23.7060 </r>
       <r>     6.7902     6.3354    24.3245 </r>
       <r>     6.8879     7.4345    25.0502 </r>
       <r>     6.9855     9.0445    25.9331 </r>
       <r>     7.0831     9.5559    26.8659 </r>
       <r>     7.1807     9.4809    27.7914 </r>
       <r>     7.2783     9.1883    28.6883 </r>
       <r>     7.3759     7.9143    29.4609 </r>
       <r>     7.4736     5.9564    30.0423 </r>
       <r>     7.5712     4.8509    30.5158 </r>
       <r>     7.6688     4.7791    30.9823 </r>
       <r>     7.7664     4.8334    31.4542 </r>
       <r>     7.8640     4.6353    31.9066 </r>
       <r>     7.9616     4.5922    32.3549 </r>
       <r>     8.0592     5.4793    32.8898 </r>
       <r>     8.1569     7.1641    33.5891 </r>
       <r>     8.2545     8.2418    34.3936 </r>
       <r>     8.3521     8.0058    35.1751 </r>
       <r>     8.4497     7.0748    35.8657 </r>
       <r>     8.5473     5.9905    36.4505 </r>
       <r>     8.6449     5.0374    36.9422 </r>
       <r>     8.7426     4.3587    37.3677 </r>
       <r>     8.8402     4.3728    37.7946 </r>
       <r>     8.9378     5.3492    38.3167 </r>
       <r>     9.0354     6.3643    38.9380 </r>
       <r>     9.1330     6.6227    39.5845 </r>
       <r>     9.2306     6.1956    40.1893 </r>
       <r>     9.3283     5.3287    40.7094 </r>
       <r>     9.4259     4.4511    41.1439 </r>
       <r>     9.5235     3.7689    41.5118 </r>
       <r>     9.6211     3.3955    41.8433 </r>
       <r>     9.7187     3.5952    42.1943 </r>
       <r>     9.8163     3.5442    42.5402 </r>
       <r>     9.9140     2.3520    42.7698 </r>
       <r>    10.0116     1.0529    42.8726 </r>
       <r>    10.1092     0.8731    42.9578 </r>
       <r>    10.2068     1.2847    43.0832 </r>
       <r>    10.3044     1.2347    43.2038 </r>
       <r>    10.4020     0.8724    43.2889 </r>
       <r>    10.4996     0.8570    43.3726 </r>
       <r>    10.5973     0.9871    43.4689 </r>
       <r>    10.6949     0.8945    43.5562 </r>
       <r>    10.7925     0.9182    43.6459 </r>
       <r>    10.8901     1.2548    43.7684 </r>
       <r>    10.9877     1.5571    43.9204 </r>
       <r>    11.0853     1.6695    44.0833 </r>
       <r>    11.1830     1.4226    44.2222 </r>
       <r>    11.2806     0.7788    44.2982 </r>
       <r>    11.3782     0.4203    44.3392 </r>
       <r>    11.4758     0.6927    44.4069 </r>
       <r>    11.5734     0.9709    44.5016 </r>
       <r>    11.6710     0.8120    44.5809 </r>
       <r>    11.7687     0.6659    44.6459 </r>
       <r>    11.8663     0.8664    44.7305 </r>
       <r>    11.9639     1.0032    44.8284 </r>
       <r>    12.0615     0.8136    44.9078 </r>
       <r>    12.1591     0.5877    44.9652 </r>
       <r>    12.2567     0.4775    45.0118 </r>
       <r>    12.3543     0.3604    45.0470 </r>
       <r>    12.4520     0.3772    45.0838 </r>
       <r>    12.5496     0.7312    45.1552 </r>
       <r>    12.6472     1.3120    45.2833 </r>
       <r>    12.7448     1.7119    45.4504 </r>
       <r>    12.8424     1.6427    45.6107 </r>
       <r>    12.9400     1.3970    45.7471 </r>
       <r>    13.0377     1.2570    45.8698 </r>
       <r>    13.1353     1.1395    45.9810 </r>
       <r>    13.2329     0.9312    46.0719 </r>
       <r>    13.3305     0.7404    46.1442 </r>
       <r>    13.4281     0.7835    46.2207 </r>
       <r>    13.5257     0.9265    46.3111 </r>
       <r>    13.6234     0.9426    46.4031 </r>
       <r>    13.7210     1.2381    46.5240 </r>
       <r>    13.8186     1.9816    46.7174 </r>
       <r>    13.9162     2.2510    46.9372 </r>
       <r>    14.0138     1.7189    47.1050 </r>
       <r>    14.1114     0.9818    47.2008 </r>
       <r>    14.2091     0.3444    47.2344 </r>
       <r>    14.3067     0.0290    47.2373 </r>
       <r>    14.4043     0.1926    47.2561 </r>
       <r>    14.5019     0.5821    47.3129 </r>
       <r>    14.5995     0.6919    47.3804 </r>
       <r>    14.6971     0.3750    47.4170 </r>
       <r>    14.7947     0.0645    47.4233 </r>
       <r>    14.8924     0.1464    47.4376 </r>
       <r>    14.9900     0.5675    47.4930 </r>
       <r>    15.0876     1.0928    47.5997 </r>
       <r>    15.1852     1.4603    47.7422 </r>
       <r>    15.2828     1.3861    47.8775 </r>
       <r>    15.3804     1.1554    47.9903 </r>
       <r>    15.4781     1.4696    48.1338 </r>
       <r>    15.5757     2.0856    48.3374 </r>
       <r>    15.6733     2.1338    48.5457 </r>
       <r>    15.7709     1.7718    48.7186 </r>
       <r>    15.8685     1.4368    48.8589 </r>
       <r>    15.9661     1.0098    48.9574 </r>
       <r>    16.0638     0.8854    49.0439 </r>
       <r>    16.1614     1.4698    49.1874 </r>
       <r>    16.2590     1.9790    49.3805 </r>
       <r>    16.3566     1.4959    49.5266 </r>
       <r>    16.4542     0.4937    49.5748 </r>
       <r>    16.5518    -0.0769    49.5672 </r>
       <r>    16.6495     0.0284    49.5700 </r>
       <r>    16.7471     0.7670    49.6449 </r>
       <r>    16.8447     1.8098    49.8216 </r>
       <r>    16.9423     2.3005    50.0461 </r>
       <r>    17.0399     1.8863    50.2303 </r>
       <r>    17.1375     1.0560    50.3333 </r>
       <r>    17.2351     0.3299    50.3655 </r>
       <r>    17.3328     0.1114    50.3764 </r>
       <r>    17.4304     0.5431    50.4294 </r>
       <r>    17.5280     1.1579    50.5425 </r>
       <r>    17.6256     1.3872    50.6779 </r>
       <r>    17.7232     1.3697    50.8116 </r>
       <r>    17.8208     1.7964    50.9869 </r>
       <r>    17.9185     2.7562    51.2560 </r>
       <r>    18.0161     3.0289    51.5517 </r>
       <r>    18.1137     1.9833    51.7453 </r>
       <r>    18.2113     0.7579    51.8192 </r>
       <r>    18.3089     0.3731    51.8557 </r>
       <r>    18.4065     0.6261    51.9168 </r>
       <r>    18.5042     1.0496    52.0192 </r>
       <r>    18.6018     1.5337    52.1689 </r>
       <r>    18.6994     1.8018    52.3448 </r>
       <r>    18.7970     1.6578    52.5066 </r>
       <r>    18.8946     1.5112    52.6542 </r>
       <r>    18.9922     1.5051    52.8011 </r>
       <r>    19.0898     1.1891    52.9172 </r>
       <r>    19.1875     0.6115    52.9769 </r>
       <r>    19.2851     0.4497    53.0208 </r>
       <r>    19.3827     0.9347    53.1120 </r>
       <r>    19.4803     1.4693    53.2554 </r>
       <r>    19.5779     1.4573    53.3977 </r>
       <r>    19.6755     1.1348    53.5085 </r>
       <r>    19.7732     1.2514    53.6306 </r>
       <r>    19.8708     1.9100    53.8171 </r>
       <r>    19.9684     2.5322    54.0642 </r>
       <r>    20.0660     2.7643    54.3341 </r>
       <r>    20.1636     2.4611    54.5743 </r>
       <r>    20.2612     1.7941    54.7494 </r>
       <r>    20.3589     1.5695    54.9026 </r>
       <r>    20.4565     1.9309    55.0911 </r>
       <r>    20.5541     1.9786    55.2843 </r>
       <r>    20.6517     1.4368    55.4245 </r>
       <r>    20.7493     0.8094    55.5035 </r>
       <r>    20.8469     0.4599    55.5484 </r>
       <r>    20.9446     0.6923    55.6160 </r>
       <r>    21.0422     1.5159    55.7640 </r>
       <r>    21.1398     2.2143    55.9801 </r>
       <r>    21.2374     2.1277    56.1878 </r>
       <r>    21.3350     1.6372    56.3477 </r>
       <r>    21.4326     1.6680    56.5105 </r>
       <r>    21.5302     2.3176    56.7367 </r>
       <r>    21.6279     2.7300    57.0032 </r>
       <r>    21.7255     2.4335    57.2408 </r>
       <r>    21.8231     1.8807    57.4243 </r>
       <r>    21.9207     1.5737    57.5780 </r>
       <r>    22.0183     1.5197    57.7263 </r>
       <r>    22.1159     1.6154    57.8840 </r>
       <r>    22.2136     1.7637    58.0562 </r>
       <r>    22.3112     1.8084    58.2327 </r>
       <r>    22.4088     1.7190    58.4005 </r>
       <r>    22.5064     1.3891    58.5361 </r>
       <r>    22.6040     0.9475    58.6286 </r>
       <r>    22.7016     0.8319    58.7098 </r>
       <r>    22.7993     1.0907    58.8163 </r>
       <r>    22.8969     1.4067    58.9536 </r>
       <r>    22.9945     1.4236    59.0925 </r>
       <r>    23.0921     1.0020    59.1904 </r>
       <r>    23.1897     0.4867    59.2379 </r>
       <r>    23.2873     0.3213    59.2692 </r>
       <r>    23.3849     0.4110    59.3093 </r>
       <r>    23.4826     0.3718    59.3456 </r>
       <r>    23.5802     0.1656    59.3618 </r>
       <r>    23.6778     0.0127    59.3631 </r>
       <r>    23.7754    -0.0200    59.3611 </r>
       <r>    23.8730    -0.0097    59.3601 </r>
       <r>    23.9706    -0.0062    59.3595 </r>
       <r>    24.0683    -0.0194    59.3576 </r>
       <r>    24.1659    -0.0349    59.3542 </r>
       <r>    24.2635     0.0376    59.3579 </r>
       <r>    24.3611     0.3103    59.3882 </r>
       <r>    24.4587     0.7227    59.4587 </r>
       <r>    24.5563     1.0693    59.5631 </r>
       <r>    24.6540     1.0909    59.6696 </r>
       <r>    24.7516     0.6717    59.7352 </r>
       <r>    24.8492     0.1700    59.7518 </r>
       <r>    24.9468    -0.0579    59.7461 </r>
       <r>    25.0444    -0.0792    59.7384 </r>
       <r>    25.1420     0.0445    59.7427 </r>
       <r>    25.2397     0.4263    59.7843 </r>
       <r>    25.3373     0.8755    59.8698 </r>
       <r>    25.4349     0.8888    59.9566 </r>
       <r>    25.5325     0.4504    60.0005 </r>
       <r>    25.6301     0.0658    60.0070 </r>
       <r>    25.7277    -0.0415    60.0029 </r>
       <r>    25.8253    -0.0237    60.0006 </r>
       <r>    25.9230    -0.0054    60.0001 </r>
       <r>    26.0206    -0.0007    60.0000 </r>
       <r>    26.1182    -0.0000    60.0000 </r>
       <r>    26.2158    -0.0000    60.0000 </r>
       <r>    26.3134    -0.0000    60.0000 </r>
       <r>    26.4110    -0.0000    60.0000 </r>
       <r>    26.5087    -0.0000    60.0000 </r>
       <r>    26.6063    -0.0000    60.0000 </r>
       <r>    26.7039    -0.0000    60.0000 </r>
       <r>    26.8015     0.0000    60.0000 </r>
       <r>    26.8991     0.0000    60.0000 </r>
       <r>    26.9967     0.0000    60.0000 </r>
       <r>    27.0944     0.0000    60.0000 </r>
       <r>    27.1920     0.0000    60.0000 </r>
       <r>    27.2896     0.0000    60.0000 </r>
       <r>    27.3872     0.0000    60.0000 </r>
      </set>
     </set>
    </array>
   </total>
  </dos>
 </calculation>
 <structure name="finalpos" >
  <crystal>
   <varray name="basis" >
    <v>       3.86600000       0.00000000       0.00000000 </v>
    <v>       0.00000000       3.86600000       0.00000000 </v>
    <v>       0.00000000       0.00000000       3.86600000 </v>
   </varray>
   <i name="volume">     57.78106590 </i>
   <varray name="rec_basis" >
    <v>       0.25866529       0.00000000       0.00000000 </v>
    <v>       0.00000000       0.25866529       0.00000000 </v>
    <v>       0.00000000       0.00000000       0.25866529 </v>
   </varray>
  </crystal>
  <varray name="positions" >
   <v>       0.00000000       0.00000000       0.00000000 </v>
   <v>       0.50000000       0.50000000       0.00000000 </v>
   <v>       0.50000000       0.00000000       0.50000000 </v>
   <v>       0.00000000       0.50000000       0.50000000 </v>
  </varray>
 </structure>
</modeling>
