unknown system                          
   1.00000000000000     
     3.694601    0.000000    0.000000
     0.000000    3.694601    0.000000
     0.000000    0.000000    3.694601
   Cu
     4
Direct
  0.000000  0.000000  0.000000
  0.500000  0.500000  0.000000
  0.500000  0.000000  0.500000
  0.000000  0.500000  0.500000
 
   32   32   32
  888.53      835.77      694.69      507.74      322.54      174.59      79.797      34.600      20.458      14.893    
  11.323      9.0873      7.7836      7.1631      6.7744      6.3576      6.1450      6.3576      6.7744      7.1631    
  7.7836      9.0873      11.323      14.893      20.458      34.600      79.797      174.59      322.54      507.74    
  694.69      835.77      835.77      785.93      652.63      476.06      301.43      162.51      74.277      32.884    
  20.085      14.691      11.246      9.1053      7.8671      7.2852      6.9299      6.5513      6.3576      6.5513    
  6.9299      7.2852      7.8671      9.1053      11.246      14.691      20.085      32.884      74.277      162.51    
  301.43      476.06      652.63      785.93      694.69      652.63      540.19      391.55      245.44      130.88    
  60.204      28.706      19.069      14.136      11.043      9.1488      8.0612      7.5458      7.2393      6.9299    
  6.7744      6.9299      7.2393      7.5458      8.0612      9.1488      11.043      14.136      19.069      28.706    
  60.204      130.88      245.44      391.55      540.19      652.63      507.74      476.06      391.55      280.52    
  172.98      91.194      43.551      24.185      17.580      13.375      10.794      9.2283      8.3127      7.8396    
  7.5458      7.2852      7.1631      7.2852      7.5458      7.8396      8.3127      9.2283      10.794      13.375    
  17.580      24.185      43.551      91.194      172.98      280.52      391.55      476.06      322.54      301.43    
  245.44      172.98      104.90      56.010      30.253      20.750      15.884      12.592      10.611      9.4206    
  8.7102      8.3127      8.0612      7.8671      7.7836      7.8671      8.0612      8.3127      8.7102      9.4206    
  10.611      12.592      15.884      20.750      30.253      56.010      104.90      172.98      245.44      301.43    
  174.59      162.51      130.88      91.194      56.010      33.189      22.747      17.880      14.278      11.959    
  10.608      9.8382      9.4206      9.2283      9.1488      9.1053      9.0873      9.1053      9.1488      9.2283    
  9.4206      9.8382      10.608      11.959      14.278      17.880      22.747      33.189      56.010      91.194    
  130.88      162.51      79.797      74.277      60.204      43.551      30.253      22.747      18.630      15.330    
  13.006      11.610      10.891      10.608      10.611      10.794      11.043      11.246      11.323      11.246    
  11.043      10.794      10.611      10.608      10.891      11.610      13.006      15.330      18.630      22.747    
  30.253      43.551      60.204      74.277      34.600      32.884      28.706      24.185      20.750      17.880    
  15.330      13.410      12.211      11.655      11.610      11.959      12.592      13.375      14.136      14.691    
  14.893      14.691      14.136      13.375      12.592      11.959      11.610      11.655      12.211      13.410    
  15.330      17.880      20.750      24.185      28.706      32.884      20.458      20.085      19.069      17.580    
  15.884      14.278      13.006      12.211      11.943      12.211      13.006      14.278      15.884      17.580    
  19.069      20.085      20.458      20.085      19.069      17.580      15.884      14.278      13.006      12.211    
  11.943      12.211      13.006      14.278      15.884      17.580      19.069      20.085      14.893      14.691    
  14.136      13.375      12.592      11.959      11.610      11.655      12.211      13.410      15.330      17.880    
  20.750      24.185      28.706      32.884      34.600      32.884      28.706      24.185      20.750      17.880    
  15.330      13.410      12.211      11.655      11.610      11.959      12.592      13.375      14.136      14.691    
  11.323      11.246      11.043      10.794      10.611      10.608      10.891      11.610      13.006      15.330    
  18.630      22.747      30.253      43.551      60.204      74.277      79.797      74.277      60.204      43.551    
  30.253      22.747      18.630      15.330      13.006      11.610      10.891      10.608      10.611      10.794    
  11.043      11.246      9.0873      9.1053      9.1488      9.2283      9.4206      9.8382      10.608      11.959    
  14.278      17.880      22.747      33.189      56.010      91.194      130.88      162.51      174.59      162.51    
  130.88      91.194      56.010      33.189      22.747      17.880      14.278      11.959      10.608      9.8382    
  9.4206      9.2283      9.1488      9.1053      7.7836      7.8671      8.0612      8.3127      8.7102      9.4206    
  10.611      12.592      15.884      20.750      30.253      56.010      104.90      172.98      245.44      301.43    
  322.54      301.43      245.44      172.98      104.90      56.010      30.253      20.750      15.884      12.592    
  10.611      9.4206      8.7102      8.3127      8.0612      7.8671      7.1631      7.2852      7.5458      7.8396    
  8.3127      9.2283      10.794      13.375      17.580      24.185      43.551      91.194      172.98      280.52    
  391.55      476.06      507.74      476.06      391.55      280.52      172.98      91.194      43.551      24.185    
  17.580      13.375      10.794      9.2283      8.3127      7.8396      7.5458      7.2852      6.7744      6.9299    
  7.2393      7.5458      8.0612      9.1488      11.043      14.136      19.069      28.706      60.204      130.88    
  245.44      391.55      540.19      652.63      694.69      652.63      540.19      391.55      245.44      130.88    
  60.204      28.706      19.069      14.136      11.043      9.1488      8.0612      7.5458      7.2393      6.9299    
  6.3576      6.5513      6.9299      7.2852      7.8671      9.1053      11.246      14.691      20.085      32.884    
  74.277      162.51      301.43      476.06      652.63      785.93      835.77      785.93      652.63      476.06    
  301.43      162.51      74.277      32.884      20.085      14.691      11.246      9.1053      7.8671      7.2852    
  6.9299      6.5513      6.1450      6.3576      6.7744      7.1631      7.7836      9.0873      11.323      14.893    
  20.458      34.600      79.797      174.59      322.54      507.74      694.69      835.77      888.53      835.77    
  694.69      507.74      322.54      174.59      79.797      34.600      20.458      14.893      11.323      9.0873    
  7.7836      7.1631      6.7744      6.3576      6.3576      6.5513      6.9299      7.2852      7.8671      9.1053    
  11.246      14.691      20.085      32.884      74.277      162.51      301.43      476.06      652.63      785.93    
  835.77      785.93      652.63      476.06      301.43      162.51      74.277      32.884      20.085      14.691    
  11.246      9.1053      7.8671      7.2852      6.9299      6.5513      6.7744      6.9299      7.2393      7.5458    
  8.0612      9.1488      11.043      14.136      19.069      28.706      60.204      130.88      245.44      391.55    
  540.19      652.63      694.69      652.63      540.19      391.55      245.44      130.88      60.204      28.706    
  19.069      14.136      11.043      9.1488      8.0612      7.5458      7.2393      6.9299      7.1631      7.2852    
  7.5458      7.8396      8.3127      9.2283      10.794      13.375      17.580      24.185      43.551      91.194    
  172.98      280.52      391.55      476.06      507.74      476.06      391.55      280.52      172.98      91.194    
  43.551      24.185      17.580      13.375      10.794      9.2283      8.3127      7.8396      7.5458      7.2852    
  7.7836      7.8671      8.0612      8.3127      8.7102      9.4206      10.611      12.592      15.884      20.750    
  30.253      56.010      104.90      172.98      245.44      301.43      322.54      301.43      245.44      172.98    
  104.90      56.010      30.253      20.750      15.884      12.592      10.611      9.4206      8.7102      8.3127    
  8.0612      7.8671      9.0873      9.1053      9.1488      9.2283      9.4206      9.8382      10.608      11.959    
  14.278      17.880      22.747      33.189      56.010      91.194      130.88      162.51      174.59      162.51    
  130.88      91.194      56.010      33.189      22.747      17.880      14.278      11.959      10.608      9.8382    
  9.4206      9.2283      9.1488      9.1053      11.323      11.246      11.043      10.794      10.611      10.608    
  10.891      11.610      13.006      15.330      18.630      22.747      30.253      43.551      60.204      74.277    
  79.797      74.277      60.204      43.551      30.253      22.747      18.630      15.330      13.006      11.610    
  10.891      10.608      10.611      10.794      11.043      11.246      14.893      14.691      14.136      13.375    
  12.592      11.959      11.610      11.655      12.211      13.410      15.330      17.880      20.750      24.185    
  28.706      32.884      34.600      32.884      28.706      24.185      20.750      17.880      15.330      13.410    
  12.211      11.655      11.610      11.959      12.592      13.375      14.136      14.691      20.458      20.085    
  19.069      17.580      15.884      14.278      13.006      12.211      11.943      12.211      13.006      14.278    
  15.884      17.580      19.069      20.085      20.458      20.085      19.069      17.580      15.884      14.278    
  13.006      12.211      11.943      12.211      13.006      14.278      15.884      17.580      19.069      20.085    
  34.600      32.884      28.706      24.185      20.750      17.880      15.330      13.410      12.211      11.655    
  11.610      11.959      12.592      13.375      14.136      14.691      14.893      14.691      14.136      13.375    
  12.592      11.959      11.610      11.655      12.211      13.410      15.330      17.880      20.750      24.185    
  28.706      32.884      79.797      74.277      60.204      43.551      30.253      22.747      18.630      15.330    
  13.006      11.610      10.891      10.608      10.611      10.794      11.043      11.246      11.323      11.246    
  11.043      10.794      10.611      10.608      10.891      11.610      13.006      15.330      18.630      22.747    
  30.253      43.551      60.204      74.277      174.59      162.51      130.88      91.194      56.010      33.189    
  22.747      17.880      14.278      11.959      10.608      9.8382      9.4206      9.2283      9.1488      9.1053    
  9.0873      9.1053      9.1488      9.2283      9.4206      9.8382      10.608      11.959      14.278      17.880    
  22.747      33.189      56.010      91.194      130.88      162.51      322.54      301.43      245.44      172.98    
  104.90      56.010      30.253      20.750      15.884      12.592      10.611      9.4206      8.7102      8.3127    
  8.0612      7.8671      7.7836      7.8671      8.0612      8.3127      8.7102      9.4206      10.611      12.592    
  15.884      20.750      30.253      56.010      104.90      172.98      245.44      301.43      507.74      476.06    
  391.55      280.52      172.98      91.194      43.551      24.185      17.580      13.375      10.794      9.2283    
  8.3127      7.8396      7.5458      7.2852      7.1631      7.2852      7.5458      7.8396      8.3127      9.2283    
  10.794      13.375      17.580      24.185      43.551      91.194      172.98      280.52      391.55      476.06    
  694.69      652.63      540.19      391.55      245.44      130.88      60.204      28.706      19.069      14.136    
  11.043      9.1488      8.0612      7.5458      7.2393      6.9299      6.7744      6.9299      7.2393      7.5458    
  8.0612      9.1488      11.043      14.136      19.069      28.706      60.204      130.88      245.44      391.55    
  540.19      652.63      835.77      785.93      652.63      476.06      301.43      162.51      74.277      32.884    
  20.085      14.691      11.246      9.1053      7.8671      7.2852      6.9299      6.5513      6.3576      6.5513    
  6.9299      7.2852      7.8671      9.1053      11.246      14.691      20.085      32.884      74.277      162.51    
  301.43      476.06      652.63      785.93      835.77      785.93      652.63      476.06      301.43      162.51    
  74.277      32.884      20.085      14.691      11.246      9.1053      7.8671      7.2852      6.9299      6.5513    
  6.3576      6.5513      6.9299      7.2852      7.8671      9.1053      11.246      14.691      20.085      32.884    
  74.277      162.51      301.43      476.06      652.63      785.93      785.93      738.83      612.90      446.17    
  281.57      151.22      69.186      31.336      19.730      14.493      11.170      9.1195      7.9425      7.3960    
  7.0711      6.7275      6.5513      6.7275      7.0711      7.3960      7.9425      9.1195      11.170      14.493    
  19.730      31.336      69.186      151.22      281.57      446.17      612.90      738.83      652.63      612.90    
  506.72      366.48      228.97      121.72      56.244      27.580      18.738      13.954      10.971      9.1552    
  8.1193      7.6333      7.3519      7.0711      6.9299      7.0711      7.3519      7.6333      8.1193      9.1552    
  10.971      13.954      18.738      27.580      56.244      121.72      228.97      366.48      506.72      612.90    
  476.06      446.17      366.48      261.95      161.06      84.857      41.025      23.521      17.285      13.216    
  10.728      9.2266      8.3530      7.9053      7.6333      7.3960      7.2852      7.3960      7.6333      7.9053    
  8.3530      9.2266      10.728      13.216      17.285      23.521      41.025      84.857      161.06      261.95    
  366.48      446.17      301.43      281.57      228.97      161.06      97.587      52.421      28.993      20.359    
  15.637      12.459      10.552      9.4089      8.7300      8.3530      8.1193      7.9425      7.8671      7.9425    
  8.1193      8.3530      8.7300      9.4089      10.552      12.459      15.637      20.359      28.993      52.421    
  97.587      161.06      228.97      281.57      162.51      151.22      121.72      84.857      52.421      31.645    
  22.232      17.566      14.084      11.850      10.549      9.8092      9.4089      9.2266      9.1552      9.1195    
  9.1053      9.1195      9.1552      9.2266      9.4089      9.8092      10.549      11.850      14.084      17.566    
  22.232      31.645      52.421      84.857      121.72      151.22      74.277      69.186      56.244      41.025    
  28.993      22.232      18.292      15.097      12.859      11.516      10.823      10.549      10.552      10.728    
  10.971      11.170      11.246      11.170      10.971      10.728      10.552      10.549      10.823      11.516    
  12.859      15.097      18.292      22.232      28.993      41.025      56.244      69.186      32.884      31.336    
  27.580      23.521      20.359      17.566      15.097      13.248      12.095      11.560      11.516      11.850    
  12.459      13.216      13.954      14.493      14.691      14.493      13.954      13.216      12.459      11.850    
  11.516      11.560      12.095      13.248      15.097      17.566      20.359      23.521      27.580      31.336    
  20.085      19.730      18.738      17.285      15.637      14.084      12.859      12.095      11.838      12.095    
  12.859      14.084      15.637      17.285      18.738      19.730      20.085      19.730      18.738      17.285    
  15.637      14.084      12.859      12.095      11.838      12.095      12.859      14.084      15.637      17.285    
  18.738      19.730      14.691      14.493      13.954      13.216      12.459      11.850      11.516      11.560    
  12.095      13.248      15.097      17.566      20.359      23.521      27.580      31.336      32.884      31.336    
  27.580      23.521      20.359      17.566      15.097      13.248      12.095      11.560      11.516      11.850    
  12.459      13.216      13.954      14.493      11.246      11.170      10.971      10.728      10.552      10.549    
  10.823      11.516      12.859      15.097      18.292      22.232      28.993      41.025      56.244      69.186    
  74.277      69.186      56.244      41.025      28.993      22.232      18.292      15.097      12.859      11.516    
  10.823      10.549      10.552      10.728      10.971      11.170      9.1053      9.1195      9.1552      9.2266    
  9.4089      9.8092      10.549      11.850      14.084      17.566      22.232      31.645      52.421      84.857    
  121.72      151.22      162.51      151.22      121.72      84.857      52.421      31.645      22.232      17.566    
  14.084      11.850      10.549      9.8092      9.4089      9.2266      9.1552      9.1195      7.8671      7.9425    
  8.1193      8.3530      8.7300      9.4089      10.552      12.459      15.637      20.359      28.993      52.421    
  97.587      161.06      228.97      281.57      301.43      281.57      228.97      161.06      97.587      52.421    
  28.993      20.359      15.637      12.459      10.552      9.4089      8.7300      8.3530      8.1193      7.9425    
  7.2852      7.3960      7.6333      7.9053      8.3530      9.2266      10.728      13.216      17.285      23.521    
  41.025      84.857      161.06      261.95      366.48      446.17      476.06      446.17      366.48      261.95    
  161.06      84.857      41.025      23.521      17.285      13.216      10.728      9.2266      8.3530      7.9053    
  7.6333      7.3960      6.9299      7.0711      7.3519      7.6333      8.1193      9.1552      10.971      13.954    
  18.738      27.580      56.244      121.72      228.97      366.48      506.72      612.90      652.63      612.90    
  506.72      366.48      228.97      121.72      56.244      27.580      18.738      13.954      10.971      9.1552    
  8.1193      7.6333      7.3519      7.0711      6.5513      6.7275      7.0711      7.3960      7.9425      9.1195    
  11.170      14.493      19.730      31.336      69.186      151.22      281.57      446.17      612.90      738.83    
  785.93      738.83      612.90      446.17      281.57      151.22      69.186      31.336      19.730      14.493    
  11.170      9.1195      7.9425      7.3960      7.0711      6.7275      6.3576      6.5513      6.9299      7.2852    
  7.8671      9.1053      11.246      14.691      20.085      32.884      74.277      162.51      301.43      476.06    
  652.63      785.93      835.77      785.93      652.63      476.06      301.43      162.51      74.277      32.884    
  20.085      14.691      11.246      9.1053      7.8671      7.2852      6.9299      6.5513      6.5513      6.7275    
  7.0711      7.3960      7.9425      9.1195      11.170      14.493      19.730      31.336      69.186      151.22    
  281.57      446.17      612.90      738.83      785.93      738.83      612.90      446.17      281.57      151.22    
  69.186      31.336      19.730      14.493      11.170      9.1195      7.9425      7.3960      7.0711      6.7275    
  6.9299      7.0711      7.3519      7.6333      8.1193      9.1552      10.971      13.954      18.738      27.580    
  56.244      121.72      228.97      366.48      506.72      612.90      652.63      612.90      506.72      366.48    
  228.97      121.72      56.244      27.580      18.738      13.954      10.971      9.1552      8.1193      7.6333    
  7.3519      7.0711      7.2852      7.3960      7.6333      7.9053      8.3530      9.2266      10.728      13.216    
  17.285      23.521      41.025      84.857      161.06      261.95      366.48      446.17      476.06      446.17    
  366.48      261.95      161.06      84.857      41.025      23.521      17.285      13.216      10.728      9.2266    
  8.3530      7.9053      7.6333      7.3960      7.8671      7.9425      8.1193      8.3530      8.7300      9.4089    
  10.552      12.459      15.637      20.359      28.993      52.421      97.587      161.06      228.97      281.57    
  301.43      281.57      228.97      161.06      97.587      52.421      28.993      20.359      15.637      12.459    
  10.552      9.4089      8.7300      8.3530      8.1193      7.9425      9.1053      9.1195      9.1552      9.2266    
  9.4089      9.8092      10.549      11.850      14.084      17.566      22.232      31.645      52.421      84.857    
  121.72      151.22      162.51      151.22      121.72      84.857      52.421      31.645      22.232      17.566    
  14.084      11.850      10.549      9.8092      9.4089      9.2266      9.1552      9.1195      11.246      11.170    
  10.971      10.728      10.552      10.549      10.823      11.516      12.859      15.097      18.292      22.232    
  28.993      41.025      56.244      69.186      74.277      69.186      56.244      41.025      28.993      22.232    
  18.292      15.097      12.859      11.516      10.823      10.549      10.552      10.728      10.971      11.170    
  14.691      14.493      13.954      13.216      12.459      11.850      11.516      11.560      12.095      13.248    
  15.097      17.566      20.359      23.521      27.580      31.336      32.884      31.336      27.580      23.521    
  20.359      17.566      15.097      13.248      12.095      11.560      11.516      11.850      12.459      13.216    
  13.954      14.493      20.085      19.730      18.738      17.285      15.637      14.084      12.859      12.095    
  11.838      12.095      12.859      14.084      15.637      17.285      18.738      19.730      20.085      19.730    
  18.738      17.285      15.637      14.084      12.859      12.095      11.838      12.095      12.859      14.084    
  15.637      17.285      18.738      19.730      32.884      31.336      27.580      23.521      20.359      17.566    
  15.097      13.248      12.095      11.560      11.516      11.850      12.459      13.216      13.954      14.493    
  14.691      14.493      13.954      13.216      12.459      11.850      11.516      11.560      12.095      13.248    
  15.097      17.566      20.359      23.521      27.580      31.336      74.277      69.186      56.244      41.025    
  28.993      22.232      18.292      15.097      12.859      11.516      10.823      10.549      10.552      10.728    
  10.971      11.170      11.246      11.170      10.971      10.728      10.552      10.549      10.823      11.516    
  12.859      15.097      18.292      22.232      28.993      41.025      56.244      69.186      162.51      151.22    
  121.72      84.857      52.421      31.645      22.232      17.566      14.084      11.850      10.549      9.8092    
  9.4089      9.2266      9.1552      9.1195      9.1053      9.1195      9.1552      9.2266      9.4089      9.8092    
  10.549      11.850      14.084      17.566      22.232      31.645      52.421      84.857      121.72      151.22    
  301.43      281.57      228.97      161.06      97.587      52.421      28.993      20.359      15.637      12.459    
  10.552      9.4089      8.7300      8.3530      8.1193      7.9425      7.8671      7.9425      8.1193      8.3530    
  8.7300      9.4089      10.552      12.459      15.637      20.359      28.993      52.421      97.587      161.06    
  228.97      281.57      476.06      446.17      366.48      261.95      161.06      84.857      41.025      23.521    
  17.285      13.216      10.728      9.2266      8.3530      7.9053      7.6333      7.3960      7.2852      7.3960    
  7.6333      7.9053      8.3530      9.2266      10.728      13.216      17.285      23.521      41.025      84.857    
  161.06      261.95      366.48      446.17      652.63      612.90      506.72      366.48      228.97      121.72    
  56.244      27.580      18.738      13.954      10.971      9.1552      8.1193      7.6333      7.3519      7.0711    
  6.9299      7.0711      7.3519      7.6333      8.1193      9.1552      10.971      13.954      18.738      27.580    
  56.244      121.72      228.97      366.48      506.72      612.90      785.93      738.83      612.90      446.17    
  281.57      151.22      69.186      31.336      19.730      14.493      11.170      9.1195      7.9425      7.3960    
  7.0711      6.7275      6.5513      6.7275      7.0711      7.3960      7.9425      9.1195      11.170      14.493    
  19.730      31.336      69.186      151.22      281.57      446.17      612.90      738.83      694.69      652.63    
  540.19      391.55      245.44      130.88      60.204      28.706      19.069      14.136      11.043      9.1488    
  8.0612      7.5458      7.2393      6.9299      6.7744      6.9299      7.2393      7.5458      8.0612      9.1488    
  11.043      14.136      19.069      28.706      60.204      130.88      245.44      391.55      540.19      652.63    
  652.63      612.90      506.72      366.48      228.97      121.72      56.244      27.580      18.738      13.954    
  10.971      9.1552      8.1193      7.6333      7.3519      7.0711      6.9299      7.0711      7.3519      7.6333    
  8.1193      9.1552      10.971      13.954      18.738      27.580      56.244      121.72      228.97      366.48    
  506.72      612.90      540.19      506.72      417.37      299.79      185.49      97.934      46.268      24.859    
  17.809      13.459      10.784      9.1742      8.2595      7.8254      7.5806      7.3519      7.2393      7.3519    
  7.5806      7.8254      8.2595      9.1742      10.784      13.459      17.809      24.859      46.268      97.934    
  185.49      299.79      417.37      506.72      391.55      366.48      299.79      212.81      129.85      68.589    
  34.765      21.887      16.462      12.785      10.560      9.2284      8.4569      8.0596      7.8254      7.6333    
  7.5458      7.6333      7.8254      8.0596      8.4569      9.2284      10.560      12.785      16.462      21.887    
  34.765      68.589      129.85      212.81      299.79      366.48      245.44      228.97      185.49      129.85    
  78.698      43.392      25.931      19.261      14.953      12.100      10.399      9.3863      8.7878      8.4569    
  8.2595      8.1193      8.0612      8.1193      8.2595      8.4569      8.7878      9.3863      10.399      12.100    
  14.953      19.261      25.931      43.392      78.698      129.85      185.49      228.97      130.88      121.72    
  97.934      68.589      43.392      27.872      20.899      16.686      13.548      11.554      10.396      9.7395    
  9.3863      9.2284      9.1742      9.1552      9.1488      9.1552      9.1742      9.2284      9.3863      9.7395    
  10.396      11.554      13.548      16.686      20.899      27.872      43.392      68.589      97.934      121.72    
  60.204      56.244      46.268      34.765      25.931      20.899      17.340      14.450      12.452      11.258    
  10.641      10.396      10.399      10.560      10.784      10.971      11.043      10.971      10.784      10.560    
  10.399      10.396      10.641      11.258      12.452      14.450      17.340      20.899      25.931      34.765    
  46.268      56.244      28.706      27.580      24.859      21.887      19.261      16.686      14.450      12.797    
  11.774      11.299      11.258      11.554      12.100      12.785      13.459      13.954      14.136      13.954    
  13.459      12.785      12.100      11.554      11.258      11.299      11.774      12.797      14.450      16.686    
  19.261      21.887      24.859      27.580      19.069      18.738      17.809      16.462      14.953      13.548    
  12.452      11.774      11.547      11.774      12.452      13.548      14.953      16.462      17.809      18.738    
  19.069      18.738      17.809      16.462      14.953      13.548      12.452      11.774      11.547      11.774    
  12.452      13.548      14.953      16.462      17.809      18.738      14.136      13.954      13.459      12.785    
  12.100      11.554      11.258      11.299      11.774      12.797      14.450      16.686      19.261      21.887    
  24.859      27.580      28.706      27.580      24.859      21.887      19.261      16.686      14.450      12.797    
  11.774      11.299      11.258      11.554      12.100      12.785      13.459      13.954      11.043      10.971    
  10.784      10.560      10.399      10.396      10.641      11.258      12.452      14.450      17.340      20.899    
  25.931      34.765      46.268      56.244      60.204      56.244      46.268      34.765      25.931      20.899    
  17.340      14.450      12.452      11.258      10.641      10.396      10.399      10.560      10.784      10.971    
  9.1488      9.1552      9.1742      9.2284      9.3863      9.7395      10.396      11.554      13.548      16.686    
  20.899      27.872      43.392      68.589      97.934      121.72      130.88      121.72      97.934      68.589    
  43.392      27.872      20.899      16.686      13.548      11.554      10.396      9.7395      9.3863      9.2284    
  9.1742      9.1552      8.0612      8.1193      8.2595      8.4569      8.7878      9.3863      10.399      12.100    
  14.953      19.261      25.931      43.392      78.698      129.85      185.49      228.97      245.44      228.97    