unknown system                          
   1.00000000000000     
     3.694601    0.000000    0.000000
     0.000000    3.694601    0.000000
     0.000000    0.000000    3.694601
   Cu
     4
Direct
  0.000000  0.000000  0.000000
  0.500000  0.500000  0.000000
  0.500000  0.000000  0.500000
  0.000000  0.500000  0.500000
 
   32   32   32
 0.88852855688E+03 0.83577272497E+03 0.69469408151E+03 0.50774409787E+03 0.32254163314E+03
 0.17459050713E+03 0.79797283685E+02 0.34600420996E+02 0.20457854589E+02 0.14893427094E+02
 0.11323079838E+02 0.90873262215E+01 0.77836395288E+01 0.71630997319E+01 0.67743853541E+01
 0.63576333874E+01 0.61449788648E+01 0.63576333874E+01 0.67743853541E+01 0.71630997319E+01
 0.77836395288E+01 0.90873262215E+01 0.11323079838E+02 0.14893427094E+02 0.20457854589E+02
 0.34600420996E+02 0.79797283685E+02 0.17459050713E+03 0.32254163314E+03 0.50774409787E+03
 0.69469408151E+03 0.83577272497E+03 0.83577272497E+03 0.78592760017E+03 0.65263141853E+03
 0.47606200364E+03 0.30142748171E+03 0.16250608752E+03 0.74277219178E+02 0.32883946246E+02
 0.20085493043E+02 0.14690532837E+02 0.11246153360E+02 0.91052704147E+01 0.78670536816E+01
 0.72851609396E+01 0.69299343770E+01 0.65513039541E+01 0.63576333874E+01 0.65513039541E+01
 0.69299343770E+01 0.72851609396E+01 0.78670536816E+01 0.91052704147E+01 0.11246153360E+02
 0.14690532837E+02 0.20085493043E+02 0.32883946246E+02 0.74277219178E+02 0.16250608752E+03
 0.30142748171E+03 0.47606200364E+03 0.65263141853E+03 0.78592760017E+03 0.69469408151E+03
 0.65263141853E+03 0.54019143413E+03 0.39154774888E+03 0.24544024342E+03 0.13088269194E+03
 0.60204118949E+02 0.28706435029E+02 0.19068790447E+02 0.14136364717E+02 0.11043055580E+02
 0.91488072283E+01 0.80612256355E+01 0.75457937380E+01 0.72393239436E+01 0.69299343770E+01
 0.67743853541E+01 0.69299343770E+01 0.72393239436E+01 0.75457937380E+01 0.80612256355E+01
 0.91488072283E+01 0.11043055580E+02 0.14136364717E+02 0.19068790447E+02 0.28706435029E+02
 0.60204118949E+02 0.13088269194E+03 0.24544024342E+03 0.39154774888E+03 0.54019143413E+03
 0.65263141853E+03 0.50774409787E+03 0.47606200364E+03 0.39154774888E+03 0.28051709212E+03
 0.17297992419E+03 0.91193825802E+02 0.43551470901E+02 0.24184812370E+02 0.17580422558E+02
 0.13375035380E+02 0.10793671477E+02 0.92282893976E+01 0.83126874403E+01 0.78396008809E+01
 0.75457937380E+01 0.72851609396E+01 0.71630997319E+01 0.72851609396E+01 0.75457937380E+01
 0.78396008809E+01 0.83126874403E+01 0.92282893976E+01 0.10793671477E+02 0.13375035380E+02
 0.17580422558E+02 0.24184812370E+02 0.43551470901E+02 0.91193825802E+02 0.17297992419E+03
 0.28051709212E+03 0.39154774888E+03 0.47606200364E+03 0.32254163314E+03 0.30142748171E+03
 0.24544024342E+03 0.17297992419E+03 0.10490419690E+03 0.56010414743E+02 0.30252930855E+02
 0.20750359044E+02 0.15884444986E+02 0.12591515456E+02 0.10610991188E+02 0.94206438668E+01
 0.87101699959E+01 0.83126874403E+01 0.80612256355E+01 0.78670536816E+01 0.77836395288E+01
 0.78670536816E+01 0.80612256355E+01 0.83126874403E+01 0.87101699959E+01 0.94206438668E+01
 0.10610991188E+02 0.12591515456E+02 0.15884444986E+02 0.20750359044E+02 0.30252930855E+02
 0.56010414743E+02 0.10490419690E+03 0.17297992419E+03 0.24544024342E+03 0.30142748171E+03
 0.17459050713E+03 0.16250608752E+03 0.13088269194E+03 0.91193825802E+02 0.56010414743E+02
 0.33189229137E+02 0.22747415347E+02 0.17880189579E+02 0.14278137174E+02 0.11958753211E+02
 0.10607795488E+02 0.98382381747E+01 0.94206438668E+01 0.92282893976E+01 0.91488072283E+01
 0.91052704147E+01 0.90873262215E+01 0.91052704147E+01 0.91488072283E+01 0.92282893976E+01
 0.94206438668E+01 0.98382381747E+01 0.10607795488E+02 0.11958753211E+02 0.14278137174E+02
 0.17880189579E+02 0.22747415347E+02 0.33189229137E+02 0.56010414743E+02 0.91193825802E+02
 0.13088269194E+03 0.16250608752E+03 0.79797283685E+02 0.74277219178E+02 0.60204118949E+02
 0.43551470901E+02 0.30252930855E+02 0.22747415347E+02 0.18629708492E+02 0.15329856857E+02
 0.13006251235E+02 0.11610491500E+02 0.10890759442E+02 0.10607795488E+02 0.10610991188E+02
 0.10793671477E+02 0.11043055580E+02 0.11246153360E+02 0.11323079838E+02 0.11246153360E+02
 0.11043055580E+02 0.10793671477E+02 0.10610991188E+02 0.10607795488E+02 0.10890759442E+02
 0.11610491500E+02 0.13006251235E+02 0.15329856857E+02 0.18629708492E+02 0.22747415347E+02
 0.30252930855E+02 0.43551470901E+02 0.60204118949E+02 0.74277219178E+02 0.34600420996E+02
 0.32883946246E+02 0.28706435029E+02 0.24184812370E+02 0.20750359044E+02 0.17880189579E+02
 0.15329856857E+02 0.13409995776E+02 0.12210883690E+02 0.11655111130E+02 0.11610491500E+02
 0.11958753211E+02 0.12591515456E+02 0.13375035380E+02 0.14136364717E+02 0.14690532837E+02
 0.14893427094E+02 0.14690532837E+02 0.14136364717E+02 0.13375035380E+02 0.12591515456E+02
 0.11958753211E+02 0.11610491500E+02 0.11655111130E+02 0.12210883690E+02 0.13409995776E+02
 0.15329856857E+02 0.17880189579E+02 0.20750359044E+02 0.24184812370E+02 0.28706435029E+02
 0.32883946246E+02 0.20457854589E+02 0.20085493043E+02 0.19068790447E+02 0.17580422558E+02
 0.15884444986E+02 0.14278137174E+02 0.13006251235E+02 0.12210883690E+02 0.11943022651E+02
 0.12210883690E+02 0.13006251235E+02 0.14278137174E+02 0.15884444986E+02 0.17580422558E+02
 0.19068790447E+02 0.20085493043E+02 0.20457854589E+02 0.20085493043E+02 0.19068790447E+02
 0.17580422558E+02 0.15884444986E+02 0.14278137174E+02 0.13006251235E+02 0.12210883690E+02
 0.11943022651E+02 0.12210883690E+02 0.13006251235E+02 0.14278137174E+02 0.15884444986E+02
 0.17580422558E+02 0.19068790447E+02 0.20085493043E+02 0.14893427094E+02 0.14690532837E+02
 0.14136364717E+02 0.13375035380E+02 0.12591515456E+02 0.11958753211E+02 0.11610491500E+02
 0.11655111130E+02 0.12210883690E+02 0.13409995776E+02 0.15329856857E+02 0.17880189579E+02
 0.20750359044E+02 0.24184812370E+02 0.28706435029E+02 0.32883946246E+02 0.34600420996E+02
 0.32883946246E+02 0.28706435029E+02 0.24184812370E+02 0.20750359044E+02 0.17880189579E+02
 0.15329856857E+02 0.13409995776E+02 0.12210883690E+02 0.11655111130E+02 0.11610491500E+02
 0.11958753211E+02 0.12591515456E+02 0.13375035380E+02 0.14136364717E+02 0.14690532837E+02
 0.11323079838E+02 0.11246153360E+02 0.11043055580E+02 0.10793671477E+02 0.10610991188E+02
 0.10607795488E+02 0.10890759442E+02 0.11610491500E+02 0.13006251235E+02 0.15329856857E+02
 0.18629708492E+02 0.22747415347E+02 0.30252930855E+02 0.43551470901E+02 0.60204118949E+02
 0.74277219178E+02 0.79797283685E+02 0.74277219178E+02 0.60204118949E+02 0.43551470901E+02
 0.30252930855E+02 0.22747415347E+02 0.18629708492E+02 0.15329856857E+02 0.13006251235E+02
 0.11610491500E+02 0.10890759442E+02 0.10607795488E+02 0.10610991188E+02 0.10793671477E+02
 0.11043055580E+02 0.11246153360E+02 0.90873262215E+01 0.91052704147E+01 0.91488072283E+01
 0.92282893976E+01 0.94206438668E+01 0.98382381747E+01 0.10607795488E+02 0.11958753211E+02
 0.14278137174E+02 0.17880189579E+02 0.22747415347E+02 0.33189229137E+02 0.56010414743E+02
 0.91193825802E+02 0.13088269194E+03 0.16250608752E+03 0.17459050713E+03 0.16250608752E+03
 0.13088269194E+03 0.91193825802E+02 0.56010414743E+02 0.33189229137E+02 0.22747415347E+02
 0.17880189579E+02 0.14278137174E+02 0.11958753211E+02 0.10607795488E+02 0.98382381747E+01
 0.94206438668E+01 0.92282893976E+01 0.91488072283E+01 0.91052704147E+01 0.77836395288E+01
 0.78670536816E+01 0.80612256355E+01 0.83126874403E+01 0.87101699959E+01 0.94206438668E+01
 0.10610991188E+02 0.12591515456E+02 0.15884444986E+02 0.20750359044E+02 0.30252930855E+02
 0.56010414743E+02 0.10490419690E+03 0.17297992419E+03 0.24544024342E+03 0.30142748171E+03
 0.32254163314E+03 0.30142748171E+03 0.24544024342E+03 0.17297992419E+03 0.10490419690E+03
 0.56010414743E+02 0.30252930855E+02 0.20750359044E+02 0.15884444986E+02 0.12591515456E+02
 0.10610991188E+02 0.94206438668E+01 0.87101699959E+01 0.83126874403E+01 0.80612256355E+01
 0.78670536816E+01 0.71630997319E+01 0.72851609396E+01 0.75457937380E+01 0.78396008809E+01
 0.83126874403E+01 0.92282893976E+01 0.10793671477E+02 0.13375035380E+02 0.17580422558E+02
 0.24184812370E+02 0.43551470901E+02 0.91193825802E+02 0.17297992419E+03 0.28051709212E+03
 0.39154774888E+03 0.47606200364E+03 0.50774409787E+03 0.47606200364E+03 0.39154774888E+03
 0.28051709212E+03 0.17297992419E+03 0.91193825802E+02 0.43551470901E+02 0.24184812370E+02
 0.17580422558E+02 0.13375035380E+02 0.10793671477E+02 0.92282893976E+01 0.83126874403E+01
 0.78396008809E+01 0.75457937380E+01 0.72851609396E+01 0.67743853541E+01 0.69299343770E+01
 0.72393239436E+01 0.75457937380E+01 0.80612256355E+01 0.91488072283E+01 0.11043055580E+02
 0.14136364717E+02 0.19068790447E+02 0.28706435029E+02 0.60204118949E+02 0.13088269194E+03
 0.24544024342E+03 0.39154774888E+03 0.54019143413E+03 0.65263141853E+03 0.69469408151E+03
 0.65263141853E+03 0.54019143413E+03 0.39154774888E+03 0.24544024342E+03 0.13088269194E+03
 0.60204118949E+02 0.28706435029E+02 0.19068790447E+02 0.14136364717E+02 0.11043055580E+02
 0.91488072283E+01 0.80612256355E+01 0.75457937380E+01 0.72393239436E+01 0.69299343770E+01
 0.63576333874E+01 0.65513039541E+01 0.69299343770E+01 0.72851609396E+01 0.78670536816E+01
 0.91052704147E+01 0.11246153360E+02 0.14690532837E+02 0.20085493043E+02 0.32883946246E+02
 0.74277219178E+02 0.16250608752E+03 0.30142748171E+03 0.47606200364E+03 0.65263141853E+03
 0.78592760017E+03 0.83577272497E+03 0.78592760017E+03 0.65263141853E+03 0.47606200364E+03
 0.30142748171E+03 0.16250608752E+03 0.74277219178E+02 0.32883946246E+02 0.20085493043E+02
 0.14690532837E+02 0.11246153360E+02 0.91052704147E+01 0.78670536816E+01 0.72851609396E+01
 0.69299343770E+01 0.65513039541E+01 0.61449788648E+01 0.63576333874E+01 0.67743853541E+01
 0.71630997319E+01 0.77836395288E+01 0.90873262215E+01 0.11323079838E+02 0.14893427094E+02
 0.20457854589E+02 0.34600420996E+02 0.79797283685E+02 0.17459050713E+03 0.32254163314E+03
 0.50774409787E+03 0.69469408151E+03 0.83577272497E+03 0.88852855688E+03 0.83577272497E+03
 0.69469408151E+03 0.50774409787E+03 0.32254163314E+03 0.17459050713E+03 0.79797283685E+02
 0.34600420996E+02 0.20457854589E+02 0.14893427094E+02 0.11323079838E+02 0.90873262215E+01
 0.77836395288E+01 0.71630997319E+01 0.67743853541E+01 0.63576333874E+01 0.63576333874E+01
 0.65513039541E+01 0.69299343770E+01 0.72851609396E+01 0.78670536816E+01 0.91052704147E+01
 0.11246153360E+02 0.14690532837E+02 0.20085493043E+02 0.32883946246E+02 0.74277219178E+02
 0.16250608752E+03 0.30142748171E+03 0.47606200364E+03 0.65263141853E+03 0.78592760017E+03
 0.83577272497E+03 0.78592760017E+03 0.65263141853E+03 0.47606200364E+03 0.30142748171E+03
 0.16250608752E+03 0.74277219178E+02 0.32883946246E+02 0.20085493043E+02 0.14690532837E+02
 0.11246153360E+02 0.91052704147E+01 0.78670536816E+01 0.72851609396E+01 0.69299343770E+01
 0.65513039541E+01 0.67743853541E+01 0.69299343770E+01 0.72393239436E+01 0.75457937380E+01
 0.80612256355E+01 0.91488072283E+01 0.11043055580E+02 0.14136364717E+02 0.19068790447E+02
 0.28706435029E+02 0.60204118949E+02 0.13088269194E+03 0.24544024342E+03 0.39154774888E+03
 0.54019143413E+03 0.65263141853E+03 0.69469408151E+03 0.65263141853E+03 0.54019143413E+03
 0.39154774888E+03 0.24544024342E+03 0.13088269194E+03 0.60204118949E+02 0.28706435029E+02
 0.19068790447E+02 0.14136364717E+02 0.11043055580E+02 0.91488072283E+01 0.80612256355E+01
 0.75457937380E+01 0.72393239436E+01 0.69299343770E+01 0.71630997319E+01 0.72851609396E+01
 0.75457937380E+01 0.78396008809E+01 0.83126874403E+01 0.92282893976E+01 0.10793671477E+02
 0.13375035380E+02 0.17580422558E+02 0.24184812370E+02 0.43551470901E+02 0.91193825802E+02
 0.17297992419E+03 0.28051709212E+03 0.39154774888E+03 0.47606200364E+03 0.50774409787E+03
 0.47606200364E+03 0.39154774888E+03 0.28051709212E+03 0.17297992419E+03 0.91193825802E+02
 0.43551470901E+02 0.24184812370E+02 0.17580422558E+02 0.13375035380E+02 0.10793671477E+02
 0.92282893976E+01 0.83126874403E+01 0.78396008809E+01 0.75457937380E+01 0.72851609396E+01
 0.77836395288E+01 0.78670536816E+01 0.80612256355E+01 0.83126874403E+01 0.87101699959E+01
 0.94206438668E+01 0.10610991188E+02 0.12591515456E+02 0.15884444986E+02 0.20750359044E+02
 0.30252930855E+02 0.56010414743E+02 0.10490419690E+03 0.17297992419E+03 0.24544024342E+03
 0.30142748171E+03 0.32254163314E+03 0.30142748171E+03 0.24544024342E+03 0.17297992419E+03
 0.10490419690E+03 0.56010414743E+02 0.30252930855E+02 0.20750359044E+02 0.15884444986E+02
 0.12591515456E+02 0.10610991188E+02 0.94206438668E+01 0.87101699959E+01 0.83126874403E+01
 0.80612256355E+01 0.78670536816E+01 0.90873262215E+01 0.91052704147E+01 0.91488072283E+01
 0.92282893976E+01 0.94206438668E+01 0.98382381747E+01 0.10607795488E+02 0.11958753211E+02
 0.14278137174E+02 0.17880189579E+02 0.22747415347E+02 0.33189229137E+02 0.56010414743E+02
 0.91193825802E+02 0.13088269194E+03 0.16250608752E+03 0.17459050713E+03 0.16250608752E+03
 0.13088269194E+03 0.91193825802E+02 0.56010414743E+02 0.33189229137E+02 0.22747415347E+02
 0.17880189579E+02 0.14278137174E+02 0.11958753211E+02 0.10607795488E+02 0.98382381747E+01
 0.94206438668E+01 0.92282893976E+01 0.91488072283E+01 0.91052704147E+01 0.11323079838E+02
 0.11246153360E+02 0.11043055580E+02 0.10793671477E+02 0.10610991188E+02 0.10607795488E+02
 0.10890759442E+02 0.11610491500E+02 0.13006251235E+02 0.15329856857E+02 0.18629708492E+02
 0.22747415347E+02 0.30252930855E+02 0.43551470901E+02 0.60204118949E+02 0.74277219178E+02
 0.79797283685E+02 0.74277219178E+02 0.60204118949E+02 0.43551470901E+02 0.30252930855E+02
 0.22747415347E+02 0.18629708492E+02 0.15329856857E+02 0.13006251235E+02 0.11610491500E+02
 0.10890759442E+02 0.10607795488E+02 0.10610991188E+02 0.10793671477E+02 0.11043055580E+02
 0.11246153360E+02 0.14893427094E+02 0.14690532837E+02 0.14136364717E+02 0.13375035380E+02
 0.12591515456E+02 0.11958753211E+02 0.11610491500E+02 0.11655111130E+02 0.12210883690E+02
 0.13409995776E+02 0.15329856857E+02 0.17880189579E+02 0.20750359044E+02 0.24184812370E+02
 0.28706435029E+02 0.32883946246E+02 0.34600420996E+02 0.32883946246E+02 0.28706435029E+02
 0.24184812370E+02 0.20750359044E+02 0.17880189579E+02 0.15329856857E+02 0.13409995776E+02
 0.12210883690E+02 0.11655111130E+02 0.11610491500E+02 0.11958753211E+02 0.12591515456E+02
 0.13375035380E+02 0.14136364717E+02 0.14690532837E+02 0.20457854589E+02 0.20085493043E+02
 0.19068790447E+02 0.17580422558E+02 0.15884444986E+02 0.14278137174E+02 0.13006251235E+02
 0.12210883690E+02 0.11943022651E+02 0.12210883690E+02 0.13006251235E+02 0.14278137174E+02
 0.15884444986E+02 0.17580422558E+02 0.19068790447E+02 0.20085493043E+02 0.20457854589E+02
 0.20085493043E+02 0.19068790447E+02 0.17580422558E+02 0.15884444986E+02 0.14278137174E+02
 0.13006251235E+02 0.12210883690E+02 0.11943022651E+02 0.12210883690E+02 0.13006251235E+02
 0.14278137174E+02 0.15884444986E+02 0.17580422558E+02 0.19068790447E+02 0.20085493043E+02
 0.34600420996E+02 0.32883946246E+02 0.28706435029E+02 0.24184812370E+02 0.20750359044E+02
 0.17880189579E+02 0.15329856857E+02 0.13409995776E+02 0.12210883690E+02 0.11655111130E+02
 0.11610491500E+02 0.11958753211E+02 0.12591515456E+02 0.13375035380E+02 0.14136364717E+02
 0.14690532837E+02 0.14893427094E+02 0.14690532837E+02 0.14136364717E+02 0.13375035380E+02
 0.12591515456E+02 0.11958753211E+02 0.11610491500E+02 0.11655111130E+02 0.12210883690E+02
 0.13409995776E+02 0.15329856857E+02 0.17880189579E+02 0.20750359044E+02 0.24184812370E+02
 0.28706435029E+02 0.32883946246E+02 0.79797283685E+02 0.74277219178E+02 0.60204118949E+02
 0.43551470901E+02 0.30252930855E+02 0.22747415347E+02 0.18629708492E+02 0.15329856857E+02
 0.13006251235E+02 0.11610491500E+02 0.10890759442E+02 0.10607795488E+02 0.10610991188E+02
 0.10793671477E+02 0.11043055580E+02 0.11246153360E+02 0.11323079838E+02 0.11246153360E+02
 0.11043055580E+02 0.10793671477E+02 0.10610991188E+02 0.10607795488E+02 0.10890759442E+02
 0.11610491500E+02 0.13006251235E+02 0.15329856857E+02 0.18629708492E+02 0.22747415347E+02
 0.30252930855E+02 0.43551470901E+02 0.60204118949E+02 0.74277219178E+02 0.17459050713E+03
 0.16250608752E+03 0.13088269194E+03 0.91193825802E+02 0.56010414743E+02 0.33189229137E+02
 0.22747415347E+02 0.17880189579E+02 0.14278137174E+02 0.11958753211E+02 0.10607795488E+02
 0.98382381747E+01 0.94206438668E+01 0.92282893976E+01 0.91488072283E+01 0.91052704147E+01
 0.90873262215E+01 0.91052704147E+01 0.91488072283E+01 0.92282893976E+01 0.94206438668E+01
 0.98382381747E+01 0.10607795488E+02 0.11958753211E+02 0.14278137174E+02 0.17880189579E+02
 0.22747415347E+02 0.33189229137E+02 0.56010414743E+02 0.91193825802E+02 0.13088269194E+03
 0.16250608752E+03 0.32254163314E+03 0.30142748171E+03 0.24544024342E+03 0.17297992419E+03
 0.10490419690E+03 0.56010414743E+02 0.30252930855E+02 0.20750359044E+02 0.15884444986E+02
 0.12591515456E+02 0.10610991188E+02 0.94206438668E+01 0.87101699959E+01 0.83126874403E+01
 0.80612256355E+01 0.78670536816E+01 0.77836395288E+01 0.78670536816E+01 0.80612256355E+01
 0.83126874403E+01 0.87101699959E+01 0.94206438668E+01 0.10610991188E+02 0.12591515456E+02
 0.15884444986E+02 0.20750359044E+02 0.30252930855E+02 0.56010414743E+02 0.10490419690E+03
 0.17297992419E+03 0.24544024342E+03 0.30142748171E+03 0.50774409787E+03 0.47606200364E+03
 0.39154774888E+03 0.28051709212E+03 0.17297992419E+03 0.91193825802E+02 0.43551470901E+02
 0.24184812370E+02 0.17580422558E+02 0.13375035380E+02 0.10793671477E+02 0.92282893976E+01
 0.83126874403E+01 0.78396008809E+01 0.75457937380E+01 0.72851609396E+01 0.71630997319E+01
 0.72851609396E+01 0.75457937380E+01 0.78396008809E+01 0.83126874403E+01 0.92282893976E+01
 0.10793671477E+02 0.13375035380E+02 0.17580422558E+02 0.24184812370E+02 0.43551470901E+02
 0.91193825802E+02 0.17297992419E+03 0.28051709212E+03 0.39154774888E+03 0.47606200364E+03
 0.69469408151E+03 0.65263141853E+03 0.54019143413E+03 0.39154774888E+03 0.24544024342E+03
 0.13088269194E+03 0.60204118949E+02 0.28706435029E+02 0.19068790447E+02 0.14136364717E+02
 0.11043055580E+02 0.91488072283E+01 0.80612256355E+01 0.75457937380E+01 0.72393239436E+01
 0.69299343770E+01 0.67743853541E+01 0.69299343770E+01 0.72393239436E+01 0.75457937380E+01
 0.80612256355E+01 0.91488072283E+01 0.11043055580E+02 0.14136364717E+02 0.19068790447E+02
 0.28706435029E+02 0.60204118949E+02 0.13088269194E+03 0.24544024342E+03 0.39154774888E+03
 0.54019143413E+03 0.65263141853E+03 0.83577272497E+03 0.78592760017E+03 0.65263141853E+03
 0.47606200364E+03 0.30142748171E+03 0.16250608752E+03 0.74277219178E+02 0.32883946246E+02
 0.20085493043E+02 0.14690532837E+02 0.11246153360E+02 0.91052704147E+01 0.78670536816E+01
 0.72851609396E+01 0.69299343770E+01 0.65513039541E+01 0.63576333874E+01 0.65513039541E+01
 0.69299343770E+01 0.72851609396E+01 0.78670536816E+01 0.91052704147E+01 0.11246153360E+02
 0.14690532837E+02 0.20085493043E+02 0.32883946246E+02 0.74277219178E+02 0.16250608752E+03
 0.30142748171E+03 0.47606200364E+03 0.65263141853E+03 0.78592760017E+03 0.83577272497E+03
 0.78592760017E+03 0.65263141853E+03 0.47606200364E+03 0.30142748171E+03 0.16250608752E+03
 0.74277219178E+02 0.32883946246E+02 0.20085493043E+02 0.14690532837E+02 0.11246153360E+02
 0.91052704147E+01 0.78670536816E+01 0.72851609396E+01 0.69299343770E+01 0.65513039541E+01
 0.63576333874E+01 0.65513039541E+01 0.69299343770E+01 0.72851609396E+01 0.78670536816E+01
 0.91052704147E+01 0.11246153360E+02 0.14690532837E+02 0.20085493043E+02 0.32883946246E+02
 0.74277219178E+02 0.16250608752E+03 0.30142748171E+03 0.47606200364E+03 0.65263141853E+03
 0.78592760017E+03 0.78592760017E+03 0.73883330932E+03 0.61290038803E+03 0.44617052544E+03
 0.28156885973E+03 0.15121616156E+03 0.69186425378E+02 0.31336092981E+02 0.19729826762E+02
 0.14492901125E+02 0.11170359779E+02 0.91195439861E+01 0.79424748864E+01 0.73959627769E+01
 0.70711466710E+01 0.67274770868E+01 0.65513039541E+01 0.67274770868E+01 0.70711466710E+01
 0.73959627769E+01 0.79424748864E+01 0.91195439861E+01 0.11170359779E+02 0.14492901125E+02
 0.19729826762E+02 0.31336092981E+02 0.69186425378E+02 0.15121616156E+03 0.28156885973E+03
 0.44617052544E+03 0.61290038803E+03 0.73883330932E+03 0.65263141853E+03 0.61290038803E+03
 0.50671996410E+03 0.36647930099E+03 0.22896649447E+03 0.12172331230E+03 0.56244238840E+02
 0.27579727127E+02 0.18737940185E+02 0.13953982182E+02 0.10971168839E+02 0.91551821182E+01
 0.81192818576E+01 0.76332794649E+01 0.73518541489E+01 0.70711466710E+01 0.69299343770E+01
 0.70711466710E+01 0.73518541489E+01 0.76332794649E+01 0.81192818576E+01 0.91551821182E+01
 0.10971168839E+02 0.13953982182E+02 0.18737940185E+02 0.27579727127E+02 0.56244238840E+02
 0.12172331230E+03 0.22896649447E+03 0.36647930099E+03 0.50671996410E+03 0.61290038803E+03
 0.47606200364E+03 0.44617052544E+03 0.36647930099E+03 0.26195033971E+03 0.16106117469E+03
 0.84857106088E+02 0.41025054718E+02 0.23520913393E+02 0.17285132672E+02 0.13215711818E+02
 0.10728252632E+02 0.92266031115E+01 0.83529814083E+01 0.79052574960E+01 0.76332794649E+01
 0.73959627769E+01 0.72851609396E+01 0.73959627769E+01 0.76332794649E+01 0.79052574960E+01
 0.83529814083E+01 0.92266031115E+01 0.10728252632E+02 0.13215711818E+02 0.17285132672E+02
 0.23520913393E+02 0.41025054718E+02 0.84857106088E+02 0.16106117469E+03 0.26195033971E+03
 0.36647930099E+03 0.44617052544E+03 0.30142748171E+03 0.28156885973E+03 0.22896649447E+03
 0.16106117469E+03 0.97586801143E+02 0.52420678908E+02 0.28993473557E+02 0.20358977590E+02
 0.15637391265E+02 0.12458597539E+02 0.10551546452E+02 0.94089443524E+01 0.87299774832E+01
 0.83529814083E+01 0.81192818576E+01 0.79424748864E+01 0.78670536816E+01 0.79424748864E+01
 0.81192818576E+01 0.83529814083E+01 0.87299774832E+01 0.94089443524E+01 0.10551546452E+02
 0.12458597539E+02 0.15637391265E+02 0.20358977590E+02 0.28993473557E+02 0.52420678908E+02
 0.97586801143E+02 0.16106117469E+03 0.22896649447E+03 0.28156885973E+03 0.16250608752E+03
 0.15121616156E+03 0.12172331230E+03 0.84857106088E+02 0.52420678908E+02 0.31645073291E+02
 0.22231942923E+02 0.17566212032E+02 0.14083972092E+02 0.11849522939E+02 0.10549041230E+02
 0.98091556404E+01 0.94089443524E+01 0.92266031115E+01 0.91551821182E+01 0.91195439861E+01
 0.91052704147E+01 0.91195439861E+01 0.91551821182E+01 0.92266031115E+01 0.94089443524E+01
 0.98091556404E+01 0.10549041230E+02 0.11849522939E+02 0.14083972092E+02 0.17566212032E+02
 0.22231942923E+02 0.31645073291E+02 0.52420678908E+02 0.84857106088E+02 0.12172331230E+03
 0.15121616156E+03 0.74277219178E+02 0.69186425378E+02 0.56244238840E+02 0.41025054718E+02
 0.28993473557E+02 0.22231942923E+02 0.18291779505E+02 0.15097393774E+02 0.12858878592E+02
 0.11515992827E+02 0.10822548823E+02 0.10549041230E+02 0.10551546452E+02 0.10728252632E+02
 0.10971168839E+02 0.11170359779E+02 0.11246153360E+02 0.11170359779E+02 0.10971168839E+02
 0.10728252632E+02 0.10551546452E+02 0.10549041230E+02 0.10822548823E+02 0.11515992827E+02
 0.12858878592E+02 0.15097393774E+02 0.18291779505E+02 0.22231942923E+02 0.28993473557E+02
 0.41025054718E+02 0.56244238840E+02 0.69186425378E+02 0.32883946246E+02 0.31336092981E+02
 0.27579727127E+02 0.23520913393E+02 0.20358977590E+02 0.17566212032E+02 0.15097393774E+02
 0.13247627816E+02 0.12095044893E+02 0.11560414465E+02 0.11515992827E+02 0.11849522939E+02
 0.12458597539E+02 0.13215711818E+02 0.13953982182E+02 0.14492901125E+02 0.14690532837E+02
 0.14492901125E+02 0.13953982182E+02 0.13215711818E+02 0.12458597539E+02 0.11849522939E+02
 0.11515992827E+02 0.11560414465E+02 0.12095044893E+02 0.13247627816E+02 0.15097393774E+02
 0.17566212032E+02 0.20358977590E+02 0.23520913393E+02 0.27579727127E+02 0.31336092981E+02
 0.20085493043E+02 0.19729826762E+02 0.18737940185E+02 0.17285132672E+02 0.15637391265E+02
 0.14083972092E+02 0.12858878592E+02 0.12095044893E+02 0.11838215079E+02 0.12095044893E+02
 0.12858878592E+02 0.14083972092E+02 0.15637391265E+02 0.17285132672E+02 0.18737940185E+02
 0.19729826762E+02 0.20085493043E+02 0.19729826762E+02 0.18737940185E+02 0.17285132672E+02
 0.15637391265E+02 0.14083972092E+02 0.12858878592E+02 0.12095044893E+02 0.11838215079E+02
 0.12095044893E+02 0.12858878592E+02 0.14083972092E+02 0.15637391265E+02 0.17285132672E+02
 0.18737940185E+02 0.19729826762E+02 0.14690532837E+02 0.14492901125E+02 0.13953982182E+02
 0.13215711818E+02 0.12458597539E+02 0.11849522939E+02 0.11515992827E+02 0.11560414465E+02
 0.12095044893E+02 0.13247627816E+02 0.15097393774E+02 0.17566212032E+02 0.20358977590E+02
 0.23520913393E+02 0.27579727127E+02 0.31336092981E+02 0.32883946246E+02 0.31336092981E+02
 0.27579727127E+02 0.23520913393E+02 0.20358977590E+02 0.17566212032E+02 0.15097393774E+02
 0.13247627816E+02 0.12095044893E+02 0.11560414465E+02 0.11515992827E+02 0.11849522939E+02
 0.12458597539E+02 0.13215711818E+02 0.13953982182E+02 0.14492901125E+02 0.11246153360E+02
 0.11170359779E+02 0.10971168839E+02 0.10728252632E+02 0.10551546452E+02 0.10549041230E+02
 0.10822548823E+02 0.11515992827E+02 0.12858878592E+02 0.15097393774E+02 0.18291779505E+02
 0.22231942923E+02 0.28993473557E+02 0.41025054718E+02 0.56244238840E+02 0.69186425378E+02
 0.74277219178E+02 0.69186425378E+02 0.56244238840E+02 0.41025054718E+02 0.28993473557E+02
 0.22231942923E+02 0.18291779505E+02 0.15097393774E+02 0.12858878592E+02 0.11515992827E+02
 0.10822548823E+02 0.10549041230E+02 0.10551546452E+02 0.10728252632E+02 0.10971168839E+02
 0.11170359779E+02 0.91052704147E+01 0.91195439861E+01 0.91551821182E+01 0.92266031115E+01
 0.94089443524E+01 0.98091556404E+01 0.10549041230E+02 0.11849522939E+02 0.14083972092E+02
 0.17566212032E+02 0.22231942923E+02 0.31645073291E+02 0.52420678908E+02 0.84857106088E+02
 0.12172331230E+03 0.15121616156E+03 0.16250608752E+03 0.15121616156E+03 0.12172331230E+03
 0.84857106088E+02 0.52420678908E+02 0.31645073291E+02 0.22231942923E+02 0.17566212032E+02
 0.14083972092E+02 0.11849522939E+02 0.10549041230E+02 0.98091556404E+01 0.94089443524E+01
 0.92266031115E+01 0.91551821182E+01 0.91195439861E+01 0.78670536816E+01 0.79424748864E+01
 0.81192818576E+01 0.83529814083E+01 0.87299774832E+01 0.94089443524E+01 0.10551546452E+02
 0.12458597539E+02 0.15637391265E+02 0.20358977590E+02 0.28993473557E+02 0.52420678908E+02
 0.97586801143E+02 0.16106117469E+03 0.22896649447E+03 0.28156885973E+03 0.30142748171E+03
 0.28156885973E+03 0.22896649447E+03 0.16106117469E+03 0.97586801143E+02 0.52420678908E+02
 0.28993473557E+02 0.20358977590E+02 0.15637391265E+02 0.12458597539E+02 0.10551546452E+02
 0.94089443524E+01 0.87299774832E+01 0.83529814083E+01 0.81192818576E+01 0.79424748864E+01
 0.72851609396E+01 0.73959627769E+01 0.76332794649E+01 0.79052574960E+01 0.83529814083E+01
 0.92266031115E+01 0.10728252632E+02 0.13215711818E+02 0.17285132672E+02 0.23520913393E+02
 0.41025054718E+02 0.84857106088E+02 0.16106117469E+03 0.26195033971E+03 0.36647930099E+03
 0.44617052544E+03 0.47606200364E+03 0.44617052544E+03 0.36647930099E+03 0.26195033971E+03
 0.16106117469E+03 0.84857106088E+02 0.41025054718E+02 0.23520913393E+02 0.17285132672E+02
 0.13215711818E+02 0.10728252632E+02 0.92266031115E+01 0.83529814083E+01 0.79052574960E+01
 0.76332794649E+01 0.73959627769E+01 0.69299343770E+01 0.70711466710E+01 0.73518541489E+01
 0.76332794649E+01 0.81192818576E+01 0.91551821182E+01 0.10971168839E+02 0.13953982182E+02
 0.18737940185E+02 0.27579727127E+02 0.56244238840E+02 0.12172331230E+03 0.22896649447E+03
 0.36647930099E+03 0.50671996410E+03 0.61290038803E+03 0.65263141853E+03 0.61290038803E+03
 0.50671996410E+03 0.36647930099E+03 0.22896649447E+03 0.12172331230E+03 0.56244238840E+02
 0.27579727127E+02 0.18737940185E+02 0.13953982182E+02 0.10971168839E+02 0.91551821182E+01
 0.81192818576E+01 0.76332794649E+01 0.73518541489E+01 0.70711466710E+01 0.65513039541E+01
 0.67274770868E+01 0.70711466710E+01 0.73959627769E+01 0.79424748864E+01 0.91195439861E+01
 0.11170359779E+02 0.14492901125E+02 0.19729826762E+02 0.31336092981E+02 0.69186425378E+02
 0.15121616156E+03 0.28156885973E+03 0.44617052544E+03 0.61290038803E+03 0.73883330932E+03
 0.78592760017E+03 0.73883330932E+03 0.61290038803E+03 0.44617052544E+03 0.28156885973E+03
 0.15121616156E+03 0.69186425378E+02 0.31336092981E+02 0.19729826762E+02 0.14492901125E+02
 0.11170359779E+02 0.91195439861E+01 0.79424748864E+01 0.73959627769E+01 0.70711466710E+01
 0.67274770868E+01 0.63576333874E+01 0.65513039541E+01 0.69299343770E+01 0.72851609396E+01
 0.78670536816E+01 0.91052704147E+01 0.11246153360E+02 0.14690532837E+02 0.20085493043E+02
 0.32883946246E+02 0.74277219178E+02 0.16250608752E+03 0.30142748171E+03 0.47606200364E+03
 0.65263141853E+03 0.78592760017E+03 0.83577272497E+03 0.78592760017E+03 0.65263141853E+03
 0.47606200364E+03 0.30142748171E+03 0.16250608752E+03 0.74277219178E+02 0.32883946246E+02
 0.20085493043E+02 0.14690532837E+02 0.11246153360E+02 0.91052704147E+01 0.78670536816E+01
 0.72851609396E+01 0.69299343770E+01 0.65513039541E+01 0.65513039541E+01 0.67274770868E+01
 0.70711466710E+01 0.73959627769E+01 0.79424748864E+01 0.91195439861E+01 0.11170359779E+02
 0.14492901125E+02 0.19729826762E+02 0.31336092981E+02 0.69186425378E+02 0.15121616156E+03
 0.28156885973E+03 0.44617052544E+03 0.61290038803E+03 0.73883330932E+03 0.78592760017E+03
 0.73883330932E+03 0.61290038803E+03 0.44617052544E+03 0.28156885973E+03 0.15121616156E+03
 0.69186425378E+02 0.31336092981E+02 0.19729826762E+02 0.14492901125E+02 0.11170359779E+02
 0.91195439861E+01 0.79424748864E+01 0.73959627769E+01 0.70711466710E+01 0.67274770868E+01
 0.69299343770E+01 0.70711466710E+01 0.73518541489E+01 0.76332794649E+01 0.81192818576E+01
 0.91551821182E+01 0.10971168839E+02 0.13953982182E+02 0.18737940185E+02 0.27579727127E+02
 0.56244238840E+02 0.12172331230E+03 0.22896649447E+03 0.36647930099E+03 0.50671996410E+03
 0.61290038803E+03 0.65263141853E+03 0.61290038803E+03 0.50671996410E+03 0.36647930099E+03
 0.22896649447E+03 0.12172331230E+03 0.56244238840E+02 0.27579727127E+02 0.18737940185E+02