   4   4   0   0
  0.1260789E+02  0.3694601E-09  0.3694601E-09  0.3694601E-09  0.5000000E-15
  1.000000000000000E-004
  CAR 
 unknown system                          
     28.31261260     -4.06435848  301      6.75206908      1.00000000
     -4.064  0.0000E+00  0.0000E+00
     -3.956  0.0000E+00  0.0000E+00
     -3.849  0.0000E+00  0.0000E+00
     -3.741 -0.1873E-31 -0.2021E-32
     -3.633 -0.1110E-27 -0.1198E-28
     -3.525 -0.3658E-24 -0.3949E-25
     -3.417 -0.6696E-21 -0.7230E-22
     -3.309 -0.6803E-18 -0.7349E-19
     -3.201 -0.3719E-15 -0.4021E-16
     -3.093 -0.1150E-12 -0.1246E-13
     -2.985 -0.1964E-10 -0.2132E-11
     -2.877 -0.1843E-08 -0.2010E-09
     -2.769 -0.9468E-07 -0.1042E-07
     -2.661 -0.2653E-05 -0.2968E-06
     -2.553 -0.4042E-04 -0.4659E-05
     -2.446 -0.3340E-03 -0.4071E-04
     -2.338 -0.1476E-02 -0.2000E-03
     -2.230 -0.3001E-02 -0.5238E-03
     -2.122  0.1963E-02 -0.3120E-03
     -2.014  0.3070E-01  0.3001E-02
     -1.906  0.9523E-01  0.1328E-01
     -1.798  0.1683E+00  0.3144E-01
     -1.690  0.1896E+00  0.5191E-01
     -1.582  0.1573E+00  0.6889E-01
     -1.474  0.1792E+00  0.8823E-01
     -1.366  0.3224E+00  0.1230E+00
     -1.258  0.4368E+00  0.1702E+00
     -1.150  0.3434E+00  0.2072E+00
     -1.043  0.1689E+00  0.2254E+00
     -0.935  0.1942E+00  0.2464E+00
     -0.827  0.3985E+00  0.2894E+00
     -0.719  0.5380E+00  0.3475E+00
     -0.611  0.5298E+00  0.4047E+00
     -0.503  0.4265E+00  0.4507E+00
     -0.395  0.3329E+00  0.4866E+00
     -0.287  0.4493E+00  0.5351E+00
     -0.179  0.6641E+00  0.6068E+00
     -0.071  0.5528E+00  0.6664E+00
      0.037  0.2676E+00  0.6953E+00
      0.145  0.3673E+00  0.7349E+00
      0.253  0.7202E+00  0.8127E+00
      0.360  0.8251E+00  0.9017E+00
      0.468  0.6940E+00  0.9766E+00
      0.576  0.7058E+00  0.1053E+01
      0.684  0.8912E+00  0.1149E+01
      0.792  0.7721E+00  0.1232E+01
      0.900  0.3896E+00  0.1274E+01
      1.008  0.3562E+00  0.1313E+01
      1.116  0.8281E+00  0.1402E+01
      1.224  0.1325E+01  0.1545E+01
      1.332  0.1321E+01  0.1688E+01
      1.440  0.1099E+01  0.1806E+01
      1.548  0.1044E+01  0.1919E+01
      1.656  0.9892E+00  0.2026E+01
      1.763  0.1020E+01  0.2136E+01
      1.871  0.1540E+01  0.2302E+01
      1.979  0.2319E+01  0.2552E+01
      2.087  0.2645E+01  0.2838E+01
      2.195  0.2764E+01  0.3136E+01
      2.303  0.3497E+01  0.3514E+01
      2.411  0.4592E+01  0.4009E+01
      2.519  0.5354E+01  0.4587E+01
      2.627  0.5484E+01  0.5179E+01
      2.735  0.5934E+01  0.5819E+01
      2.843  0.7668E+01  0.6647E+01
      2.951  0.9360E+01  0.7657E+01
      3.059  0.9977E+01  0.8734E+01
      3.166  0.9748E+01  0.9786E+01
      3.274  0.9254E+01  0.1078E+02
      3.382  0.9140E+01  0.1177E+02
      3.490  0.9567E+01  0.1280E+02
      3.598  0.1097E+02  0.1399E+02
      3.706  0.1301E+02  0.1539E+02
      3.814  0.1422E+02  0.1693E+02
      3.922  0.1560E+02  0.1861E+02
      4.030  0.1814E+02  0.2057E+02
      4.138  0.1888E+02  0.2261E+02
      4.246  0.1610E+02  0.2434E+02
      4.354  0.1266E+02  0.2571E+02
      4.462  0.1217E+02  0.2702E+02
      4.570  0.1430E+02  0.2857E+02
      4.677  0.1588E+02  0.3028E+02
      4.785  0.1542E+02  0.3194E+02
      4.893  0.1440E+02  0.3350E+02
      5.001  0.1522E+02  0.3514E+02
      5.109  0.1850E+02  0.3714E+02
      5.217  0.2068E+02  0.3937E+02
      5.325  0.1647E+02  0.4115E+02
      5.433  0.8329E+01  0.4205E+02
      5.541  0.2660E+01  0.4233E+02
      5.649  0.6790E+00  0.4241E+02
      5.757  0.7658E+00  0.4249E+02
      5.865  0.1661E+01  0.4267E+02
      5.973  0.2052E+01  0.4289E+02
      6.080  0.1514E+01  0.4305E+02
      6.188  0.7734E+00  0.4314E+02
      6.296  0.7466E+00  0.4322E+02
      6.404  0.1775E+01  0.4341E+02
      6.512  0.2404E+01  0.4367E+02
      6.620  0.1747E+01  0.4386E+02
      6.728  0.1112E+01  0.4398E+02
      6.836  0.9177E+00  0.4408E+02
      6.944  0.7867E+00  0.4416E+02
      7.052  0.7481E+00  0.4424E+02
      7.160  0.8034E+00  0.4433E+02
      7.268  0.1144E+01  0.4445E+02
      7.376  0.1504E+01  0.4461E+02
      7.483  0.1613E+01  0.4479E+02
      7.591  0.1786E+01  0.4498E+02
      7.699  0.1606E+01  0.4515E+02
      7.807  0.9895E+00  0.4526E+02
      7.915  0.6093E+00  0.4533E+02
      8.023  0.6822E+00  0.4540E+02
      8.131  0.8636E+00  0.4549E+02
      8.239  0.6518E+00  0.4556E+02
      8.347  0.5482E+00  0.4562E+02
      8.455  0.1185E+01  0.4575E+02
      8.563  0.1741E+01  0.4594E+02
      8.671  0.1502E+01  0.4610E+02
      8.779  0.1062E+01  0.4622E+02
      8.886  0.9756E+00  0.4632E+02
      8.994  0.1132E+01  0.4644E+02
      9.102  0.1262E+01  0.4658E+02
      9.210  0.9556E+00  0.4668E+02
      9.318  0.4029E+00  0.4673E+02
      9.426  0.2339E+00  0.4675E+02
      9.534  0.3850E+00  0.4679E+02
      9.642  0.5828E+00  0.4686E+02
      9.750  0.9386E+00  0.4696E+02
      9.858  0.1142E+01  0.4708E+02
      9.966  0.8156E+00  0.4717E+02
     10.074  0.7408E+00  0.4725E+02
     10.182  0.1123E+01  0.4737E+02
     10.289  0.1075E+01  0.4748E+02
     10.397  0.7551E+00  0.4757E+02
     10.505  0.7834E+00  0.4765E+02
     10.613  0.9260E+00  0.4775E+02
     10.721  0.1076E+01  0.4787E+02
     10.829  0.1456E+01  0.4802E+02
     10.937  0.1576E+01  0.4819E+02
     11.045  0.1268E+01  0.4833E+02
     11.153  0.1102E+01  0.4845E+02
     11.261  0.9073E+00  0.4855E+02
     11.369  0.6614E+00  0.4862E+02
     11.477  0.1045E+01  0.4873E+02
     11.585  0.1700E+01  0.4892E+02
     11.692  0.1670E+01  0.4910E+02
     11.800  0.1171E+01  0.4922E+02
     11.908  0.6997E+00  0.4930E+02
     12.016  0.4333E+00  0.4934E+02
     12.124  0.7686E+00  0.4943E+02
     12.232  0.1765E+01  0.4962E+02
     12.340  0.2134E+01  0.4985E+02
     12.448  0.1294E+01  0.4999E+02
     12.556  0.7100E+00  0.5006E+02
     12.664  0.9286E+00  0.5016E+02
     12.772  0.1037E+01  0.5028E+02
     12.880  0.7207E+00  0.5035E+02
     12.988  0.5452E+00  0.5041E+02
     13.095  0.5665E+00  0.5047E+02
     13.203  0.5017E+00  0.5053E+02
     13.311  0.6058E+00  0.5059E+02
     13.419  0.1095E+01  0.5071E+02
     13.527  0.1667E+01  0.5089E+02
     13.635  0.1972E+01  0.5110E+02
     13.743  0.1862E+01  0.5131E+02
     13.851  0.1386E+01  0.5146E+02
     13.959  0.1120E+01  0.5158E+02
     14.067  0.1321E+01  0.5172E+02
     14.175  0.1336E+01  0.5186E+02
     14.283  0.9460E+00  0.5196E+02
     14.391  0.7564E+00  0.5205E+02
     14.498  0.8888E+00  0.5214E+02
     14.606  0.1031E+01  0.5225E+02
     14.714  0.1184E+01  0.5238E+02
     14.822  0.1385E+01  0.5253E+02
     14.930  0.1670E+01  0.5271E+02
     15.038  0.1886E+01  0.5291E+02
     15.146  0.1856E+01  0.5312E+02
     15.254  0.1846E+01  0.5331E+02
     15.362  0.1899E+01  0.5352E+02
     15.470  0.1736E+01  0.5371E+02
     15.578  0.1455E+01  0.5386E+02
     15.686  0.1476E+01  0.5402E+02
     15.794  0.1881E+01  0.5423E+02
     15.901  0.1874E+01  0.5443E+02
     16.009  0.1101E+01  0.5455E+02
     16.117  0.6561E+00  0.5462E+02
     16.225  0.9928E+00  0.5472E+02
     16.333  0.1310E+01  0.5487E+02
     16.441  0.1446E+01  0.5502E+02
     16.549  0.1619E+01  0.5520E+02
     16.657  0.1525E+01  0.5536E+02
     16.765  0.1084E+01  0.5548E+02
     16.873  0.8812E+00  0.5557E+02
     16.981  0.1209E+01  0.5570E+02
     17.089  0.1952E+01  0.5591E+02
     17.197  0.2520E+01  0.5619E+02
     17.304  0.1999E+01  0.5640E+02
     17.412  0.1291E+01  0.5654E+02
     17.520  0.1934E+01  0.5675E+02
     17.628  0.2624E+01  0.5703E+02
     17.736  0.1851E+01  0.5723E+02
     17.844  0.7740E+00  0.5732E+02
     17.952  0.5437E+00  0.5738E+02
     18.060  0.8633E+00  0.5747E+02
     18.168  0.1189E+01  0.5760E+02
     18.276  0.1633E+01  0.5777E+02
     18.384  0.2128E+01  0.5800E+02
     18.492  0.1942E+01  0.5821E+02
     18.600  0.1264E+01  0.5835E+02
     18.707  0.1129E+01  0.5847E+02
     18.815  0.1456E+01  0.5863E+02
     18.923  0.1220E+01  0.5876E+02
     19.031  0.6109E+00  0.5883E+02
     19.139  0.5242E+00  0.5888E+02
     19.247  0.8074E+00  0.5897E+02
     19.355  0.8128E+00  0.5906E+02
     19.463  0.5760E+00  0.5912E+02
     19.571  0.3781E+00  0.5916E+02
     19.679  0.2379E+00  0.5919E+02
     19.787  0.3223E+00  0.5922E+02
     19.895  0.5125E+00  0.5928E+02
     20.003  0.3710E+00  0.5932E+02
     20.110  0.7785E-01  0.5932E+02
     20.218 -0.2654E-01  0.5932E+02
     20.326 -0.1944E-01  0.5932E+02
     20.434 -0.1837E-01  0.5932E+02
     20.542 -0.1597E-02  0.5932E+02
     20.650  0.1171E+00  0.5933E+02
     20.758  0.3466E+00  0.5937E+02
     20.866  0.5719E+00  0.5943E+02
     20.974  0.5616E+00  0.5949E+02
     21.082  0.2556E+00  0.5952E+02
     21.190  0.5750E-01  0.5952E+02
     21.298  0.1624E+00  0.5954E+02
     21.406  0.2515E+00  0.5957E+02
     21.513  0.1254E+00  0.5958E+02
     21.621  0.8463E-02  0.5958E+02
     21.729  0.1092E+00  0.5959E+02
     21.837  0.3337E+00  0.5963E+02
     21.945  0.3826E+00  0.5967E+02
     22.053  0.1958E+00  0.5969E+02
     22.161  0.2511E-01  0.5970E+02
     22.269 -0.2043E-01  0.5969E+02
     22.377 -0.2711E-01  0.5969E+02
     22.485 -0.1780E-01  0.5969E+02
     22.593  0.1469E+00  0.5970E+02
     22.701  0.4573E+00  0.5975E+02
     22.809  0.4946E+00  0.5981E+02
     22.916  0.1969E+00  0.5983E+02
     23.024 -0.5284E-02  0.5983E+02
     23.132 -0.2654E-01  0.5982E+02
     23.240 -0.1827E-01  0.5982E+02
     23.348  0.1567E-02  0.5982E+02
     23.456  0.1139E+00  0.5984E+02
     23.564  0.2555E+00  0.5986E+02
     23.672  0.2158E+00  0.5989E+02
     23.780  0.6034E-01  0.5989E+02
     23.888 -0.1054E-01  0.5989E+02
     23.996 -0.9094E-02  0.5989E+02
     24.104 -0.3692E-02  0.5989E+02
     24.212 -0.9407E-02  0.5989E+02
     24.319 -0.9866E-02  0.5989E+02
     24.427  0.6466E-01  0.5989E+02
     24.535  0.2203E+00  0.5992E+02
     24.643  0.2530E+00  0.5995E+02
     24.751  0.1086E+00  0.5996E+02
     24.859  0.5433E-03  0.5996E+02
     24.967 -0.1205E-01  0.5996E+02
     25.075 -0.3348E-02  0.5996E+02
     25.183 -0.3878E-03  0.5996E+02
     25.291 -0.2232E-04  0.5996E+02
     25.399 -0.6747E-06  0.5996E+02
     25.507 -0.4897E-07  0.5996E+02
     25.615 -0.1849E-05  0.5996E+02
     25.722 -0.4800E-04  0.5996E+02
     25.830 -0.6441E-03  0.5996E+02
     25.938 -0.4120E-02  0.5996E+02
     26.046 -0.8988E-02  0.5995E+02
     26.154  0.1866E-01  0.5996E+02
     26.262  0.1145E+00  0.5997E+02
     26.370  0.1784E+00  0.5999E+02
     26.478  0.1076E+00  0.6000E+02
     26.586  0.1481E-01  0.6000E+02
     26.694 -0.9040E-02  0.6000E+02
     26.802 -0.3757E-02  0.6000E+02
     26.910 -0.5578E-03  0.6000E+02
     27.018 -0.3980E-04  0.6000E+02
     27.125 -0.1472E-05  0.6000E+02
     27.233 -0.2911E-07  0.6000E+02
     27.341 -0.3124E-09  0.6000E+02
     27.449 -0.1836E-11  0.6000E+02
     27.557 -0.5961E-14  0.6000E+02
     27.665  0.0000E+00  0.6000E+02
     27.773  0.0000E+00  0.6000E+02
     27.881  0.0000E+00  0.6000E+02
     27.989  0.0000E+00  0.6000E+02
     28.097  0.0000E+00  0.6000E+02
     28.205  0.0000E+00  0.6000E+02
     28.313  0.0000E+00  0.6000E+02
