    4    4    1    1
  0.1260789E+02  0.3694601E-09  0.3694601E-09  0.3694601E-09  0.5000000E-15
  1.000000000000000E-004
  CAR 
 unknown system                          
     44     35     30
 
  0.0000000E+00  0.0000000E+00  0.0000000E+00  0.1371742E-02
    1       -2.064358   1.000000
    2        2.296209   1.000000
    3        2.296209   1.000000
    4        2.296209   1.000000
    5        2.712257   1.000000
    6        2.712257   1.000000
    7        2.712257   1.000000
    8        3.970791   1.000000
    9        3.970791   1.000000
   10        3.970791   1.000000
   11        4.717374   1.000000
   12        4.717374   1.000000
   13        5.214391   1.000000
   14        5.214391   1.000000
   15        5.214391   1.000000
   16        5.355765   1.000000
   17        5.355765   1.000000
   18        5.355765   1.000000
   19        5.355765   1.000000
   20        5.355765   1.000000
   21        5.355765   1.000000
   22        8.347784  -0.000000
   23        8.347784  -0.000000
   24        8.347784  -0.000000
   25       13.470923   0.000000
   26       13.470923   0.000000
   27       13.470923   0.000000
   28       19.383768   0.000000
   29       19.383768   0.000000
   30       19.383768   0.000000
 
  0.1111111E+00  0.0000000E+00  0.0000000E+00  0.8230453E-02
    1       -1.921234   1.000000
    2        2.290459   1.000000
    3        2.360487   1.000000
    4        2.360487   1.000000
    5        2.748533   1.000000
    6        2.750690   1.000000
    7        2.750690   1.000000
    8        3.930943   1.000000
    9        4.002977   1.000000
   10        4.002977   1.000000
   11        4.681343   1.000000
   12        4.732036   1.000000
   13        5.135298   1.000000
   14        5.135298   1.000000
   15        5.167809   1.000000
   16        5.167809   1.000000
   17        5.199135   1.000000
   18        5.300812   1.000000
   19        5.300812   1.000000
   20        5.355894   1.000000
   21        5.355894   1.000000
   22        7.497191  -0.000001
   23        8.698245  -0.000000
   24        8.698245  -0.000000
   25       13.527559   0.000000
   26       13.527559   0.000000
   27       14.612009   0.000000
   28       18.494803   0.000000
   29       18.494803   0.000000
   30       18.774279   0.000000
 
  0.2222222E+00  0.0000000E+00  0.0000000E+00  0.8230453E-02
    1       -1.497069   1.000000
    2        2.217732   1.000000
    3        2.536825   1.000000
    4        2.536825   1.000000
    5        2.853063   1.000000
    6        2.866737   1.000000
    7        2.866737   1.000000
    8        3.816870   1.000000
    9        4.098184   1.000000
   10        4.098184   1.000000
   11        4.581046   1.000000
   12        4.664278   1.000000
   13        4.664278   1.000000
   14        4.774374   1.000000
   15        5.036342   1.000000
   16        5.036342   1.000000
   17        5.148781   1.000000
   18        5.148781   1.000000
   19        5.155310   1.000000
   20        5.356128   1.000000
   21        5.356128   1.000000
   22        6.013433   1.000001
   23        9.557630  -0.000000
   24        9.557630  -0.000000
   25       13.706699   0.000000
   26       13.706699   0.000000
   27       16.851731   0.000000
   28       16.851731   0.000000
   29       17.011921   0.000000
   30       17.547312   0.000000
 
  0.3333333E+00  0.0000000E+00  0.0000000E+00  0.8230453E-02
    1       -0.810678   1.000000
    2        1.877402   1.000000
    3        2.769428   1.000000
    4        2.769428   1.000000
    5        3.014984   1.000000
    6        3.063930   1.000000
    7        3.063930   1.000000
    8        3.644196   1.000000
    9        4.161999   1.000000
   10        4.161999   1.000000
   11        4.251893   1.000000
   12        4.251893   1.000000
   13        4.441834   1.000000
   14        4.839582   1.000000
   15        4.849915   1.000000
   16        4.854154   1.000000
   17        4.854154   1.000000
   18        4.932071   1.000000
   19        4.932071   1.000000
   20        5.087965   1.000000
   21        5.356324   1.000000
   22        5.356324   1.000000
   23       10.702137  -0.000000
   24       10.702137  -0.000000
   25       14.034724   0.000000
   26       14.034724   0.000000
   27       15.147610   0.000000
   28       15.147610   0.000000
   29       16.326965   0.000000
   30       16.326965   0.000000
 
  0.4444444E+00  0.0000000E+00  0.0000000E+00  0.8230453E-02
    1        0.091250   1.000000
    2        1.085669   1.000000
    3        2.951111   1.000000
    4        2.951111   1.000000
    5        3.216785   1.000000
    6        3.345909   1.000000
    7        3.345909   1.000000
    8        3.435256   1.000000
    9        3.713682   1.000000
   10        3.713682   1.000000
   11        4.322617   1.000000
   12        4.359051   1.000000
   13        4.454104   1.000000
   14        4.454104   1.000000
   15        4.689249   1.000000
   16        4.689249   1.000000
   17        4.705076   1.000000
   18        4.705076   1.000000
   19        4.920029   1.000000
   20        5.006300   1.000000
   21        5.356456   1.000000
   22        5.356456   1.000000
   23       12.038645  -0.000000
   24       12.038645  -0.000000
   25       13.529123   0.000000
   26       13.529123   0.000000
   27       14.545535   0.000000
   28       14.545535   0.000000
   29       15.328335   0.000000
   30       15.328335   0.000000
 
  0.1111111E+00  0.1111111E+00  0.0000000E+00  0.1646091E-01
    1       -1.779124   1.000000
    2        2.357546   1.000000
    3        2.357546   1.000000
    4        2.421958   1.000000
    5        2.785570   1.000000
    6        2.785570   1.000000
    7        2.786709   1.000000
    8        3.909667   1.000000
    9        4.018046   1.000000
   10        4.029290   1.000000
   11        4.672191   1.000000
   12        4.725738   1.000000
   13        4.986220   1.000000
   14        5.032919   1.000000
   15        5.032919   1.000000
   16        5.124785   1.000000
   17        5.181908   1.000000
   18        5.181908   1.000000
   19        5.300656   1.000000
   20        5.300656   1.000000
   21        5.320354   1.000000
   22        7.838062  -0.000000
   23        7.838062  -0.000000
   24        9.013341  -0.000000
   25       13.585671   0.000000
   26       14.696316   0.000000
   27       14.696316   0.000000
   28       16.848906   0.000000
   29       18.683040   0.000000
   30       18.683040   0.000000
 
  0.2222222E+00  0.1111111E+00  0.0000000E+00  0.3292181E-01
    1       -1.358160   1.000000
    2        2.294150   1.000000
    3        2.542280   1.000000
    4        2.590151   1.000000
    5        2.886385   1.000000
    6        2.895167   1.000000
    7        2.897727   1.000000
    8        3.809509   1.000000
    9        4.103687   1.000000
   10        4.104467   1.000000
   11        4.559920   1.000000
   12        4.589191   1.000000
   13        4.590355   1.000000
   14        4.769888   1.000000
   15        4.798782   1.000000
   16        5.002384   1.000000
   17        5.046227   1.000000
   18        5.141338   1.000000
   19        5.148088   1.000000
   20        5.300128   1.000000
   21        5.301578   1.000000
   22        6.411644   1.018455
   23        8.619632  -0.000000
   24        9.818746  -0.000000
   25       13.764374   0.000000
   26       14.959359   0.000000
   27       15.082607   0.000000
   28       17.027947   0.000000
   29       17.116043   0.000000
   30       17.710542   0.000000
 
  0.3333333E+00  0.1111111E+00  0.0000000E+00  0.3292181E-01
    1       -0.677701   1.000000
    2        1.969308   1.000000
    3        2.789522   1.000000
    4        2.817257   1.000000
    5        3.042473   1.000000
    6        3.072025   1.000000
    7        3.087864   1.000000
    8        3.645969   1.000000
    9        4.070602   1.000000
   10        4.130880   1.000000
   11        4.198231   1.000000
   12        4.253991   1.000000
   13        4.432910   1.000000
   14        4.494943   1.000000
   15        4.832229   1.000000
   16        4.851174   1.000000
   17        4.864964   1.000000
   18        4.931213   1.000000
   19        5.027568   1.000000
   20        5.297514   1.000000
   21        5.299230   1.000000
   22        5.433498   1.000000
   23        9.609423  -0.000000
   24       10.925037  -0.000000
   25       13.420726   0.000000
   26       14.150465   0.000000
   27       15.323879   0.000000
   28       15.426976   0.000000
   29       16.467127   0.000000
   30       18.235153   0.000000
 
  0.4444444E+00  0.1111111E+00  0.0000000E+00  0.3292181E-01
    1        0.214585   1.000000
    2        1.194700   1.000000
    3        2.990893   1.000000
    4        3.002812   1.000000
    5        3.236648   1.000000
    6        3.312165   1.000000
    7        3.358717   1.000000
    8        3.446320   1.000000
    9        3.645112   1.000000
   10        3.709559   1.000000
   11        4.191723   1.000000
   12        4.194801   1.000000
   13        4.454675   1.000000
   14        4.558209   1.000000
   15        4.688792   1.000000
   16        4.696992   1.000000
   17        4.710529   1.000000
   18        4.785708   1.000000
   19        4.956665   1.000000
   20        5.094217   1.000000
   21        5.297319   1.000000
   22        5.298192   1.000000
   23       10.739253  -0.000000
   24       12.006635  -0.000000
   25       12.237368   0.000000
   26       13.713011   0.000000
   27       14.666265   0.000000
   28       15.433610   0.000000
   29       16.136884   0.000000
   30       17.084914   0.000000
 
  0.2222222E+00  0.2222222E+00  0.0000000E+00  0.1646091E-01
    1       -0.947423   1.000000
    2        2.506664   1.000000
    3        2.506664   1.000000
    4        2.735622   1.000000
    5        2.980882   1.000000
    6        2.987093   1.000000
    7        2.987093   1.000000
    8        3.757682   1.000000
    9        4.123667   1.000000
   10        4.152473   1.000000
   11        4.306908   1.000000
   12        4.306908   1.000000
   13        4.360169   1.000000
   14        4.562679   1.000000
   15        4.815609   1.000000
   16        4.903823   1.000000
   17        5.023940   1.000000
   18        5.023940   1.000000
   19        5.146394   1.000000
   20        5.146394   1.000000
   21        5.215533   1.000000
   22        7.135137  -0.010408
   23        7.135137  -0.010408
   24       10.526177  -0.000000
   25       13.147910   0.000000
   26       14.025710   0.000000
   27       17.431837   0.000000
   28       17.431837   0.000000
   29       17.540514   0.000000
   30       17.540514   0.000000
 
  0.3333333E+00  0.2222222E+00  0.0000000E+00  0.3292181E-01
    1       -0.286247   1.000000
    2        2.226121   1.000000
    3        2.799536   1.000000
    4        2.937183   1.000000
    5        3.108669   1.000000
    6        3.124684   1.000000
    7        3.156515   1.000000
    8        3.638228   1.000000
    9        3.862406   1.000000
   10        4.031950   1.000000
   11        4.040285   1.000000
   12        4.130590   1.000000
   13        4.276560   1.000000
   14        4.508250   1.000000
   15        4.763922   1.000000
   16        4.853418   1.000000
   17        4.921245   1.000000
   18        4.929697   1.000000
   19        4.944889   1.000000
   20        5.144548   1.000000
   21        5.167847   1.000000
   22        6.018660   1.000001
   23        7.986285  -0.000000
   24       11.523719  -0.000000
   25       11.550955  -0.000000
   26       14.384024   0.000000
   27       15.836225   0.000000
   28       16.878277   0.000000
   29       17.983130   0.000000
   30       18.349348   0.000000
 
  0.4444444E+00  0.2222222E+00  0.0000000E+00  0.3292181E-01
    1        0.573742   1.000000
    2        1.505271   1.000000
    3        3.066702   1.000000
    4        3.147519   1.000000
    5        3.218669   1.000000
    6        3.294051   1.000000
    7        3.393840   1.000000
    8        3.473789   1.000000
    9        3.492312   1.000000
   10        3.692653   1.000000
   11        3.969257   1.000000
   12        4.056923   1.000000
   13        4.463323   1.000000
   14        4.565421   1.000000
   15        4.659109   1.000000
   16        4.690302   1.000000
   17        4.696112   1.000000
   18        4.739170   1.000000
   19        5.133403   1.000000
   20        5.144219   1.000000
   21        5.149403   1.000000
   22        5.426472   1.000000
   23        8.971140  -0.000000
   24       10.134704  -0.000000
   25       12.806323   0.000000
   26       14.244984   0.000000
   27       14.965383   0.000000
   28       15.791827   0.000000
   29       18.756094   0.000000
   30       19.407229   0.000000
 
  0.3333333E+00  0.3333333E+00  0.0000000E+00  0.1646091E-01
    1        0.337131   1.000000
    2        2.584640   1.000000
    3        2.584640   1.000000
    4        3.042623   1.000000
    5        3.214689   1.000000
    6        3.259676   1.000000
    7        3.259676   1.000000
    8        3.593062   1.000000
    9        3.724993   1.000000
   10        3.724993   1.000000
   11        3.863869   1.000000
   12        4.073922   1.000000
   13        4.353493   1.000000
   14        4.451869   1.000000
   15        4.656261   1.000000
   16        4.764410   1.000000
   17        4.764410   1.000000
   18        4.931012   1.000000
   19        4.931012   1.000000
   20        5.048429   1.000000
   21        5.147135   1.000000
   22        6.693513   0.736391
   23        6.693513   0.736391
   24        9.886359  -0.000000
   25       12.494952   0.000000
   26       14.819732   0.000000
   27       16.644864   0.000000
   28       16.644864   0.000000
   29       17.557586   0.000000
   30       17.557586   0.000000
 
  0.4444444E+00  0.3333333E+00  0.0000000E+00  0.3292181E-01
    1        1.130816   1.000000
    2        1.961131   1.000000
    3        2.919598   1.000000
    4        3.069520   1.000000
    5        3.349683   1.000000
    6        3.382076   1.000000
    7        3.441467   1.000000
    8        3.496580   1.000000
    9        3.501509   1.000000
   10        3.653227   1.000000
   11        3.802033   1.000000
   12        3.962250   1.000000
   13        4.469166   1.000000
   14        4.500674   1.000000
   15        4.572422   1.000000
   16        4.605361   1.000000
   17        4.615489   1.000000
   18        4.703348   1.000000
   19        4.942278   1.000000
   20        4.975755   1.000000
   21        5.436113   1.000000
   22        5.886825   1.000000
   23        7.512210  -0.000001
   24        8.554727  -0.000000
   25       13.686248   0.000000
   26       15.079481   0.000000
   27       15.477568   0.000000
   28       16.386480   0.000000
   29       17.706048   0.000000
   30       18.489566   0.000000
 
  0.4444444E+00  0.4444444E+00  0.0000000E+00  0.1646091E-01
    1        1.803085   1.000000
    2        2.449477   1.000000
    3        2.449477   1.000000
    4        2.832167   1.000000
    5        3.485332   1.000000
    6        3.485332   1.000000
    7        3.508567   1.000000
    8        3.547812   1.000000
    9        3.582467   1.000000
   10        3.684808   1.000000
   11        3.684808   1.000000
   12        3.860871   1.000000
   13        4.407872   1.000000
   14        4.475136   1.000000
   15        4.482459   1.000000
   16        4.482459   1.000000
   17        4.591193   1.000000
   18        4.744466   1.000000
   19        4.744466   1.000000
   20        4.832822   1.000000
   21        5.852911   1.000000
   22        6.489979   1.034453
   23        6.489979   1.034453
   24        7.344394  -0.000116
   25       14.820510   0.000000
   26       16.169167   0.000000
   27       16.169167   0.000000
   28       16.225155   0.000000
   29       17.227442   0.000000
   30       17.227442   0.000000
 
  0.1111111E+00  0.1111111E+00  0.1111111E+00  0.1097394E-01
    1       -1.638136   1.000000
    2        2.420944   1.000000
    3        2.420944   1.000000
    4        2.420944   1.000000
    5        2.820569   1.000000
    6        2.820569   1.000000
    7        2.820569   1.000000
    8        3.891343   1.000000
    9        4.040640   1.000000
   10        4.040640   1.000000
   11        4.694265   1.000000
   12        4.694265   1.000000
   13        4.901712   1.000000
   14        4.901712   1.000000
   15        4.901712   1.000000
   16        5.073679   1.000000
   17        5.073679   1.000000
   18        5.073679   1.000000
   19        5.307502   1.000000
   20        5.307502   1.000000
   21        5.307502   1.000000
   22        8.129677  -0.000000
   23        8.129677  -0.000000
   24        8.129677  -0.000000
   25       14.782582   0.000000
   26       14.782582   0.000000
   27       14.782582   0.000000
   28       17.024646   0.000000
   29       17.024646   0.000000
   30       17.024646   0.000000
 
  0.2222222E+00  0.1111111E+00  0.1111111E+00  0.3292181E-01
    1       -1.220828   1.000000
    2        2.364331   1.000000
    3        2.595119   1.000000
    4        2.595119   1.000000
    5        2.919050   1.000000
    6        2.925829   1.000000
    7        2.925829   1.000000
    8        3.803764   1.000000
    9        4.104499   1.000000
   10        4.108769   1.000000
   11        4.496688   1.000000
   12        4.496688   1.000000
   13        4.614177   1.000000
   14        4.649618   1.000000
   15        4.757039   1.000000
   16        4.940133   1.000000
   17        4.966753   1.000000
   18        4.966753   1.000000
   19        5.262205   1.000000
   20        5.286823   1.000000
   21        5.286823   1.000000
   22        6.687117   0.759425
   23        8.843940  -0.000000
   24        8.843940  -0.000000
   25       15.035335   0.000000
   26       15.035335   0.000000
   27       15.263605   0.000000
   28       15.263605   0.000000
   29       17.217482   0.000000
   30       17.540777   0.000000
 
  0.3333333E+00  0.1111111E+00  0.1111111E+00  0.3292181E-01
    1       -0.547209   1.000000
    2        2.052238   1.000000
    3        2.832226   1.000000
    4        2.832226   1.000000
    5        3.071388   1.000000
    6        3.094433   1.000000
    7        3.094433   1.000000
    8        3.651405   1.000000
    9        4.054745   1.000000
   10        4.054745   1.000000
   11        4.178871   1.000000
   12        4.222117   1.000000
   13        4.297112   1.000000
   14        4.558768   1.000000
   15        4.758633   1.000000
   16        4.817054   1.000000
   17        4.817054   1.000000
   18        4.851160   1.000000
   19        5.182917   1.000000
   20        5.268362   1.000000
   21        5.268362   1.000000
   22        5.615497   1.000000
   23        9.785022  -0.000000
   24        9.785022  -0.000000
   25       13.630151   0.000000
   26       13.630151   0.000000
   27       15.536900   0.000000
   28       15.536900   0.000000
   29       18.340827   0.000000
   30       18.386084   0.000000
 
  0.4444444E+00  0.1111111E+00  0.1111111E+00  0.3292181E-01
    1        0.333642   1.000000
    2        1.296460   1.000000
    3        3.041657   1.000000
    4        3.041657   1.000000
    5        3.259834   1.000000
    6        3.288840   1.000000
    7        3.288840   1.000000
    8        3.461435   1.000000
    9        3.686207   1.000000
   10        3.686207   1.000000
   11        4.113877   1.000000
   12        4.144880   1.000000
   13        4.376518   1.000000
   14        4.561661   1.000000
   15        4.684089   1.000000
   16        4.684089   1.000000
   17        4.692236   1.000000
   18        4.963270   1.000000
   19        5.024811   1.000000
   20        5.078866   1.000000
   21        5.260329   1.000000
   22        5.260329   1.000000
   23       10.850395  -0.000000
   24       10.850395  -0.000000
   25       12.242145   0.000000
   26       12.242145   0.000000
   27       16.253278   0.000000
   28       16.253278   0.000000
   29       17.218855   0.000000
   30       17.218855   0.000000
 
  0.2222222E+00  0.2222222E+00  0.1111111E+00  0.3292181E-01
    1       -0.815234   1.000000
    2        2.555931   1.000000
    3        2.555931   1.000000
    4        2.735734   1.000000
    5        3.012253   1.000000
    6        3.017505   1.000000
    7        3.017505   1.000000
    8        3.761337   1.000000
    9        4.121131   1.000000
   10        4.136754   1.000000
   11        4.261237   1.000000
   12        4.261237   1.000000
   13        4.290256   1.000000
   14        4.616707   1.000000
   15        4.792441   1.000000
   16        4.827022   1.000000
   17        4.848384   1.000000
   18        4.848384   1.000000
   19        5.244212   1.000000
   20        5.244212   1.000000
   21        5.245032   1.000000
   22        7.313495  -0.000264
   23        7.313495  -0.000264
   24        9.434838  -0.000000
   25       13.372261   0.000000
   26       15.349499   0.000000
   27       15.737348   0.000000
   28       15.737348   0.000000
   29       17.545258   0.000000
   30       17.545258   0.000000
 
  0.3333333E+00  0.2222222E+00  0.1111111E+00  0.6584362E-01
    1       -0.164077   1.000000
    2        2.277683   1.000000
    3        2.812750   1.000000
    4        2.921955   1.000000
    5        3.139851   1.000000
    6        3.160807   1.000000
    7        3.173693   1.000000
    8        3.656034   1.000000
    9        3.883101   1.000000
   10        3.998285   1.000000
   11        4.016179   1.000000
   12        4.124917   1.000000
   13        4.212226   1.000000
   14        4.607027   1.000000
   15        4.671072   1.000000
   16        4.698343   1.000000
   17        4.740822   1.000000
   18        4.923250   1.000000
   19        5.156879   1.000000
   20        5.195392   1.000000
   21        5.195781   1.000000
   22        6.112857   1.000030
   23        8.114500  -0.000000
   24       10.214631  -0.000000
   25       11.813872  -0.000000
   26       14.118126   0.000000
   27       15.859339   0.000000
   28       16.516497   0.000000
   29       18.092521   0.000000
   30       18.835751   0.000000
 
  0.4444444E+00  0.2222222E+00  0.1111111E+00  0.6584362E-01
    1        0.678352   1.000000
    2        1.582260   1.000000
    3        3.055720   1.000000
    4        3.116761   1.000000
    5        3.209090   1.000000
    6        3.282901   1.000000
    7        3.331595   1.000000
    8        3.504328   1.000000
    9        3.655360   1.000000
   10        3.745760   1.000000
   11        3.957855   1.000000
   12        4.047892   1.000000
   13        4.327131   1.000000
   14        4.485090   1.000000
   15        4.602987   1.000000
   16        4.624795   1.000000
   17        4.748075   1.000000
   18        4.988873   1.000000
   19        5.105319   1.000000
   20        5.166035   1.000000
   21        5.166246   1.000000
   22        5.418263   1.000000
   23        9.059775  -0.000000
   24       10.117257  -0.000000
   25       11.577750  -0.000000
   26       12.712807   0.000000
   27       16.613727   0.000000
   28       17.545695   0.000000
   29       17.617528   0.000000
   30       18.799016   0.000000
 
  0.3333333E+00  0.3333333E+00  0.1111111E+00  0.3292181E-01
    1        0.442437   1.000000
    2        2.571136   1.000000
    3        2.571136   1.000000
    4        2.967571   1.000000
    5        3.266474   1.000000
    6        3.312345   1.000000
    7        3.312345   1.000000
    8        3.632655   1.000000
    9        3.766522   1.000000
   10        3.766522   1.000000
   11        3.896348   1.000000
   12        4.074520   1.000000
   13        4.228645   1.000000
   14        4.567719   1.000000
   15        4.592101   1.000000
   16        4.592101   1.000000
   17        4.604041   1.000000
   18        5.081523   1.000000
   19        5.081523   1.000000
   20        5.110499   1.000000
   21        5.118216   1.000000
   22        6.755783   0.484288
   23        6.755783   0.484288
   24        9.815375  -0.000000
   25       11.362288  -0.000000
   26       14.879852   0.000000
   27       14.879852   0.000000
   28       16.415711   0.000000
   29       18.586607   0.000000
   30       19.550001   0.000000
 
  0.4444444E+00  0.3333333E+00  0.1111111E+00  0.6584362E-01
    1        1.205236   1.000000
    2        1.986688   1.000000
    3        2.819382   1.000000
    4        2.945851   1.000000
    5        3.396120   1.000000
    6        3.450830   1.000000
    7        3.455600   1.000000
    8        3.564533   1.000000
    9        3.657702   1.000000
   10        3.772567   1.000000
   11        3.822423   1.000000
   12        3.969034   1.000000
   13        4.290251   1.000000
   14        4.422039   1.000000
   15        4.482110   1.000000
   16        4.503495   1.000000
   17        4.705780   1.000000
   18        4.904480   1.000000
   19        5.033917   1.000000
   20        5.045653   1.000000
   21        5.403939   1.000000
   22        5.878929   1.000000
   23        7.557833  -0.000000
   24        8.581515  -0.000000
   25       12.268286   0.000000
   26       13.461920   0.000000
   27       15.889424   0.000000
   28       17.127714   0.000000
   29       17.222478   0.000000
   30       18.280146   0.000000
 
  0.4444444E+00  0.4444444E+00  0.1111111E+00  0.3292181E-01
    1        1.823336   1.000000
    2        2.396521   1.000000
    3        2.396521   1.000000
    4        2.715968   1.000000
    5        3.585517   1.000000
    6        3.613204   1.000000
    7        3.613204   1.000000
    8        3.615833   1.000000
    9        3.723463   1.000000
   10        3.723463   1.000000
   11        3.742731   1.000000
   12        3.878780   1.000000
   13        4.276947   1.000000
   14        4.360428   1.000000
   15        4.360428   1.000000
   16        4.374253   1.000000
   17        4.734777   1.000000
   18        4.870672   1.000000
   19        4.870672   1.000000
   20        4.928132   1.000000
   21        5.822370   1.000000
   22        6.485142   1.033863
   23        6.485142   1.033863
   24        7.355272  -0.000085
   25       13.247428   0.000000
   26       14.456025   0.000000
   27       14.456025   0.000000
   28       15.679200   0.000000
   29       18.085620   0.000000
   30       19.198244   0.000000
 
  0.2222222E+00  0.2222222E+00  0.2222222E+00  0.1097394E-01
    1       -0.426421   1.000000
    2        2.677218   1.000000
    3        2.677218   1.000000
    4        2.677218   1.000000
    5        3.114794   1.000000
    6        3.114794   1.000000
    7        3.114794   1.000000
    8        3.754847   1.000000
    9        4.113433   1.000000
   10        4.113433   1.000000
   11        4.113433   1.000000
   12        4.120243   1.000000
   13        4.120243   1.000000
   14        4.665973   1.000000
   15        4.665973   1.000000
   16        4.665973   1.000000
   17        4.744221   1.000000
   18        4.744221   1.000000
   19        5.271914   1.000000
   20        5.271914   1.000000
   21        5.271914   1.000000
   22        7.788079  -0.000000
   23        7.788079  -0.000000
   24        7.788079  -0.000000
   25       13.868423   0.000000
   26       13.868423   0.000000
   27       13.868423   0.000000
   28       17.876732   0.000000
   29       17.876732   0.000000
   30       17.876732   0.000000
 
  0.3333333E+00  0.2222222E+00  0.2222222E+00  0.3292181E-01
    1        0.191391   1.000000
    2        2.400979   1.000000
    3        2.810901   1.000000
    4        2.810901   1.000000
    5        3.262586   1.000000
    6        3.262586   1.000000
    7        3.278516   1.000000
    8        3.705004   1.000000
    9        3.927735   1.000000
   10        3.927735   1.000000
   11        3.945865   1.000000
   12        4.104647   1.000000
   13        4.139999   1.000000
   14        4.488829   1.000000
   15        4.551581   1.000000
   16        4.551581   1.000000
   17        4.759982   1.000000
   18        4.898482   1.000000
   19        5.230160   1.000000
   20        5.230160   1.000000
   21        5.248941   1.000000
   22        6.427152   1.021933
   23        8.452106  -0.000000
   24        8.452106  -0.000000
   25       12.279812   0.000000
   26       12.279812   0.000000
   27       14.634804   0.000000
   28       18.353329   0.000000
   29       18.440840   0.000000
   30       18.440840   0.000000
 
  0.4444444E+00  0.2222222E+00  0.2222222E+00  0.3292181E-01
    1        0.974393   1.000000
    2        1.786258   1.000000
    3        2.905832   1.000000
    4        2.905832   1.000000
    5        3.353925   1.000000
    6        3.353925   1.000000
    7        3.456162   1.000000
    8        3.602954   1.000000
    9        3.842758   1.000000
   10        3.842758   1.000000
   11        3.924272   1.000000
   12        4.019585   1.000000
   13        4.209980   1.000000
   14        4.329870   1.000000
   15        4.471289   1.000000
   16        4.471289   1.000000
   17        4.985018   1.000000
   18        5.048363   1.000000
   19        5.171047   1.000000
   20        5.184187   1.000000
   21        5.184187   1.000000
   22        5.508861   1.000000
   23        9.148032  -0.000000
   24        9.148032  -0.000000
   25       11.118700  -0.000000
   26       11.118700  -0.000000
   27       15.648389   0.000000
   28       16.890367   0.000000
   29       19.239689   0.000000
   30       19.239689   0.000000
 
  0.3333333E+00  0.3333333E+00  0.2222222E+00  0.3292181E-01
    1        0.741508   1.000000
    2        2.529458   1.000000
    3        2.529458   1.000000
    4        2.766637   1.000000
    5        3.414077   1.000000
    6        3.461102   1.000000
    7        3.461102   1.000000