 vasp.6.2.0 18Jan21 (build Mar 17 2021 09:06:54) complex                        
  
 executed on             LinuxIFC date 2021.08.03  10:15:28
 serial version


--------------------------------------------------------------------------------------------------------


 INCAR:
   ENCUT = 320.000000
   SIGMA = 0.200000
   EDIFF = 1.00e-06
   GGA = PE
   PREC = normal
   IBRION = 1
   ICHARG = 1
   ISIF = 2
   ISMEAR = 1
   KPAR = 1
   NBANDS = 30
   NSW = 0
   NCORE = 1
   LCHARG = .TRUE.

 POTCAR:    PAW_PBE Cu 22Jun2005                  
 POTCAR:    PAW_PBE Cu 22Jun2005                  
   SHA256 =  0e71e558f37a4e8407882b4609ceaae59938afaad9ced71dfe8490308a0ab630 Cu/POTCAR             
   COPYR  = (c) Copyright 22Jun2005 Georg Kresse                                                    
   COPYR  = This file is part of the software VASP. Any use, copying, and all other rights are regul
   COPYR  = If you do not have a valid VASP license, you may not use, copy or distribute this file. 
   VRHFIN =Cu: d10 p1                                                                               
   LEXCH  = PE                                                                                      
   EATOM  =  1390.9808 eV,  102.2342 Ry                                                             
                                                                                                    
   TITEL  = PAW_PBE Cu 22Jun2005                                                                    
   LULTRA =        F    use ultrasoft PP ?                                                          
   IUNSCR =        1    unscreen: 0-lin 1-nonlin 2-no                                               
   RPACOR =    2.000    partial core radius                                                         
   POMASS =   63.546; ZVAL   =   11.000    mass and valenz                                          
   RCORE  =    2.300    outmost cutoff radius                                                       
   RWIGS  =    2.200; RWIGS  =    1.164    wigner-seitz radius (au A)                               
   ENMAX  =  295.446; ENMIN  =  221.585 eV                                                          
   ICORE  =        3    local potential                                                             
   LCOR   =        T    correct aug charges                                                         
   LPAW   =        T    paw PP                                                                      
   EAUG   =  586.980                                                                                
   DEXC   =    0.000                                                                                
   RMAX   =    2.344    core radius for proj-oper                                                   
   RAUG   =    1.300    factor for augmentation sphere                                              
   RDEP   =    2.302    radius for radial grids                                                     
   RDEPT  =    1.771    core radius for aug-charge                                                  
                                                                                                    
   Atomic configuration                                                                             
    9 entries                                                                                       
     n  l   j            E        occ.                                                              
     1  0  0.50     -8850.2468   2.0000                                                             
     2  0  0.50     -1062.3498   2.0000                                                             
     2  1  1.50      -916.8226   6.0000                                                             
     3  0  0.50      -114.6929   2.0000                                                             
     3  1  1.50       -72.1325   6.0000                                                             
     3  2  2.50        -5.0394  10.0000                                                             
     4  0  0.50        -4.6097   1.0000                                                             
     4  1  0.50        -4.0817   0.0000                                                             
     4  3  2.50        -1.3606   0.0000                                                             
   Description                                                                                      
     l       E           TYP  RCUT    TYP  RCUT                                                     
     2     -5.0393973     23  2.200                                                                 
     2     10.8846608     23  2.200                                                                 
     0     -4.6097109     23  2.200                                                                 
     0      8.2520465     23  2.200                                                                 
     1     -2.7211652     23  2.200                                                                 
     1     21.7055443     23  2.200                                                                 
     3      2.7211652     23  2.300                                                                 
  local pseudopotential read in
  partial core-charges read in
  partial kinetic energy density read in
  atomic valenz-charges read in
  non local Contribution for L=           2  read in
    real space projection operators read in
  non local Contribution for L=           2  read in
    real space projection operators read in
  non local Contribution for L=           0  read in
    real space projection operators read in
  non local Contribution for L=           0  read in
    real space projection operators read in
  non local Contribution for L=           1  read in
    real space projection operators read in
  non local Contribution for L=           1  read in
    real space projection operators read in
    PAW grid and wavefunctions read in
 
   number of l-projection  operators is LMAX  =           6
   number of lm-projection operators is LMMAX =          18
 
  PAW_PBE Cu 22Jun2005                  :
 energy of atom  1       EATOM=-1390.9808
 kinetic energy error for atom=    0.0368 (will be added to EATOM!!)
 
 
 POSCAR: Cu
  positions in cartesian coordinates
  No initial velocities read in
 exchange correlation table for  LEXCH =        8
   RHO(1)=    0.500       N(1)  =     2000
   RHO(2)=  100.500       N(2)  =     4000
 


--------------------------------------------------------------------------------------------------------


 ion  position               nearest neighbor table
   1  0.000  0.000  0.000-   2 2.61   3 2.61   4 2.61   3 2.61   4 2.61   2 2.61   4 2.61   4 2.61
                             2 2.61   3 2.61   3 2.61   2 2.61
   2  0.500  0.500  0.000-   1 2.61   3 2.61   4 2.61   3 2.61   4 2.61   1 2.61   3 2.61   3 2.61
                             1 2.61   4 2.61   4 2.61   1 2.61
   3  0.500  0.000  0.500-   1 2.61   2 2.61   4 2.61   1 2.61   2 2.61   2 2.61   4 2.61   2 2.61
                             1 2.61   4 2.61   1 2.61   4 2.61
   4  0.000  0.500  0.500-   1 2.61   2 2.61   3 2.61   1 2.61   2 2.61   1 2.61   3 2.61   1 2.61
                             2 2.61   3 2.61   2 2.61   3 2.61
 
  LATTYP: Found a simple cubic cell.
 ALAT       =     3.6946007570
  
  Lattice vectors:
  
 A1 = (   3.6946007570,   0.0000000000,   0.0000000000)
 A2 = (   0.0000000000,   3.6946007570,   0.0000000000)
 A3 = (   0.0000000000,   0.0000000000,   3.6946007570)


Analysis of symmetry for initial positions (statically):
=====================================================================
 Subroutine PRICEL returns following result:
 
  LATTYP: Found a face centered cubic cell.
 ALAT       =     3.6946007570
  
  Lattice vectors:
  
 A1 = (   1.8473003785,  -1.8473003785,   0.0000000000)
 A2 = (   1.8473003785,   0.0000000000,   1.8473003785)
 A3 = (   0.0000000000,  -1.8473003785,   1.8473003785)
 
   4 primitive cells build up your supercell.
 

 Routine SETGRP: Setting up the symmetry group for a 
 simple cubic supercell.


 Subroutine GETGRP returns: Found 48 space group operations
 (whereof 48 operations were pure point group operations)
 out of a pool of 48 trial point group operations.


The static configuration has the point symmetry O_h .


Analysis of symmetry for dynamics (positions and initial velocities):
=====================================================================
 Subroutine PRICEL returns following result:
 
  LATTYP: Found a face centered cubic cell.
 ALAT       =     3.6946007570
  
  Lattice vectors:
  
 A1 = (   1.8473003785,  -1.8473003785,   0.0000000000)
 A2 = (   1.8473003785,   0.0000000000,   1.8473003785)
 A3 = (   0.0000000000,  -1.8473003785,   1.8473003785)
 
   4 primitive cells build up your supercell.
 

 Routine SETGRP: Setting up the symmetry group for a 
 simple cubic supercell.


 Subroutine GETGRP returns: Found 48 space group operations
 (whereof 48 operations were pure point group operations)
 out of a pool of 48 trial point group operations.


The dynamic configuration has the point symmetry O_h .


 Subroutine INISYM returns: Found 48 space group operations
 (whereof 48 operations are pure point group operations),
 and found     4 'primitive' translations


----------------------------------------------------------------------------------------

                                     Primitive cell                                     

  volume of cell :      12.6079

  direct lattice vectors                    reciprocal lattice vectors
     1.847300379 -1.847300379  0.000000000     0.270665240 -0.270665240 -0.270665240
     1.847300379  0.000000000  1.847300379     0.270665240  0.270665240  0.270665240
     0.000000000 -1.847300379  1.847300379    -0.270665240 -0.270665240  0.270665240

  length of vectors
     2.612477249  2.612477249  2.612477249     0.468805947  0.468805947  0.468805947

  position of ions in fractional coordinates (direct lattice)
     0.000000000  0.000000000  0.000000000

  ion indices of the primitive-cell ions
   primitive index   ion index
                 1           1

----------------------------------------------------------------------------------------

 
 
 KPOINTS: KPOINTS created by Atomic Simulation Env

Automatic generation of k-mesh.
 Grid dimensions read from file:
 generate k-points for:    9    9    9

 Generating k-lattice:

  Cartesian coordinates                     Fractional coordinates (reciprocal lattice)
     0.030073916  0.000000000  0.000000000     0.111111111  0.000000000  0.000000000
     0.000000000  0.030073916  0.000000000     0.000000000  0.111111111  0.000000000
     0.000000000  0.000000000  0.030073916     0.000000000  0.000000000  0.111111111

  Length of vectors
     0.030073916  0.030073916  0.030073916

  Shift w.r.t. Gamma in fractional coordinates (k-lattice)
     0.000000000  0.000000000  0.000000000

 
 Subroutine IBZKPT returns following result:
 ===========================================
 
 Found     35 irreducible k-points:
 
 Following reciprocal coordinates:
            Coordinates               Weight
  0.000000  0.000000  0.000000      1.000000
  0.111111  0.000000  0.000000      6.000000
  0.222222  0.000000  0.000000      6.000000
  0.333333  0.000000  0.000000      6.000000
  0.444444  0.000000  0.000000      6.000000
  0.111111  0.111111  0.000000     12.000000
  0.222222  0.111111  0.000000     24.000000
  0.333333  0.111111  0.000000     24.000000
  0.444444  0.111111  0.000000     24.000000
  0.222222  0.222222  0.000000     12.000000
  0.333333  0.222222  0.000000     24.000000
  0.444444  0.222222  0.000000     24.000000
  0.333333  0.333333  0.000000     12.000000
  0.444444  0.333333  0.000000     24.000000
  0.444444  0.444444  0.000000     12.000000
  0.111111  0.111111  0.111111      8.000000
  0.222222  0.111111  0.111111     24.000000
  0.333333  0.111111  0.111111     24.000000
  0.444444  0.111111  0.111111     24.000000
  0.222222  0.222222  0.111111     24.000000
  0.333333  0.222222  0.111111     48.000000
  0.444444  0.222222  0.111111     48.000000
  0.333333  0.333333  0.111111     24.000000
  0.444444  0.333333  0.111111     48.000000
  0.444444  0.444444  0.111111     24.000000
  0.222222  0.222222  0.222222      8.000000
  0.333333  0.222222  0.222222     24.000000
  0.444444  0.222222  0.222222     24.000000
  0.333333  0.333333  0.222222     24.000000
  0.444444  0.333333  0.222222     48.000000
  0.444444  0.444444  0.222222     24.000000
  0.333333  0.333333  0.333333      8.000000
  0.444444  0.333333  0.333333     24.000000
  0.444444  0.444444  0.333333     24.000000
  0.444444  0.444444  0.444444      8.000000
 
 Following cartesian coordinates:
            Coordinates               Weight
  0.000000  0.000000  0.000000      1.000000
  0.030074  0.000000  0.000000      6.000000
  0.060148  0.000000  0.000000      6.000000
  0.090222  0.000000  0.000000      6.000000
  0.120296  0.000000  0.000000      6.000000
  0.030074  0.030074  0.000000     12.000000
  0.060148  0.030074  0.000000     24.000000
  0.090222  0.030074  0.000000     24.000000
  0.120296  0.030074  0.000000     24.000000
  0.060148  0.060148  0.000000     12.000000
  0.090222  0.060148  0.000000     24.000000
  0.120296  0.060148  0.000000     24.000000
  0.090222  0.090222  0.000000     12.000000
  0.120296  0.090222  0.000000     24.000000
  0.120296  0.120296  0.000000     12.000000
  0.030074  0.030074  0.030074      8.000000
  0.060148  0.030074  0.030074     24.000000
  0.090222  0.030074  0.030074     24.000000
  0.120296  0.030074  0.030074     24.000000
  0.060148  0.060148  0.030074     24.000000
  0.090222  0.060148  0.030074     48.000000
  0.120296  0.060148  0.030074     48.000000
  0.090222  0.090222  0.030074     24.000000
  0.120296  0.090222  0.030074     48.000000
  0.120296  0.120296  0.030074     24.000000
  0.060148  0.060148  0.060148      8.000000
  0.090222  0.060148  0.060148     24.000000
  0.120296  0.060148  0.060148     24.000000
  0.090222  0.090222  0.060148     24.000000
  0.120296  0.090222  0.060148     48.000000
  0.120296  0.120296  0.060148     24.000000
  0.090222  0.090222  0.090222      8.000000
  0.120296  0.090222  0.090222     24.000000
  0.120296  0.120296  0.090222     24.000000
  0.120296  0.120296  0.120296      8.000000
 


--------------------------------------------------------------------------------------------------------




 Dimension of arrays:
   k-points           NKPTS =     35   k-points in BZ     NKDIM =     35   number of bands    NBANDS=     30
   number of dos      NEDOS =    301   number of ions     NIONS =      4
   non local maximal  LDIM  =      6   non local SUM 2l+1 LMDIM =     18
   total plane-waves  NPLWV =   4096
   max r-space proj   IRMAX =      1   max aug-charges    IRDMAX=   2552
   dimension x,y,z NGX =    16 NGY =   16 NGZ =   16
   dimension x,y,z NGXF=    32 NGYF=   32 NGZF=   32
   support grid    NGXF=    32 NGYF=   32 NGZF=   32
   ions per type =               4
   NGX,Y,Z   is equivalent  to a cutoff of   7.20,  7.20,  7.20 a.u.
   NGXF,Y,Z  is equivalent  to a cutoff of  14.40, 14.40, 14.40 a.u.

 SYSTEM =  unknown system                          
 POSCAR =  Cu                                      

 Startparameter for this run:
   NWRITE =      2    write-flag & timer
   PREC   = normal    normal or accurate (medium, high low for compatibility)
   ISTART =      1    job   : 0-new  1-cont  2-samecut
   ICHARG =      1    charge: 1-file 2-atom 10-const
   ISPIN  =      1    spin polarized calculation?
   LNONCOLLINEAR =      F non collinear calculations
   LSORBIT =      F    spin-orbit coupling
   INIWAV =      1    electr: 0-lowe 1-rand  2-diag
   LASPH  =      F    aspherical Exc in radial PAW
   METAGGA=      F    non-selfconsistent MetaGGA calc.

 Electronic Relaxation 1
   ENCUT  =  320.0 eV  23.52 Ry    4.85 a.u.   5.39  5.39  5.39*2*pi/ulx,y,z
   ENINI  =  320.0     initial cutoff
   ENAUG  =  587.0 eV  augmentation charge cutoff
   NELM   =     60;   NELMIN=  2; NELMDL=  0     # of ELM steps 
   EDIFF  = 0.1E-05   stopping-criterion for ELM
   LREAL  =      F    real-space projection
   NLSPLINE    = F    spline interpolate recip. space projectors
   LCOMPAT=      F    compatible to vasp.4.4
   GGA_COMPAT  = T    GGA compatible to vasp.4.4-vasp.4.6
   LMAXPAW     = -100 max onsite density
   LMAXMIX     =    2 max onsite mixed and CHGCAR
   VOSKOWN=      0    Vosko Wilk Nusair interpolation
   ROPT   =    0.00000
 Ionic relaxation
   EDIFFG = 0.1E-04   stopping-criterion for IOM
   NSW    =      0    number of steps for IOM
   NBLOCK =      1;   KBLOCK =      1    inner block; outer block 
   IBRION =     -1    ionic relax: 0-MD 1-quasi-New 2-CG
   NFREE  =      0    steps in history (QN), initial steepest desc. (CG)
   ISIF   =      2    stress and relaxation
   IWAVPR =      0    prediction:  0-non 1-charg 2-wave 3-comb
   ISYM   =      2    0-nonsym 1-usesym 2-fastsym
   LCORR  =      T    Harris-Foulkes like correction to forces

   POTIM  = 0.5000    time-step for ionic-motion
   TEIN   =    0.0    initial temperature
   TEBEG  =    0.0;   TEEND  =   0.0 temperature during run
   SMASS  =  -3.00    Nose mass-parameter (am)
   estimated Nose-frequenzy (Omega)   =  0.10E-29 period in steps = 0.13E+47 mass=  -0.312E-27a.u.
   SCALEE = 1.0000    scale energy and forces
   NPACO  =    256;   APACO  = 16.0  distance and # of slots for P.C.
   PSTRESS=    0.0 pullay stress

  Mass of Ions in am
   POMASS =  63.55
  Ionic Valenz
   ZVAL   =  11.00
  Atomic Wigner-Seitz radii
   RWIGS  =  -1.00
  virtual crystal weights 
   VCA    =   1.00
   NELECT =      44.0000    total number of electrons
   NUPDOWN=      -1.0000    fix difference up-down

 DOS related values:
   EMIN   =  10.00;   EMAX   =-10.00  energy-range for DOS
   EFERMI =   0.00
   ISMEAR =     1;   SIGMA  =   0.20  broadening in eV -4-tet -1-fermi 0-gaus

 Electronic relaxation 2 (details)
   IALGO  =     38    algorithm
   LDIAG  =      T    sub-space diagonalisation (order eigenvalues)
   LSUBROT=      F    optimize rotation matrix (better conditioning)
   TURBO    =      0    0=normal 1=particle mesh
   IRESTART =      0    0=no restart 2=restart with 2 vectors
   NREBOOT  =      0    no. of reboots
   NMIN     =      0    reboot dimension
   EREF     =   0.00    reference energy to select bands
   IMIX   =      4    mixing-type and parameters
     AMIX     =   0.40;   BMIX     =  1.00
     AMIX_MAG =   1.60;   BMIX_MAG =  1.00
     AMIN     =   0.10
     WC   =   100.;   INIMIX=   1;  MIXPRE=   1;  MAXMIX= -45

 Intra band minimization:
   WEIMIN = 0.0000     energy-eigenvalue tresh-hold
   EBREAK =  0.83E-08  absolut break condition
   DEPER  =   0.30     relativ break condition  

   TIME   =   0.40     timestep for ELM

  volume/ion in A,a.u.               =      12.61        85.08
  Fermi-wavevector in a.u.,A,eV,Ry     =   1.564317  2.956131 33.294666  2.447089
  Thomas-Fermi vector in A             =   2.666959
 
 Write flags
   LWAVE        =      T    write WAVECAR
   LDOWNSAMPLE  =      F    k-point downsampling of WAVECAR
   LCHARG       =      T    write CHGCAR
   LVTOT        =      F    write LOCPOT, total local potential
   LVHAR        =      F    write LOCPOT, Hartree potential only
   LELF         =      F    write electronic localiz. function (ELF)
   LORBIT       =      0    0 simple, 1 ext, 2 COOP (PROOUT), +10 PAW based schemes


 Dipole corrections
   LMONO  =      F    monopole corrections only (constant potential shift)
   LDIPOL =      F    correct potential (dipole corrections)
   IDIPOL =      0    1-x, 2-y, 3-z, 4-all directions 
   EPSILON=  1.0000000 bulk dielectric constant

 Exchange correlation treatment:
   GGA     =    PE    GGA type
   LEXCH   =     8    internal setting for exchange type
   VOSKOWN=      0    Vosko Wilk Nusair interpolation
   LHFCALC =     F    Hartree Fock is set to
   LHFONE  =     F    Hartree Fock one center treatment
   AEXX    =    0.0000 exact exchange contribution

 Linear response parameters
   LEPSILON=     F    determine dielectric tensor
   LRPA    =     F    only Hartree local field effects (RPA)
   LNABLA  =     F    use nabla operator in PAW spheres
   LVEL    =     F    velocity operator in full k-point grid
   LINTERFAST=   F  fast interpolation
   KINTER  =     0    interpolate to denser k-point grid
   CSHIFT  =0.1000    complex shift for real part using Kramers Kronig
   OMEGAMAX=  -1.0    maximum frequency
   DEG_THRESHOLD= 0.2000000E-02 threshold for treating states as degnerate
   RTIME   =   -0.100 relaxation time in fs
  (WPLASMAI=    0.000 imaginary part of plasma frequency in eV, 0.658/RTIME)
   DFIELD  = 0.0000000 0.0000000 0.0000000 field for delta impulse in time
 
 Orbital magnetization related:
   ORBITALMAG=     F  switch on orbital magnetization
   LCHIMAG   =     F  perturbation theory with respect to B field
   DQ        =  0.001000  dq finite difference perturbation B field
   LLRAUG    =     F  two centre corrections for induced B field



--------------------------------------------------------------------------------------------------------


 Static calculation
 charge density and potential will be updated during run
 non-spin polarized calculation
 Variant of blocked Davidson
 Davidson routine will perform the subspace rotation
 perform sub-space diagonalisation
    after iterative eigenvector-optimisation
 modified Broyden-mixing scheme, WC =      100.0
 initial mixing is a Kerker type mixing with AMIX =  0.4000 and BMIX =      1.0000
 Hartree-type preconditioning will be used
 using additional bands            8
 reciprocal scheme for non local part
 use partial core corrections
 calculate Harris-corrections to forces 
   (improved forces if not selfconsistent)
 use gradient corrections 
 use of overlap-Matrix (Vanderbilt PP)
 Methfessel and Paxton  Order N= 1 SIGMA  =   0.20


--------------------------------------------------------------------------------------------------------


  energy-cutoff  :      320.00
  volume of cell :       50.43
      direct lattice vectors                 reciprocal lattice vectors
     3.694600757  0.000000000  0.000000000     0.270665240  0.000000000  0.000000000
     0.000000000  3.694600757  0.000000000     0.000000000  0.270665240  0.000000000
     0.000000000  0.000000000  3.694600757     0.000000000  0.000000000  0.270665240

  length of vectors
     3.694600757  3.694600757  3.694600757     0.270665240  0.270665240  0.270665240


 
 old parameters found on file WAVECAR:
  energy-cutoff  :      320.00
  volume of cell :       50.43
      direct lattice vectors                 reciprocal lattice vectors
     3.694600757  0.000000000  0.000000000     0.270665240  0.000000000  0.000000000
     0.000000000  3.694600757  0.000000000     0.000000000  0.270665240  0.000000000
     0.000000000  0.000000000  3.694600757     0.000000000  0.000000000  0.270665240

  length of vectors

 
 k-points in units of 2pi/SCALE and weight: KPOINTS created by Atomic Simulation Env
   0.00000000  0.00000000  0.00000000       0.001
   0.03007392  0.00000000  0.00000000       0.008
   0.06014783  0.00000000  0.00000000       0.008
   0.09022175  0.00000000  0.00000000       0.008
   0.12029566  0.00000000  0.00000000       0.008
   0.03007392  0.03007392  0.00000000       0.016
   0.06014783  0.03007392  0.00000000       0.033
   0.09022175  0.03007392  0.00000000       0.033
   0.12029566  0.03007392  0.00000000       0.033
   0.06014783  0.06014783  0.00000000       0.016
   0.09022175  0.06014783  0.00000000       0.033
   0.12029566  0.06014783  0.00000000       0.033
   0.09022175  0.09022175  0.00000000       0.016
   0.12029566  0.09022175  0.00000000       0.033
   0.12029566  0.12029566  0.00000000       0.016
   0.03007392  0.03007392  0.03007392       0.011
   0.06014783  0.03007392  0.03007392       0.033
   0.09022175  0.03007392  0.03007392       0.033
   0.12029566  0.03007392  0.03007392       0.033
   0.06014783  0.06014783  0.03007392       0.033
   0.09022175  0.06014783  0.03007392       0.066
   0.12029566  0.06014783  0.03007392       0.066
   0.09022175  0.09022175  0.03007392       0.033
   0.12029566  0.09022175  0.03007392       0.066
   0.12029566  0.12029566  0.03007392       0.033
   0.06014783  0.06014783  0.06014783       0.011
   0.09022175  0.06014783  0.06014783       0.033
   0.12029566  0.06014783  0.06014783       0.033
   0.09022175  0.09022175  0.06014783       0.033
   0.12029566  0.09022175  0.06014783       0.066
   0.12029566  0.12029566  0.06014783       0.033
   0.09022175  0.09022175  0.09022175       0.011
   0.12029566  0.09022175  0.09022175       0.033
   0.12029566  0.12029566  0.09022175       0.033
   0.12029566  0.12029566  0.12029566       0.011
 
 k-points in reciprocal lattice and weights: KPOINTS created by Atomic Simulation Env
   0.00000000  0.00000000  0.00000000       0.001
   0.11111111  0.00000000  0.00000000       0.008
   0.22222222  0.00000000  0.00000000       0.008
   0.33333333  0.00000000  0.00000000       0.008
   0.44444444  0.00000000  0.00000000       0.008
   0.11111111  0.11111111  0.00000000       0.016
   0.22222222  0.11111111  0.00000000       0.033
   0.33333333  0.11111111  0.00000000       0.033
   0.44444444  0.11111111  0.00000000       0.033
   0.22222222  0.22222222  0.00000000       0.016
   0.33333333  0.22222222  0.00000000       0.033
   0.44444444  0.22222222  0.00000000       0.033
   0.33333333  0.33333333  0.00000000       0.016
   0.44444444  0.33333333  0.00000000       0.033
   0.44444444  0.44444444  0.00000000       0.016
   0.11111111  0.11111111  0.11111111       0.011
   0.22222222  0.11111111  0.11111111       0.033
   0.33333333  0.11111111  0.11111111       0.033
   0.44444444  0.11111111  0.11111111       0.033
   0.22222222  0.22222222  0.11111111       0.033
   0.33333333  0.22222222  0.11111111       0.066
   0.44444444  0.22222222  0.11111111       0.066
   0.33333333  0.33333333  0.11111111       0.033
   0.44444444  0.33333333  0.11111111       0.066
   0.44444444  0.44444444  0.11111111       0.033
   0.22222222  0.22222222  0.22222222       0.011
   0.33333333  0.22222222  0.22222222       0.033
   0.44444444  0.22222222  0.22222222       0.033
   0.33333333  0.33333333  0.22222222       0.033
   0.44444444  0.33333333  0.22222222       0.066
   0.44444444  0.44444444  0.22222222       0.033
   0.33333333  0.33333333  0.33333333       0.011
   0.44444444  0.33333333  0.33333333       0.033
   0.44444444  0.44444444  0.33333333       0.033
   0.44444444  0.44444444  0.44444444       0.011
 
 position of ions in fractional coordinates (direct lattice) 
   0.00000000  0.00000000  0.00000000
   0.50000000  0.50000000  0.00000000
   0.50000000  0.00000000  0.50000000
   0.00000000  0.50000000  0.50000000
 
 position of ions in cartesian coordinates  (Angst):
   0.00000000  0.00000000  0.00000000
   1.84730038  1.84730038  0.00000000
   1.84730038  0.00000000  1.84730038
   0.00000000  1.84730038  1.84730038
 


--------------------------------------------------------------------------------------------------------


 k-point   1 :   0.0000 0.0000 0.0000  plane waves:     691
 k-point   2 :   0.1111 0.0000 0.0000  plane waves:     667
 k-point   3 :   0.2222 0.0000 0.0000  plane waves:     655
 k-point   4 :   0.3333 0.0000 0.0000  plane waves:     655
 k-point   5 :   0.4444 0.0000 0.0000  plane waves:     654
 k-point   6 :   0.1111 0.1111 0.0000  plane waves:     663
 k-point   7 :   0.2222 0.1111 0.0000  plane waves:     661
 k-point   8 :   0.3333 0.1111 0.0000  plane waves:     662
 k-point   9 :   0.4444 0.1111 0.0000  plane waves:     652
 k-point  10 :   0.2222 0.2222 0.0000  plane waves:     666
 k-point  11 :   0.3333 0.2222 0.0000  plane waves:     656
 k-point  12 :   0.4444 0.2222 0.0000  plane waves:     655
 k-point  13 :   0.3333 0.3333 0.0000  plane waves:     658
 k-point  14 :   0.4444 0.3333 0.0000  plane waves:     652
 k-point  15 :   0.4444 0.4444 0.0000  plane waves:     656
 k-point  16 :   0.1111 0.1111 0.1111  plane waves:     667
 k-point  17 :   0.2222 0.1111 0.1111  plane waves:     667
 k-point  18 :   0.3333 0.1111 0.1111  plane waves:     655
 k-point  19 :   0.4444 0.1111 0.1111  plane waves:     654
 k-point  20 :   0.2222 0.2222 0.1111  plane waves:     663
 k-point  21 :   0.3333 0.2222 0.1111  plane waves:     653
 k-point  22 :   0.4444 0.2222 0.1111  plane waves:     650
 k-point  23 :   0.3333 0.3333 0.1111  plane waves:     663
 k-point  24 :   0.4444 0.3333 0.1111  plane waves:     655
 k-point  25 :   0.4444 0.4444 0.1111  plane waves:     654
 k-point  26 :   0.2222 0.2222 0.2222  plane waves:     660
 k-point  27 :   0.3333 0.2222 0.2222  plane waves:     654
 k-point  28 :   0.4444 0.2222 0.2222  plane waves:     654
 k-point  29 :   0.3333 0.3333 0.2222  plane waves:     647
 k-point  30 :   0.4444 0.3333 0.2222  plane waves:     650
 k-point  31 :   0.4444 0.4444 0.2222  plane waves:     653
 k-point  32 :   0.3333 0.3333 0.3333  plane waves:     657
 k-point  33 :   0.4444 0.3333 0.3333  plane waves:     653
 k-point  34 :   0.4444 0.4444 0.3333  plane waves:     655
 k-point  35 :   0.4444 0.4444 0.4444  plane waves:     654

 maximum number of plane-waves:       691
 maximum index in each direction: 
   IXMAX=    5   IYMAX=    5   IZMAX=    5
   IXMIN=   -5   IYMIN=   -5   IZMIN=   -5


 total amount of memory used by VASP MPI-rank0    48212. kBytes
=======================================================================

   base      :      30000. kBytes
   nonl-proj :       3526. kBytes
   grid      :       1806. kBytes
   one-center:         62. kBytes
   wavefun   :      12818. kBytes
 
     INWAV:  cpu time    0.0161: real time    0.0174
 Broyden mixing: mesh for mixing (old mesh)
   NGX = 11   NGY = 11   NGZ = 11
  (NGX  = 32   NGY  = 32   NGZ  = 32)
  gives a total of   1331 points

 initial charge density was supplied:
 number of electron      44.0001757 magnetization 
 keeping initial charge density in first step


--------------------------------------------------------------------------------------------------------


 Maximum index for augmentation-charges         2301 (set IRDMAX)


--------------------------------------------------------------------------------------------------------


 First call to EWALD:  gamma=   0.480
 Maximum number of real-space cells 3x 3x 3
 Maximum number of reciprocal cells 3x 3x 3

    FEWALD:  cpu time    0.0009: real time    0.0009


--------------------------------------- Iteration      1(   1)  ---------------------------------------


    POTLOK:  cpu time    0.0074: real time    0.0074
    SETDIJ:  cpu time    0.0037: real time    0.0037
     EDDAV:  cpu time    0.4502: real time    0.4686
       DOS:  cpu time    0.0026: real time    0.0026
    CHARGE:  cpu time    0.0311: real time    0.0311
    MIXING:  cpu time    0.0003: real time    0.0003
    --------------------------------------------
      LOOP:  cpu time    0.4953: real time    0.5137

 eigenvalue-minimisations  :  2316
 total energy-change (2. order) :-0.1490704E+02  (-0.1305526E-04)
 number of electron      44.0001758 magnetization 
 augmentation part       28.0919114 magnetization 

 Broyden mixing:
  rms(total) = 0.71578E-03    rms(broyden)= 0.63543E-03
  rms(prec ) = 0.12960E-02
  weight for this iteration     100.00
  WARNING: grid for Broyden might be to small

 Free energy of the ion-electron system (eV)
  ---------------------------------------------------
  alpha Z        PSCENC =       232.02226462
  Ewald energy   TEWEN  =     -4324.44327005
  -Hartree energ DENC   =     -1408.56392707
  -exchange      EXHF   =         0.00000000
  -V(xc)+E(xc)   XCENC  =       178.19029806
  PAW double counting   =      5180.96889657    -5611.02057536
  entropy T*S    EENTRO =         0.00200712
  eigenvalues    EBANDS =       174.16115918
  atomic energy  EATOM  =      5563.77610493
  Solvation  Ediel_sol  =         0.00000000
  ---------------------------------------------------
  free energy    TOTEN  =       -14.90704201 eV

  energy without entropy =      -14.90904913  energy(sigma->0) =      -14.90771105


--------------------------------------------------------------------------------------------------------




--------------------------------------- Iteration      1(   2)  ---------------------------------------


    POTLOK:  cpu time    0.0070: real time    0.0070
    SETDIJ:  cpu time    0.0037: real time    0.0037
     EDDAV:  cpu time    0.4220: real time    0.4220
       DOS:  cpu time    0.0025: real time    0.0025
    CHARGE:  cpu time    0.0306: real time    0.0306
    MIXING:  cpu time    0.0003: real time    0.0003
    --------------------------------------------
      LOOP:  cpu time    0.4661: real time    0.4662

 eigenvalue-minimisations  :  2276
 total energy-change (2. order) : 0.1726536E-02  (-0.1357957E-04)
 number of electron      44.0001757 magnetization 
 augmentation part       28.0939615 magnetization 

 Broyden mixing:
  rms(total) = 0.84878E-03    rms(broyden)= 0.80156E-03
  rms(prec ) = 0.17527E-02
  weight for this iteration     100.00

 eigenvalues of (default mixing * dielectric matrix)
  average eigenvalue GAMMA=   0.4407
  0.4407

 Free energy of the ion-electron system (eV)
  ---------------------------------------------------
  alpha Z        PSCENC =       232.02226462
  Ewald energy   TEWEN  =     -4324.44327005
  -Hartree energ DENC   =     -1408.53235486
  -exchange      EXHF   =         0.00000000
  -V(xc)+E(xc)   XCENC  =       178.18867597
  PAW double counting   =      5180.93620961    -5610.98233864
  entropy T*S    EENTRO =         0.00200451
  eigenvalues    EBANDS =       174.12738845
  atomic energy  EATOM  =      5563.77610493
  Solvation  Ediel_sol  =         0.00000000
  ---------------------------------------------------
  free energy    TOTEN  =       -14.90531547 eV

  energy without entropy =      -14.90731998  energy(sigma->0) =      -14.90598364


--------------------------------------------------------------------------------------------------------




--------------------------------------- Iteration      1(   3)  ---------------------------------------


    POTLOK:  cpu time    0.0069: real time    0.0069
    SETDIJ:  cpu time    0.0037: real time    0.0037
     EDDAV:  cpu time    0.3774: real time    0.3774
       DOS:  cpu time    0.0026: real time    0.0026
    CHARGE:  cpu time    0.0318: real time    0.0318
    MIXING:  cpu time    0.0004: real time    0.0004
    --------------------------------------------
      LOOP:  cpu time    0.4227: real time    0.4227

 eigenvalue-minimisations  :  1900
 total energy-change (2. order) : 0.1682227E-05  (-0.3944976E-06)
 number of electron      44.0001757 magnetization 
 augmentation part       28.0932722 magnetization 

 Broyden mixing:
  rms(total) = 0.34977E-03    rms(broyden)= 0.34719E-03
  rms(prec ) = 0.72907E-03
  weight for this iteration     100.00

 eigenvalues of (default mixing * dielectric matrix)
  average eigenvalue GAMMA=   0.5926
  0.5926  0.5926

 Free energy of the ion-electron system (eV)
  ---------------------------------------------------
  alpha Z        PSCENC =       232.02226462
  Ewald energy   TEWEN  =     -4324.44327005
  -Hartree energ DENC   =     -1408.55474002
  -exchange      EXHF   =         0.00000000
  -V(xc)+E(xc)   XCENC  =       178.18982911
  PAW double counting   =      5180.96266931    -5611.01580942
  entropy T*S    EENTRO =         0.00200548
  eigenvalues    EBANDS =       174.15563227
  atomic energy  EATOM  =      5563.77610493
  Solvation  Ediel_sol  =         0.00000000
  ---------------------------------------------------
  free energy    TOTEN  =       -14.90531379 eV

  energy without entropy =      -14.90731927  energy(sigma->0) =      -14.90598228


--------------------------------------------------------------------------------------------------------




--------------------------------------- Iteration      1(   4)  ---------------------------------------


    POTLOK:  cpu time    0.0070: real time    0.0070
    SETDIJ:  cpu time    0.0037: real time    0.0037
     EDDAV:  cpu time    0.2709: real time    0.2710
       DOS:  cpu time    0.0025: real time    0.0025
    --------------------------------------------
      LOOP:  cpu time    0.2841: real time    0.2841

 eigenvalue-minimisations  :  1104
 total energy-change (2. order) : 0.1060744E-06  (-0.3388209E-07)
 number of electron      44.0001757 magnetization 
 augmentation part       28.0932722 magnetization 

 Free energy of the ion-electron system (eV)
  ---------------------------------------------------
  alpha Z        PSCENC =       232.02226462
  Ewald energy   TEWEN  =     -4324.44327005
  -Hartree energ DENC   =     -1408.56062370
  -exchange      EXHF   =         0.00000000
  -V(xc)+E(xc)   XCENC  =       178.19012704
  PAW double counting   =      5180.96537520    -5611.01974163
  entropy T*S    EENTRO =         0.00200568
  eigenvalues    EBANDS =       174.16244423
  atomic energy  EATOM  =      5563.77610493
  Solvation  Ediel_sol  =         0.00000000
  ---------------------------------------------------
  free energy    TOTEN  =       -14.90531368 eV

  energy without entropy =      -14.90731937  energy(sigma->0) =      -14.90598224


--------------------------------------------------------------------------------------------------------




 average (electrostatic) potential at core
  the test charge radii are     0.9430
  (the norm of the test charge is              1.0000)
       1 -64.3327       2 -64.3327       3 -64.3327       4 -64.3327
 
 
 
 E-fermi :   6.7521     XC(G=0): -12.3519     alpha+bet :-12.5749

 Fermi energy:         6.7520690795

 k-point     1 :       0.0000    0.0000    0.0000
  band No.  band energies     occupation 
      1      -2.0644      2.00000
      2       2.2962      2.00000
      3       2.2962      2.00000
      4       2.2962      2.00000
      5       2.7123      2.00000
      6       2.7123      2.00000
      7       2.7123      2.00000
      8       3.9708      2.00000
      9       3.9708      2.00000
     10       3.9708      2.00000
     11       4.7174      2.00000
     12       4.7174      2.00000
     13       5.2144      2.00000
     14       5.2144      2.00000
     15       5.2144      2.00000
     16       5.3558      2.00000
     17       5.3558      2.00000
     18       5.3558      2.00000
     19       5.3558      2.00000
     20       5.3558      2.00000
     21       5.3558      2.00000
     22       8.3478     -0.00000
     23       8.3478     -0.00000
     24       8.3478     -0.00000
     25      13.4709      0.00000
     26      13.4709      0.00000
     27      13.4709      0.00000
     28      19.3838      0.00000
     29      19.3838      0.00000
     30      19.3838      0.00000

 k-point     2 :       0.1111    0.0000    0.0000
  band No.  band energies     occupation 
      1      -1.9212      2.00000
      2       2.2905      2.00000
      3       2.3605      2.00000
      4       2.3605      2.00000
      5       2.7485      2.00000
      6       2.7507      2.00000
      7       2.7507      2.00000
      8       3.9309      2.00000
      9       4.0030      2.00000
     10       4.0030      2.00000
     11       4.6813      2.00000
     12       4.7320      2.00000
     13       5.1353      2.00000
     14       5.1353      2.00000
     15       5.1678      2.00000
     16       5.1678      2.00000
     17       5.1991      2.00000
     18       5.3008      2.00000
     19       5.3008      2.00000
     20       5.3559      2.00000
     21       5.3559      2.00000
     22       7.4972     -0.00000
     23       8.6982     -0.00000
     24       8.6982     -0.00000
     25      13.5276      0.00000
     26      13.5276      0.00000
     27      14.6120      0.00000
     28      18.4948      0.00000
     29      18.4948      0.00000
     30      18.7743      0.00000

 k-point     3 :       0.2222    0.0000    0.0000
  band No.  band energies     occupation 
      1      -1.4971      2.00000
      2       2.2177      2.00000
      3       2.5368      2.00000
      4       2.5368      2.00000
      5       2.8531      2.00000
      6       2.8667      2.00000
      7       2.8667      2.00000
      8       3.8169      2.00000
      9       4.0982      2.00000
     10       4.0982      2.00000
     11       4.5810      2.00000
     12       4.6643      2.00000
     13       4.6643      2.00000
     14       4.7744      2.00000
     15       5.0363      2.00000
     16       5.0363      2.00000
     17       5.1488      2.00000
     18       5.1488      2.00000
     19       5.1553      2.00000
     20       5.3561      2.00000
     21       5.3561      2.00000
     22       6.0134      2.00000
     23       9.5576     -0.00000
     24       9.5576     -0.00000
     25      13.7067      0.00000
     26      13.7067      0.00000
     27      16.8517      0.00000
     28      16.8517      0.00000
     29      17.0119      0.00000
     30      17.5473      0.00000

 k-point     4 :       0.3333    0.0000    0.0000
  band No.  band energies     occupation 
      1      -0.8107      2.00000
      2       1.8774      2.00000
      3       2.7694      2.00000
      4       2.7694      2.00000
      5       3.0150      2.00000
      6       3.0639      2.00000
      7       3.0639      2.00000
      8       3.6442      2.00000
      9       4.1620      2.00000
     10       4.1620      2.00000
     11       4.2519      2.00000
     12       4.2519      2.00000
     13       4.4418      2.00000
     14       4.8396      2.00000
     15       4.8499      2.00000
     16       4.8542      2.00000
     17       4.8542      2.00000
     18       4.9321      2.00000
     19       4.9321      2.00000
     20       5.0880      2.00000
     21       5.3563      2.00000
     22       5.3563      2.00000
     23      10.7021     -0.00000
     24      10.7021     -0.00000
     25      14.0347      0.00000
     26      14.0347      0.00000
     27      15.1476      0.00000
     28      15.1476      0.00000
     29      16.3270      0.00000
     30      16.3270      0.00000

 k-point     5 :       0.4444    0.0000    0.0000
  band No.  band energies     occupation 
      1       0.0912      2.00000
      2       1.0857      2.00000
      3       2.9511      2.00000
      4       2.9511      2.00000
      5       3.2168      2.00000
      6       3.3459      2.00000
      7       3.3459      2.00000
      8       3.4353      2.00000
      9       3.7137      2.00000
     10       3.7137      2.00000
     11       4.3226      2.00000
     12       4.3591      2.00000
     13       4.4541      2.00000
     14       4.4541      2.00000
     15       4.6892      2.00000
     16       4.6892      2.00000
     17       4.7051      2.00000
     18       4.7051      2.00000
     19       4.9200      2.00000
     20       5.0063      2.00000
     21       5.3565      2.00000
     22       5.3565      2.00000
     23      12.0386     -0.00000
     24      12.0386     -0.00000
     25      13.5291      0.00000
     26      13.5291      0.00000
     27      14.5455      0.00000
     28      14.5455      0.00000
     29      15.3283      0.00000
     30      15.3283      0.00000

 k-point     6 :       0.1111    0.1111    0.0000
  band No.  band energies     occupation 
      1      -1.7791      2.00000
      2       2.3575      2.00000
      3       2.3575      2.00000
      4       2.4220      2.00000
      5       2.7856      2.00000
      6       2.7856      2.00000
      7       2.7867      2.00000
      8       3.9097      2.00000
      9       4.0180      2.00000
     10       4.0293      2.00000
     11       4.6722      2.00000
     12       4.7257      2.00000
     13       4.9862      2.00000
     14       5.0329      2.00000
     15       5.0329      2.00000
     16       5.1248      2.00000
     17       5.1819      2.00000
     18       5.1819      2.00000
     19       5.3007      2.00000
     20       5.3007      2.00000
     21       5.3204      2.00000
     22       7.8381     -0.00000
     23       7.8381     -0.00000
     24       9.0133     -0.00000
     25      13.5857      0.00000
     26      14.6963      0.00000
     27      14.6963      0.00000
     28      16.8489      0.00000
     29      18.6830      0.00000
     30      18.6830      0.00000

 k-point     7 :       0.2222    0.1111    0.0000
  band No.  band energies     occupation 
      1      -1.3582      2.00000
      2       2.2942      2.00000
      3       2.5423      2.00000
      4       2.5902      2.00000
      5       2.8864      2.00000
      6       2.8952      2.00000
      7       2.8977      2.00000
      8       3.8095      2.00000
      9       4.1037      2.00000
     10       4.1045      2.00000
     11       4.5599      2.00000
     12       4.5892      2.00000
     13       4.5904      2.00000
     14       4.7699      2.00000
     15       4.7988      2.00000
     16       5.0024      2.00000
     17       5.0462      2.00000
     18       5.1413      2.00000
     19       5.1481      2.00000
     20       5.3001      2.00000
     21       5.3016      2.00000
     22       6.4116      2.03691
     23       8.6196     -0.00000
     24       9.8187     -0.00000
     25      13.7644      0.00000
     26      14.9594      0.00000
     27      15.0826      0.00000
     28      17.0279      0.00000
     29      17.1160      0.00000
     30      17.7105      0.00000

 k-point     8 :       0.3333    0.1111    0.0000
  band No.  band energies     occupation 
      1      -0.6777      2.00000
      2       1.9693      2.00000
      3       2.7895      2.00000
      4       2.8173      2.00000
      5       3.0425      2.00000
      6       3.0720      2.00000
      7       3.0879      2.00000
      8       3.6460      2.00000
      9       4.0706      2.00000
     10       4.1309      2.00000
     11       4.1982      2.00000
     12       4.2540      2.00000
     13       4.4329      2.00000
     14       4.4949      2.00000
     15       4.8322      2.00000
     16       4.8512      2.00000
     17       4.8650      2.00000
     18       4.9312      2.00000
     19       5.0276      2.00000
     20       5.2975      2.00000
     21       5.2992      2.00000
     22       5.4335      2.00000
     23       9.6094     -0.00000
     24      10.9250     -0.00000
     25      13.4207      0.00000
     26      14.1505      0.00000
     27      15.3239      0.00000
     28      15.4270      0.00000
     29      16.4671      0.00000
     30      18.2352      0.00000

 k-point     9 :       0.4444    0.1111    0.0000
  band No.  band energies     occupation 
      1       0.2146      2.00000
      2       1.1947      2.00000
      3       2.9909      2.00000
      4       3.0028      2.00000
      5       3.2366      2.00000
      6       3.3122      2.00000
      7       3.3587      2.00000
      8       3.4463      2.00000
      9       3.6451      2.00000
     10       3.7096      2.00000
     11       4.1917      2.00000
     12       4.1948      2.00000
     13       4.4547      2.00000
     14       4.5582      2.00000
     15       4.6888      2.00000
     16       4.6970      2.00000
     17       4.7105      2.00000
     18       4.7857      2.00000
     19       4.9567      2.00000
     20       5.0942      2.00000
     21       5.2973      2.00000
     22       5.2982      2.00000
     23      10.7393     -0.00000
     24      12.0066     -0.00000
     25      12.2374      0.00000
     26      13.7130      0.00000
     27      14.6663      0.00000
     28      15.4336      0.00000
     29      16.1369      0.00000
     30      17.0849      0.00000

 k-point    10 :       0.2222    0.2222    0.0000
  band No.  band energies     occupation 
      1      -0.9474      2.00000
      2       2.5067      2.00000
      3       2.5067      2.00000
      4       2.7356      2.00000
      5       2.9809      2.00000
      6       2.9871      2.00000
      7       2.9871      2.00000
      8       3.7577      2.00000
      9       4.1237      2.00000
     10       4.1525      2.00000
     11       4.3069      2.00000
     12       4.3069      2.00000
     13       4.3602      2.00000
     14       4.5627      2.00000
     15       4.8156      2.00000
     16       4.9038      2.00000
     17       5.0239      2.00000
     18       5.0239      2.00000
     19       5.1464      2.00000
     20       5.1464      2.00000
     21       5.2155      2.00000
     22       7.1351     -0.02082
     23       7.1351     -0.02082
     24      10.5262     -0.00000
     25      13.1479      0.00000
     26      14.0257      0.00000
     27      17.4318      0.00000
     28      17.4318      0.00000
     29      17.5405      0.00000
     30      17.5405      0.00000

 k-point    11 :       0.3333    0.2222    0.0000
  band No.  band energies     occupation 
      1      -0.2862      2.00000
      2       2.2261      2.00000
      3       2.7995      2.00000
      4       2.9372      2.00000
      5       3.1087      2.00000
      6       3.1247      2.00000
      7       3.1565      2.00000
      8       3.6382      2.00000
      9       3.8624      2.00000
     10       4.0320      2.00000
     11       4.0403      2.00000
     12       4.1306      2.00000
     13       4.2766      2.00000
     14       4.5083      2.00000
     15       4.7639      2.00000
     16       4.8534      2.00000
     17       4.9212      2.00000
     18       4.9297      2.00000
     19       4.9449      2.00000
     20       5.1445      2.00000
     21       5.1678      2.00000
     22       6.0187      2.00000
     23       7.9863     -0.00000
     24      11.5237     -0.00000
     25      11.5510     -0.00000
     26      14.3840      0.00000
     27      15.8362      0.00000
     28      16.8783      0.00000
     29      17.9831      0.00000
     30      18.3493      0.00000

 k-point    12 :       0.4444    0.2222    0.0000
  band No.  band energies     occupation 
      1       0.5737      2.00000
      2       1.5053      2.00000
      3       3.0667      2.00000
      4       3.1475      2.00000
      5       3.2187      2.00000
      6       3.2941      2.00000
      7       3.3938      2.00000
      8       3.4738      2.00000
      9       3.4923      2.00000
     10       3.6927      2.00000
     11       3.9693      2.00000
     12       4.0569      2.00000
     13       4.4633      2.00000
     14       4.5654      2.00000
     15       4.6591      2.00000
     16       4.6903      2.00000
     17       4.6961      2.00000
     18       4.7392      2.00000
     19       5.1334      2.00000
     20       5.1442      2.00000
     21       5.1494      2.00000
     22       5.4265      2.00000
     23       8.9711     -0.00000
     24      10.1347     -0.00000
     25      12.8063      0.00000
     26      14.2450      0.00000
     27      14.9654      0.00000
     28      15.7918      0.00000
     29      18.7561      0.00000
     30      19.4072      0.00000

 k-point    13 :       0.3333    0.3333    0.0000
  band No.  band energies     occupation 
      1       0.3371      2.00000
      2       2.5846      2.00000
      3       2.5846      2.00000
      4       3.0426      2.00000
      5       3.2147      2.00000
      6       3.2597      2.00000
      7       3.2597      2.00000
      8       3.5931      2.00000
      9       3.7250      2.00000
     10       3.7250      2.00000
     11       3.8639      2.00000
     12       4.0739      2.00000
     13       4.3535      2.00000
     14       4.4519      2.00000
     15       4.6563      2.00000
     16       4.7644      2.00000
     17       4.7644      2.00000
     18       4.9310      2.00000
     19       4.9310      2.00000
     20       5.0484      2.00000
     21       5.1471      2.00000
     22       6.6935      1.47278
     23       6.6935      1.47278
     24       9.8864     -0.00000
     25      12.4950      0.00000
     26      14.8197      0.00000
     27      16.6449      0.00000
     28      16.6449      0.00000
     29      17.5576      0.00000
     30      17.5576      0.00000

 k-point    14 :       0.4444    0.3333    0.0000
  band No.  band energies     occupation 
      1       1.1308      2.00000
      2       1.9611      2.00000
      3       2.9196      2.00000
      4       3.0695      2.00000
      5       3.3497      2.00000
      6       3.3821      2.00000
      7       3.4415      2.00000
      8       3.4966      2.00000
      9       3.5015      2.00000
     10       3.6532      2.00000
     11       3.8020      2.00000
     12       3.9622      2.00000
     13       4.4692      2.00000
     14       4.5007      2.00000
     15       4.5724      2.00000
     16       4.6054      2.00000
     17       4.6155      2.00000
     18       4.7033      2.00000
     19       4.9423      2.00000
     20       4.9758      2.00000
     21       5.4361      2.00000
     22       5.8868      2.00000
     23       7.5122     -0.00000
     24       8.5547     -0.00000
     25      13.6862      0.00000
     26      15.0795      0.00000
     27      15.4776      0.00000
     28      16.3865      0.00000
     29      17.7060      0.00000
     30      18.4896      0.00000

 k-point    15 :       0.4444    0.4444    0.0000
  band No.  band energies     occupation 
      1       1.8031      2.00000
      2       2.4495      2.00000
      3       2.4495      2.00000
      4       2.8322      2.00000
      5       3.4853      2.00000
      6       3.4853      2.00000
      7       3.5086      2.00000
      8       3.5478      2.00000
      9       3.5825      2.00000
     10       3.6848      2.00000
     11       3.6848      2.00000
     12       3.8609      2.00000
     13       4.4079      2.00000
     14       4.4751      2.00000
     15       4.4825      2.00000
     16       4.4825      2.00000
     17       4.5912      2.00000
     18       4.7445      2.00000
     19       4.7445      2.00000
     20       4.8328      2.00000
     21       5.8529      2.00000
     22       6.4900      2.06891
     23       6.4900      2.06891
     24       7.3444     -0.00023
     25      14.8205      0.00000
     26      16.1692      0.00000
     27      16.1692      0.00000
     28      16.2252      0.00000
     29      17.2274      0.00000
     30      17.2274      0.00000

 k-point    16 :       0.1111    0.1111    0.1111
  band No.  band energies     occupation 
      1      -1.6381      2.00000
      2       2.4209      2.00000
      3       2.4209      2.00000
      4       2.4209      2.00000
      5       2.8206      2.00000
      6       2.8206      2.00000
      7       2.8206      2.00000
      8       3.8913      2.00000
      9       4.0406      2.00000
     10       4.0406      2.00000
     11       4.6943      2.00000
     12       4.6943      2.00000
     13       4.9017      2.00000
     14       4.9017      2.00000
     15       4.9017      2.00000
     16       5.0737      2.00000
     17       5.0737      2.00000
     18       5.0737      2.00000
     19       5.3075      2.00000
     20       5.3075      2.00000
     21       5.3075      2.00000
     22       8.1297     -0.00000
     23       8.1297     -0.00000
     24       8.1297     -0.00000
     25      14.7826      0.00000
     26      14.7826      0.00000
     27      14.7826      0.00000
     28      17.0246      0.00000
     29      17.0246      0.00000
     30      17.0246      0.00000

 k-point    17 :       0.2222    0.1111    0.1111
  band No.  band energies     occupation 
      1      -1.2208      2.00000
      2       2.3643      2.00000
      3       2.5951      2.00000
      4       2.5951      2.00000
      5       2.9190      2.00000
      6       2.9258      2.00000
      7       2.9258      2.00000
      8       3.8038      2.00000
      9       4.1045      2.00000
     10       4.1088      2.00000
     11       4.4967      2.00000
     12       4.4967      2.00000
     13       4.6142      2.00000
     14       4.6496      2.00000
     15       4.7570      2.00000
     16       4.9401      2.00000
     17       4.9668      2.00000
     18       4.9668      2.00000
     19       5.2622      2.00000
     20       5.2868      2.00000
     21       5.2868      2.00000
     22       6.6871      1.51885
     23       8.8439     -0.00000
     24       8.8439     -0.00000
     25      15.0353      0.00000
     26      15.0353      0.00000
     27      15.2636      0.00000
     28      15.2636      0.00000
     29      17.2175      0.00000
     30      17.5408      0.00000

 k-point    18 :       0.3333    0.1111    0.1111
  band No.  band energies     occupation 
      1      -0.5472      2.00000
      2       2.0522      2.00000
      3       2.8322      2.00000
      4       2.8322      2.00000
      5       3.0714      2.00000
      6       3.0944      2.00000
      7       3.0944      2.00000
      8       3.6514      2.00000
      9       4.0547      2.00000
     10       4.0547      2.00000
     11       4.1789      2.00000
     12       4.2221      2.00000
     13       4.2971      2.00000
     14       4.5588      2.00000
     15       4.7586      2.00000
     16       4.8171      2.00000
     17       4.8171      2.00000
     18       4.8512      2.00000
     19       5.1829      2.00000
     20       5.2684      2.00000
     21       5.2684      2.00000
     22       5.6155      2.00000
     23       9.7850     -0.00000
     24       9.7850     -0.00000
     25      13.6302      0.00000
     26      13.6302      0.00000
     27      15.5369      0.00000
     28      15.5369      0.00000
     29      18.3408      0.00000
     30      18.3861      0.00000

 k-point    19 :       0.4444    0.1111    0.1111
  band No.  band energies     occupation 
      1       0.3336      2.00000
      2       1.2965      2.00000
      3       3.0417      2.00000
      4       3.0417      2.00000
      5       3.2598      2.00000
      6       3.2888      2.00000
      7       3.2888      2.00000
      8       3.4614      2.00000
      9       3.6862      2.00000
     10       3.6862      2.00000
     11       4.1139      2.00000
     12       4.1449      2.00000
     13       4.3765      2.00000
     14       4.5617      2.00000
     15       4.6841      2.00000
     16       4.6841      2.00000
     17       4.6922      2.00000
     18       4.9633      2.00000
     19       5.0248      2.00000
     20       5.0789      2.00000
     21       5.2603      2.00000
     22       5.2603      2.00000
     23      10.8504     -0.00000
     24      10.8504     -0.00000
     25      12.2421      0.00000
     26      12.2421      0.00000
     27      16.2533      0.00000
     28      16.2533      0.00000
     29      17.2189      0.00000
     30      17.2189      0.00000

 k-point    20 :       0.2222    0.2222    0.1111
  band No.  band energies     occupation 
      1      -0.8152      2.00000
      2       2.5559      2.00000
      3       2.5559      2.00000
      4       2.7357      2.00000
      5       3.0123      2.00000
      6       3.0175      2.00000
      7       3.0175      2.00000
      8       3.7613      2.00000
      9       4.1211      2.00000
     10       4.1368      2.00000
     11       4.2612      2.00000
     12       4.2612      2.00000
     13       4.2903      2.00000
     14       4.6167      2.00000
     15       4.7924      2.00000
     16       4.8270      2.00000
     17       4.8484      2.00000
     18       4.8484      2.00000
     19       5.2442      2.00000
     20       5.2442      2.00000
     21       5.2450      2.00000
     22       7.3135     -0.00053
     23       7.3135     -0.00053
     24       9.4348     -0.00000
     25      13.3723      0.00000
     26      15.3495      0.00000
     27      15.7373      0.00000
     28      15.7373      0.00000
     29      17.5453      0.00000
     30      17.5453      0.00000

 k-point    21 :       0.3333    0.2222    0.1111
  band No.  band energies     occupation 
      1      -0.1641      2.00000
      2       2.2777      2.00000
      3       2.8127      2.00000
      4       2.9220      2.00000
      5       3.1399      2.00000
      6       3.1608      2.00000
      7       3.1737      2.00000
      8       3.6560      2.00000
      9       3.8831      2.00000
     10       3.9983      2.00000
     11       4.0162      2.00000
     12       4.1249      2.00000
     13       4.2122      2.00000
     14       4.6070      2.00000
     15       4.6711      2.00000
     16       4.6983      2.00000
     17       4.7408      2.00000
     18       4.9233      2.00000
     19       5.1569      2.00000
     20       5.1954      2.00000
     21       5.1958      2.00000
     22       6.1129      2.00006
     23       8.1145     -0.00000
     24      10.2146     -0.00000
     25      11.8139     -0.00000
     26      14.1181      0.00000
     27      15.8593      0.00000
     28      16.5165      0.00000
     29      18.0925      0.00000
     30      18.8358      0.00000

 k-point    22 :       0.4444    0.2222    0.1111
  band No.  band energies     occupation 
      1       0.6784      2.00000
      2       1.5823      2.00000
      3       3.0557      2.00000
      4       3.1168      2.00000
      5       3.2091      2.00000
      6       3.2829      2.00000
      7       3.3316      2.00000
      8       3.5043      2.00000
      9       3.6554      2.00000
     10       3.7458      2.00000
     11       3.9579      2.00000
     12       4.0479      2.00000
     13       4.3271      2.00000
     14       4.4851      2.00000
     15       4.6030      2.00000
     16       4.6248      2.00000
     17       4.7481      2.00000
     18       4.9889      2.00000
     19       5.1053      2.00000
     20       5.1660      2.00000
     21       5.1662      2.00000
     22       5.4183      2.00000
     23       9.0598     -0.00000
     24      10.1173     -0.00000
     25      11.5778     -0.00000
     26      12.7128      0.00000
     27      16.6137      0.00000
     28      17.5457      0.00000
     29      17.6175      0.00000
     30      18.7990      0.00000

 k-point    23 :       0.3333    0.3333    0.1111
  band No.  band energies     occupation 
      1       0.4424      2.00000
      2       2.5711      2.00000
      3       2.5711      2.00000
      4       2.9676      2.00000
      5       3.2665      2.00000
      6       3.3123      2.00000
      7       3.3123      2.00000
      8       3.6327      2.00000
      9       3.7665      2.00000
     10       3.7665      2.00000
     11       3.8963      2.00000
     12       4.0745      2.00000
     13       4.2286      2.00000
     14       4.5677      2.00000
     15       4.5921      2.00000
     16       4.5921      2.00000
     17       4.6040      2.00000
     18       5.0815      2.00000
     19       5.0815      2.00000
     20       5.1105      2.00000
     21       5.1182      2.00000
     22       6.7558      0.96858
     23       6.7558      0.96858
     24       9.8154     -0.00000
     25      11.3623     -0.00000
     26      14.8799      0.00000
     27      14.8799      0.00000
     28      16.4157      0.00000
     29      18.5866      0.00000
     30      19.5500      0.00000

 k-point    24 :       0.4444    0.3333    0.1111
  band No.  band energies     occupation 
      1       1.2052      2.00000
      2       1.9867      2.00000
      3       2.8194      2.00000
      4       2.9459      2.00000
      5       3.3961      2.00000
      6       3.4508      2.00000
      7       3.4556      2.00000
      8       3.5645      2.00000
      9       3.6577      2.00000
     10       3.7726      2.00000
     11       3.8224      2.00000
     12       3.9690      2.00000
     13       4.2903      2.00000
     14       4.4220      2.00000
     15       4.4821      2.00000
     16       4.5035      2.00000
     17       4.7058      2.00000
     18       4.9045      2.00000
     19       5.0339      2.00000
     20       5.0457      2.00000
     21       5.4039      2.00000
     22       5.8789      2.00000
     23       7.5578     -0.00000
     24       8.5815     -0.00000
     25      12.2683      0.00000
     26      13.4619      0.00000
     27      15.8894      0.00000
     28      17.1277      0.00000
     29      17.2225      0.00000
     30      18.2801      0.00000

 k-point    25 :       0.4444    0.4444    0.1111
  band No.  band energies     occupation 
      1       1.8233      2.00000
      2       2.3965      2.00000
      3       2.3965      2.00000
      4       2.7160      2.00000
      5       3.5855      2.00000
      6       3.6132      2.00000
      7       3.6132      2.00000
      8       3.6158      2.00000
      9       3.7235      2.00000
     10       3.7235      2.00000
     11       3.7427      2.00000
     12       3.8788      2.00000
     13       4.2769      2.00000
     14       4.3604      2.00000
     15       4.3604      2.00000
     16       4.3743      2.00000
     17       4.7348      2.00000
     18       4.8707      2.00000
     19       4.8707      2.00000
     20       4.9281      2.00000
     21       5.8224      2.00000
     22       6.4851      2.06773
     23       6.4851      2.06773
     24       7.3553     -0.00017
     25      13.2474      0.00000
     26      14.4560      0.00000
     27      14.4560      0.00000
     28      15.6792      0.00000
     29      18.0856      0.00000
     30      19.1982      0.00000

 k-point    26 :       0.2222    0.2222    0.2222
  band No.  band energies     occupation 
      1      -0.4264      2.00000
      2       2.6772      2.00000
      3       2.6772      2.00000
      4       2.6772      2.00000
      5       3.1148      2.00000
      6       3.1148      2.00000
      7       3.1148      2.00000
      8       3.7548      2.00000
      9       4.1134      2.00000
     10       4.1134      2.00000
     11       4.1134      2.00000
     12       4.1202      2.00000
     13       4.1202      2.00000
     14       4.6660      2.00000
     15       4.6660      2.00000
     16       4.6660      2.00000
     17       4.7442      2.00000
     18       4.7442      2.00000
     19       5.2719      2.00000
     20       5.2719      2.00000
     21       5.2719      2.00000
     22       7.7881     -0.00000
     23       7.7881     -0.00000
     24       7.7881     -0.00000
     25      13.8684      0.00000
     26      13.8684      0.00000
     27      13.8684      0.00000
     28      17.8767      0.00000
     29      17.8767      0.00000
     30      17.8767      0.00000

 k-point    27 :       0.3333    0.2222    0.2222
  band No.  band energies     occupation 
      1       0.1914      2.00000
      2       2.4010      2.00000
      3       2.8109      2.00000
      4       2.8109      2.00000
      5       3.2626      2.00000
      6       3.2626      2.00000
      7       3.2785      2.00000
      8       3.7050      2.00000
      9       3.9277      2.00000
     10       3.9277      2.00000
     11       3.9459      2.00000
     12       4.1046      2.00000
     13       4.1400      2.00000
     14       4.4888      2.00000
     15       4.5516      2.00000
     16       4.5516      2.00000
     17       4.7600      2.00000
     18       4.8985      2.00000
     19       5.2302      2.00000
     20       5.2302      2.00000
     21       5.2489      2.00000
     22       6.4272      2.04387
     23       8.4521     -0.00000
     24       8.4521     -0.00000
     25      12.2798      0.00000
     26      12.2798      0.00000
     27      14.6348      0.00000
     28      18.3533      0.00000
     29      18.4408      0.00000
     30      18.4408      0.00000

 k-point    28 :       0.4444    0.2222    0.2222
  band No.  band energies     occupation 
      1       0.9744      2.00000
      2       1.7863      2.00000
      3       2.9058      2.00000
      4       2.9058      2.00000
      5       3.3539      2.00000
      6       3.3539      2.00000
      7       3.4562      2.00000
      8       3.6030      2.00000
      9       3.8428      2.00000
     10       3.8428      2.00000
     11       3.9243      2.00000
     12       4.0196      2.00000
     13       4.2100      2.00000
     14       4.3299      2.00000
     15       4.4713      2.00000
     16       4.4713      2.00000
     17       4.9850      2.00000
     18       5.0484      2.00000
     19       5.1710      2.00000
     20       5.1842      2.00000
     21       5.1842      2.00000
     22       5.5089      2.00000
     23       9.1480     -0.00000
     24       9.1480     -0.00000
     25      11.1187     -0.00000
     26      11.1187     -0.00000
     27      15.6484      0.00000
     28      16.8904      0.00000
     29      19.2397      0.00000
     30      19.2397      0.00000

 k-point    29 :       0.3333    0.3333    0.2222
  band No.  band energies     occupation 
      1       0.7415      2.00000
      2       2.5295      2.00000
      3       2.5295      2.00000
      4       2.7666      2.00000
      5       3.4141      2.00000
      6       3.4611      2.00000
      7       3.4611      2.00000
      8       3.7626      2.00000
      9       3.8801      2.00000
     10       3.8801      2.00000
     11       3.9705      2.00000
     12       4.0704      2.00000
     13       4.1094      2.00000
     14       4.3858      2.00000
     15       4.3858      2.00000
     16       4.4000      2.00000
     17       4.8022      2.00000
     18       5.0432      2.00000
     19       5.2017      2.00000
     20       5.2156      2.00000
     21       5.2156      2.00000
     22       6.9500     -0.04804
     23       6.9500     -0.04804
     24       8.7828     -0.00000
     25      10.9542     -0.00000
     26      13.0161      0.00000
     27      13.0161      0.00000
     28      16.6697      0.00000
     29      19.0275      0.00000
     30      21.3355      0.00000

 k-point    30 :       0.4444    0.3333    0.2222
  band No.  band energies     occupation 
      1       1.4042      2.00000
      2       2.0447      2.00000
      3       2.6277      2.00000
      4       2.7032      2.00000
      5       3.5304      2.00000
      6       3.5625      2.00000
      7       3.6710      2.00000
      8       3.7763      2.00000
      9       3.8892      2.00000
     10       3.9313      2.00000
     11       3.9808      2.00000
     12       3.9963      2.00000
     13       4.1416      2.00000
     14       4.2402      2.00000
     15       4.3160      2.00000
     16       4.3215      2.00000
     17       4.9330      2.00000
     18       5.1211      2.00000
     19       5.1516      2.00000
     20       5.1546      2.00000
     21       5.3104      2.00000
     22       5.8812      2.00000
     23       7.6506     -0.00000
     24       8.4475     -0.00000
     25      10.8264     -0.00000
     26      11.7060     -0.00000
     27      14.0000      0.00000
     28      15.2188      0.00000
     29      19.8566      0.00000
     30      20.9031      0.00000

 k-point    31 :       0.4444    0.4444    0.2222
  band No.  band energies     occupation 
      1       1.8714      2.00000
      2       2.2874      2.00000
      3       2.2874      2.00000
      4       2.5001      2.00000
      5       3.6918      2.00000
      6       3.7750      2.00000
      7       3.7750      2.00000
      8       3.9191      2.00000
      9       3.9574      2.00000
     10       3.9889      2.00000
     11       3.9889      2.00000
     12       4.0801      2.00000
     13       4.1175      2.00000
     14       4.1926      2.00000
     15       4.1926      2.00000
     16       4.2074      2.00000
     17       4.9294      2.00000
     18       5.0510      2.00000
     19       5.0510      2.00000
     20       5.0770      2.00000
     21       5.7260      2.00000
     22       6.4645      2.06063
     23       6.4645      2.06063
     24       7.3340     -0.00031
     25      11.5324     -0.00000
     26      12.6218      0.00000
     27      12.6218      0.00000
     28      13.7953      0.00000
     29      20.7195      0.00000
     30      21.8139      0.00000

 k-point    32 :       0.3333    0.3333    0.3333
  band No.  band energies     occupation 
      1       1.1798      2.00000
      2       2.4772      2.00000
      3       2.4772      2.00000
      4       2.4772      2.00000
      5       3.6232      2.00000
      6       3.6232      2.00000
      7       3.6232      2.00000
      8       3.9890      2.00000
      9       4.0463      2.00000
     10       4.0463      2.00000
     11       4.0580      2.00000
     12       4.0580      2.00000
     13       4.0580      2.00000
     14       4.2373      2.00000
     15       4.2373      2.00000
     16       4.2373      2.00000
     17       4.9863      2.00000
     18       4.9863      2.00000
     19       5.2460      2.00000
     20       5.2460      2.00000
     21       5.2460      2.00000
     22       7.2657     -0.00170
     23       7.2657     -0.00170
     24       7.2657     -0.00170
     25      11.5133     -0.00000
     26      11.5133     -0.00000
     27      11.5133     -0.00000
     28      14.9961      0.00000
     29      21.9211      0.00000
     30      21.9211      0.00000

 k-point    33 :       0.4444    0.3333    0.3333
  band No.  band energies     occupation 
      1       1.6658      2.00000
      2       2.1104      2.00000
      3       2.4430      2.00000
      4       2.4430      2.00000
      5       3.7046      2.00000
      6       3.7046      2.00000
      7       3.8334      2.00000
      8       3.9775      2.00000
      9       4.0477      2.00000
     10       4.1140      2.00000
     11       4.1452      2.00000
     12       4.1593      2.00000
     13       4.1593      2.00000
     14       4.1717      2.00000
     15       4.2407      2.00000
     16       4.2407      2.00000
     17       5.1326      2.00000
     18       5.2089      2.00000
     19       5.2094      2.00000
     20       5.2094      2.00000
     21       5.2230      2.00000
     22       6.0083      2.00000
     23       7.5811     -0.00000
     24       7.5811     -0.00000
     25      10.5761     -0.00000
     26      10.5761     -0.00000
     27      12.4119      0.00000
     28      13.5761      0.00000
     29      22.7097      0.00000
     30      22.7097      0.00000

 k-point    34 :       0.4444    0.4444    0.3333
  band No.  band energies     occupation 
      1       1.9323      2.00000
      2       2.1878      2.00000
      3       2.1878      2.00000
      4       2.2950      2.00000
      5       3.8148      2.00000
      6       3.8584      2.00000
      7       3.8584      2.00000
      8       3.9552      2.00000
      9       4.0057      2.00000
     10       4.0509      2.00000
     11       4.0509      2.00000
     12       4.0660      2.00000
     13       4.4728      2.00000
     14       4.4728      2.00000
     15       4.4864      2.00000
     16       4.5494      2.00000
     17       5.0923      2.00000
     18       5.1855      2.00000
     19       5.1855      2.00000
     20       5.1874      2.00000
     21       5.5539      2.00000
     22       6.4117      2.03694
     23       6.4117      2.03694
     24       7.0629     -0.05037
     25      10.4705     -0.00000
     26      11.1925     -0.00000
     27      11.1925     -0.00000
     28      12.2249      0.00000
     29      23.5444      0.00000
     30      24.5514      0.00000

 k-point    35 :       0.4444    0.4444    0.4444
  band No.  band energies     occupation 
      1       2.0135      2.00000
      2       2.1313      2.00000
      3       2.1313      2.00000
      4       2.1313      2.00000
      5       3.9105      2.00000
      6       3.9105      2.00000
      7       3.9105      2.00000
      8       3.9574      2.00000
      9       3.9574      2.00000
     10       3.9785      2.00000
     11       3.9785      2.00000
     12       3.9785      2.00000
     13       4.8967      2.00000
     14       4.8967      2.00000
     15       4.8967      2.00000
     16       5.1977      2.00000
     17       5.1977      2.00000
     18       5.2306      2.00000
     19       5.2306      2.00000
     20       5.2306      2.00000
     21       5.4602      2.00000
     22       6.3322      2.01146
     23       6.3322      2.01146
     24       6.3322      2.01146
     25      10.3707     -0.00000
     26      10.3707     -0.00000
     27      10.3707     -0.00000
     28      11.0429     -0.00000
     29      26.3126      0.00000
     30      26.3126      0.00000


--------------------------------------------------------------------------------------------------------


 soft charge-density along one line, spin component           1
         0         1         2         3         4         5         6         7         8         9
x    15.9069    0.0000   -0.0000   -0.0000    0.8508    0.0000   -0.0000   -0.0000   -0.4290    0.0000
x     0.0000    0.0000    0.0521   -0.0000    0.0000    0.0000    0.0000    0.0000
y    15.9069    0.0000   -0.0000   -0.0000    0.8508    0.0000   -0.0000   -0.0000   -0.4290    0.0000
y     0.0000    0.0000    0.0521   -0.0000    0.0000    0.0000    0.0000    0.0000
z    15.9069    0.0000   -0.0000   -0.0000    0.8508    0.0000   -0.0000   -0.0000   -0.4290    0.0000
z     0.0000    0.0000    0.0521   -0.0000    0.0000    0.0000    0.0000    0.0000
 total charge-density along one line
x    44.0002    0.0000   -0.0000    0.0000   19.2530   -0.0000   -0.0000    0.0000    3.8708    0.0000
x    -0.0000   -0.0000    0.0221    0.0000    0.0000   -0.0000    0.0176   -0.0000   -0.0000   -0.0000
x    -0.0049    0.0000   -0.0000   -0.0000    0.0020    0.0000   -0.0000   -0.0000   -0.0013    0.0000
x     0.0000    0.0000    0.0012    0.0000
y    44.0002    0.0000   -0.0000   -0.0000   19.2530    0.0000   -0.0000   -0.0000    3.8708    0.0000
y     0.0000   -0.0000    0.0221    0.0000    0.0000   -0.0000    0.0176    0.0000    0.0000   -0.0000
y    -0.0049    0.0000    0.0000   -0.0000    0.0020    0.0000    0.0000   -0.0000   -0.0013    0.0000
y     0.0000   -0.0000    0.0012    0.0000
z    44.0002    0.0000   -0.0000    0.0000   19.2530    0.0000   -0.0000    0.0000    3.8708   -0.0000
z    -0.0000   -0.0000    0.0221   -0.0000   -0.0000    0.0000    0.0176    0.0000   -0.0000    0.0000
z    -0.0049   -0.0000   -0.0000   -0.0000    0.0020    0.0000   -0.0000    0.0000   -0.0013    0.0000
z    -0.0000    0.0000    0.0012    0.0000
 
 pseudopotential strength for first ion, spin component:           1
 -3.366   0.000  -0.000   0.000  -0.000  -4.368  -0.000   0.000
  0.000  -3.366   0.000   0.000   0.000  -0.000  -4.368  -0.000
 -0.000   0.000  -3.351  -0.000  -0.000   0.000  -0.000  -4.379
  0.000   0.000  -0.000  -3.366   0.000  -0.000  -0.000   0.000
 -0.000   0.000  -0.000   0.000  -3.351   0.000  -0.000   0.000
 -4.368  -0.000   0.000  -0.000   0.000  10.041   0.000  -0.000
 -0.000  -4.368  -0.000  -0.000  -0.000   0.000  10.041   0.000
  0.000  -0.000  -4.379   0.000   0.000  -0.000   0.000  10.050
 -0.000  -0.000   0.000  -4.368  -0.000   0.000   0.000   0.000
  0.000  -0.000   0.000  -0.000  -4.379  -0.000   0.000  -0.000
 -0.000   0.000   0.000  -0.000   0.000  -0.000   0.000  -0.000
 -0.000   0.000   0.000  -0.000   0.000  -0.000   0.000  -0.000
  0.000  -0.000   0.000  -0.000   0.000  -0.000  -0.000  -0.000
 -0.000  -0.000  -0.000   0.000   0.000  -0.000  -0.000   0.000
 -0.000  -0.000  -0.000  -0.000   0.000  -0.000  -0.000  -0.000
  0.000  -0.000   0.000   0.000   0.000   0.000  -0.000  -0.000
  0.000  -0.000  -0.000   0.000  -0.000  -0.000  -0.000   0.000
 -0.000   0.000  -0.000  -0.000   0.000  -0.000  -0.000  -0.000
 total augmentation occupancy for first ion, spin component:           1
  1.904  -0.000   0.000  -0.000  -0.000  -0.020  -0.000  -0.000  -0.000   0.000   0.000  -0.000   0.000  -0.000   0.000   0.000
  0.000   1.904   0.000   0.000  -0.000  -0.000  -0.020  -0.000   0.000  -0.000   0.000   0.000  -0.000  -0.000   0.000   0.000
  0.000  -0.000   1.924   0.000  -0.000   0.000   0.000  -0.037  -0.000   0.000  -0.000  -0.000   0.000  -0.000   0.000  -0.000
  0.000   0.000   0.000   1.904   0.000   0.000  -0.000  -0.000  -0.020   0.000  -0.000  -0.000  -0.000   0.000  -0.000  -0.000
 -0.000   0.000  -0.000  -0.000   1.924  -0.000  -0.000   0.000  -0.000  -0.037  -0.000  -0.000  -0.000   0.000   0.000  -0.000
 -0.020   0.000  -0.000   0.000   0.000   0.015   0.000  -0.000  -0.000  -0.000  -0.000  -0.000   0.000  -0.000  -0.000  -0.000
 -0.000  -0.020   0.000  -0.000  -0.000  -0.000   0.015   0.000   0.000   0.000   0.000   0.000  -0.000  -0.000  -0.000   0.000
 -0.000  -0.000  -0.037  -0.000  -0.000  -0.000   0.000   0.014   0.000  -0.000   0.000   0.000  -0.000  -0.000   0.000  -0.000
 -0.000  -0.000  -0.000  -0.020  -0.000   0.000  -0.000   0.000   0.015  -0.000  -0.000   0.000   0.000  -0.000  -0.000   0.000
  0.000  -0.000   0.000   0.000  -0.037  -0.000  -0.000  -0.000  -0.000   0.014   0.000  -0.000  -0.000   0.000   0.000   0.000
  0.000   0.000  -0.000  -0.000  -0.000  -0.000   0.000  -0.000  -0.000   0.000   1.690  -0.156   0.000   0.000  -0.000  -0.000
  0.000  -0.000  -0.000  -0.000  -0.000  -0.000   0.000   0.000   0.000   0.000  -0.156   0.019   0.000   0.000   0.000   0.000
  0.000  -0.000  -0.000  -0.000  -0.000   0.000  -0.000  -0.000   0.000  -0.000   0.000   0.000   0.211  -0.000  -0.000  -0.014
 -0.000  -0.000  -0.000   0.000   0.000  -0.000  -0.000  -0.000  -0.000   0.000   0.000   0.000   0.000   0.211   0.000  -0.000
  0.000   0.000  -0.000  -0.000   0.000  -0.000  -0.000  -0.000  -0.000  -0.000  -0.000   0.000  -0.000  -0.000   0.211   0.000
  0.000   0.000   0.000  -0.000  -0.000  -0.000   0.000   0.000   0.000  -0.000  -0.000   0.000  -0.014  -0.000  -0.000   0.001
  0.000  -0.000  -0.000  -0.000   0.000  -0.000   0.000  -0.000   0.000  -0.000   0.000   0.000   0.000  -0.014   0.000  -0.000
 -0.000   0.000   0.000  -0.000  -0.000  -0.000   0.000   0.000  -0.000  -0.000  -0.000   0.000  -0.000   0.000  -0.014   0.000


------------------------ aborting loop because EDIFF is reached ----------------------------------------


    CHARGE:  cpu time    0.0319: real time    0.0319
    FORLOC:  cpu time    0.0006: real time    0.0006
    FORNL :  cpu time    0.1480: real time    0.1480
    STRESS:  cpu time    0.1774: real time    0.1774
    FORCOR:  cpu time    0.0073: real time    0.0073
    FORHAR:  cpu time    0.0017: real time    0.0017
    MIXING:  cpu time    0.0004: real time    0.0004

  FORCE on cell =-STRESS in cart. coord.  units (eV):
  Direction    XX          YY          ZZ          XY          YZ          ZX
  --------------------------------------------------------------------------------------
  Alpha Z   232.02226   232.02226   232.02226
  Ewald   -1441.48172 -1441.48172 -1441.48172     0.00000     0.00000    -0.00000
  Hartree   469.53002   469.53002   469.53002    -0.00000    -0.00000    -0.00000
  E(xc)    -256.88550  -256.88550  -256.88550    -0.00000    -0.00000    -0.00000
  Local     346.50362   346.50362   346.50362     0.00000    -0.00000    -0.00000
  n-local   -82.24989   -90.58543   -91.98694     0.40868     2.63531     1.14346
  augment   379.08604   379.08604   379.08604     0.00000     0.00000     0.00000
  Kinetic   364.84547   356.61183   351.10355    -3.43571     0.03434    -1.11504
  Fock        0.00000     0.00000     0.00000     0.00000     0.00000     0.00000
  -------------------------------------------------------------------------------------
  Total      -1.97908    -1.97908    -1.97908     0.00000     0.00000     0.00000
  in kB     -62.87415   -62.87415   -62.87415     0.00000     0.00000     0.00000
  external pressure =      -62.87 kB  Pullay stress =        0.00 kB


 VOLUME and BASIS-vectors are now :
 -----------------------------------------------------------------------------
  energy-cutoff  :      320.00
  volume of cell :       50.43
      direct lattice vectors                 reciprocal lattice vectors
     3.694600757  0.000000000  0.000000000     0.270665240  0.000000000  0.000000000
     0.000000000  3.694600757  0.000000000     0.000000000  0.270665240  0.000000000
     0.000000000  0.000000000  3.694600757     0.000000000  0.000000000  0.270665240

  length of vectors
     3.694600757  3.694600757  3.694600757     0.270665240  0.270665240  0.270665240


 FORCES acting on ions
    electron-ion (+dipol)            ewald-force                    non-local-force                 convergence-correction
 -----------------------------------------------------------------------------------------------
   -.937E-13 0.243E-13 0.152E-13   0.769E-14 -.517E-14 -.161E-13   -.281E-23 0.387E-23 -.357E-23   -.347E-13 -.482E-14 0.216E-13
   0.186E-12 0.299E-12 0.153E-13   0.286E-13 0.146E-13 -.162E-13   -.137E-23 -.335E-23 0.356E-23   -.509E-13 -.143E-13 0.244E-13
   0.184E-12 0.193E-13 0.289E-12   -.163E-13 -.144E-13 0.163E-13   0.336E-23 -.305E-24 -.113E-23   -.496E-13 0.360E-14 -.198E-14
   -.846E-13 0.293E-12 0.289E-12   -.170E-13 0.545E-14 0.162E-13   -.263E-23 -.251E-23 0.315E-23   -.614E-13 0.359E-14 0.295E-14
 -----------------------------------------------------------------------------------------------
   0.192E-12 0.636E-12 0.608E-12   0.295E-14 0.556E-15 0.122E-15   -.345E-23 -.230E-23 0.200E-23   -.197E-12 -.119E-13 0.469E-13
 
 
 POSITION                                       TOTAL-FORCE (eV/Angst)
 -----------------------------------------------------------------------------------
      0.00000      0.00000      0.00000         0.000000      0.000000     -0.000000
      1.84730      1.84730      0.00000        -0.000000      0.000000     -0.000000
      1.84730      0.00000      1.84730         0.000000     -0.000000      0.000000
      0.00000      1.84730      1.84730         0.000000      0.000000      0.000000
 -----------------------------------------------------------------------------------
    total drift:                               -0.000000      0.000000      0.000000


--------------------------------------------------------------------------------------------------------



  FREE ENERGIE OF THE ION-ELECTRON SYSTEM (eV)
  ---------------------------------------------------
  free  energy   TOTEN  =       -14.90531368 eV

  energy  without entropy=      -14.90731937  energy(sigma->0) =      -14.90598224
 


--------------------------------------------------------------------------------------------------------


    POTLOK:  cpu time    0.0105: real time    0.0105


--------------------------------------------------------------------------------------------------------


 writing wavefunctions
     LOOP+:  cpu time    2.0851: real time    2.1035
    4ORBIT:  cpu time    0.0000: real time    0.0000

 total amount of memory used by VASP MPI-rank0    48212. kBytes
=======================================================================

   base      :      30000. kBytes
   nonl-proj :       3526. kBytes
   grid      :       1806. kBytes
   one-center:         62. kBytes
   wavefun   :      12818. kBytes
 
  
  
 General timing and accounting informations for this job:
 ========================================================
  
                  Total CPU time used (sec):        2.257
                            User time (sec):        2.237
                          System time (sec):        0.020
                         Elapsed time (sec):        2.267
  
                   Maximum memory used (kb):       54684.
                   Average memory used (kb):          N/A
  
                          Minor page faults:         7161
                          Major page faults:            0
                 Voluntary context switches:           30
