unknown system                          
   1.00000000000000     
     2.283400    0.000000    0.000000
    -1.141700    1.977482    0.000000
     0.000000    0.000000    4.138540
   Fe
     2
Direct
  0.000000  0.000000  0.000000
  0.333333  0.666667  0.500000
 
   20   20   36
 0.15689415895E+03 0.14897848781E+03 0.12761652149E+03 0.98715653161E+02 0.68973691090E+02
 0.43592502063E+02 0.25385795201E+02 0.14832457545E+02 0.10408478887E+02 0.92196692878E+01
 0.88966790942E+01 0.92197318983E+01 0.10408537428E+02 0.14832461151E+02 0.25385766864E+02
 0.43592500471E+02 0.68973732240E+02 0.98715695731E+02 0.12761652818E+03 0.14897847296E+03
 0.14898257682E+03 0.14897847253E+03 0.13437237918E+03 0.10940388619E+03 0.80448865149E+02
 0.53434492763E+02 0.32288356819E+02 0.18590887558E+02 0.11766979016E+02 0.95163774029E+01
 0.88945790847E+01 0.88943675006E+01 0.95161712519E+01 0.11767134042E+02 0.18590630595E+02
 0.32286966350E+02 0.53433506283E+02 0.80451621784E+02 0.10941167812E+03 0.13438151619E+03
 0.12762259688E+03 0.13435278378E+03 0.12761652705E+03 0.10940390251E+03 0.84679496520E+02
 0.59172197333E+02 0.37451680460E+02 0.22051931490E+02 0.13366521322E+02 0.98948688330E+01
 0.89156203621E+01 0.86079006990E+01 0.89151515452E+01 0.98948903348E+01 0.13366932528E+02
 0.22051113214E+02 0.37449069775E+02 0.59170393926E+02 0.84682075638E+02 0.10941074187E+03
 0.98712926905E+02 0.10934620272E+03 0.10934712906E+03 0.98715684481E+02 0.80448856316E+02
 0.59172181659E+02 0.39366085927E+02 0.24127560284E+02 0.14670373307E+02 0.10321884995E+02
 0.89483879675E+01 0.83972490904E+01 0.83970235259E+01 0.89482212888E+01 0.10322492775E+02
 0.14671352412E+02 0.24127415316E+02 0.39363727711E+02 0.59168122644E+02 0.80444749103E+02
 0.68965034661E+02 0.80363764829E+02 0.84564986080E+02 0.80370600739E+02 0.68973690797E+02
 0.53434461976E+02 0.37451692897E+02 0.24127574215E+02 0.15172880695E+02 0.10613398180E+02
 0.89787365095E+01 0.82705335257E+01 0.80187606703E+01 0.82704825654E+01 0.89787617028E+01
 0.10614180784E+02 0.15175077518E+02 0.24130184142E+02 0.37451698661E+02 0.53429402429E+02
 0.43591513087E+02 0.53362881656E+02 0.59047578198E+02 0.59049841961E+02 0.53366969481E+02
 0.43592486638E+02 0.32288361960E+02 0.22051959588E+02 0.14670357287E+02 0.10613386495E+02
 0.89928710008E+01 0.82145421927E+01 0.78002971801E+01 0.78004417935E+01 0.82143531157E+01
 0.89919036476E+01 0.10613193400E+02 0.14673133854E+02 0.22057140706E+02 0.32292057588E+02
 0.25391835557E+02 0.32260837267E+02 0.37377042028E+02 0.39268935636E+02 0.37374445271E+02
 0.32255781134E+02 0.25385782464E+02 0.18590903340E+02 0.13366511291E+02 0.10321860874E+02
 0.89787561579E+01 0.82145517558E+01 0.77304094676E+01 0.75692330473E+01 0.77308212213E+01
 0.82137733503E+01 0.89761328166E+01 0.10319316331E+02 0.13366932528E+02 0.18595142067E+02
 0.14832309438E+02 0.18598995948E+02 0.22046299188E+02 0.24103388987E+02 0.24100643923E+02
 0.22040312456E+02 0.18594495322E+02 0.14832448853E+02 0.11766989115E+02 0.98948539733E+01
 0.89484027266E+01 0.82705533927E+01 0.78002738388E+01 0.75692249997E+01 0.75697923793E+01
 0.78012774633E+01 0.82703308517E+01 0.89456041767E+01 0.98900019407E+01 0.11762878474E+02
 0.10402030278E+02 0.11786983416E+02 0.13403780509E+02 0.14712631490E+02 0.15214131126E+02
 0.14710862486E+02 0.13403775253E+02 0.11791201838E+02 0.10408496298E+02 0.95163831586E+01
 0.89156124899E+01 0.83972616728E+01 0.80187414820E+01 0.78004255525E+01 0.77308479244E+01
 0.78012845637E+01 0.80209510997E+01 0.83997923518E+01 0.89155900019E+01 0.95120673975E+01
 0.92195000628E+01 0.95422625303E+01 0.99473050303E+01 0.10396477756E+02 0.10700454203E+02
 0.10701430342E+02 0.10399634365E+02 0.99521831442E+01 0.95463540862E+01 0.92196876542E+01
 0.88945592962E+01 0.86078965724E+01 0.83970298373E+01 0.82704732710E+01 0.82143759730E+01
 0.82137866446E+01 0.82703016902E+01 0.83997860809E+01 0.86131726423E+01 0.88987031905E+01
 0.89027477872E+01 0.89302556030E+01 0.89785202606E+01 0.90369537104E+01 0.90879015178E+01
 0.91111347797E+01 0.90904912506E+01 0.90395573043E+01 0.89781283052E+01 0.89259750546E+01
 0.88966712366E+01 0.88943528185E+01 0.89151740331E+01 0.89482256550E+01 0.89787561579E+01
 0.89919089751E+01 0.89761076233E+01 0.89455937836E+01 0.89156203621E+01 0.88987082970E+01
 0.92194701059E+01 0.89302522218E+01 0.86780254733E+01 0.84980344349E+01 0.83969333454E+01
 0.83569908984E+01 0.83575550448E+01 0.83970625638E+01 0.84952799451E+01 0.86728157817E+01
 0.89261995944E+01 0.92197203078E+01 0.95161839767E+01 0.98949014414E+01 0.10322467674E+02
 0.10614174697E+02 0.10613198998E+02 0.10319315351E+02 0.98900279071E+01 0.95120743666E+01
 0.10402005271E+02 0.95422596686E+01 0.89785478364E+01 0.84980354955E+01 0.81533616305E+01
 0.79593451047E+01 0.78985330663E+01 0.79585256160E+01 0.81511754247E+01 0.84954791271E+01
 0.89785332282E+01 0.95465859217E+01 0.10408529831E+02 0.11767140829E+02 0.13366916214E+02
 0.14671344670E+02 0.15175104658E+02 0.14673142133E+02 0.13366926245E+02 0.11762875162E+02
 0.14832316766E+02 0.11786990408E+02 0.99473271080E+01 0.90369518421E+01 0.83969100704E+01
 0.79593466790E+01 0.77468223119E+01 0.77462819163E+01 0.79583848367E+01 0.83971209664E+01
 0.90396727257E+01 0.99520920879E+01 0.11791061059E+02 0.14832459787E+02 0.18590636502E+02
 0.22051112984E+02 0.24127433436E+02 0.24130188331E+02 0.22057112378E+02 0.18595132191E+02
 0.25391863894E+02 0.18599006052E+02 0.13403772024E+02 0.10396468027E+02 0.90878842021E+01
 0.83569976183E+01 0.78985508434E+01 0.77462781256E+01 0.78981281433E+01 0.83577592700E+01
 0.90904912506E+01 0.10398999122E+02 0.13403336796E+02 0.18594747015E+02 0.25385782464E+02
 0.32286971169E+02 0.37449064011E+02 0.39363720508E+02 0.37451680460E+02 0.32292057266E+02
 0.43591529786E+02 0.32260833623E+02 0.22046272472E+02 0.14712622861E+02 0.10700463795E+02
 0.91111461580E+01 0.83575664879E+01 0.79585151816E+01 0.79583728280E+01 0.83577639931E+01
 0.91121324143E+01 0.10700689901E+02 0.14709890210E+02 0.22041133019E+02 0.32257161029E+02
 0.43592501745E+02 0.53433489699E+02 0.59170385110E+02 0.59168129501E+02 0.53429416632E+02
 0.68965025970E+02 0.53362862225E+02 0.37377028521E+02 0.24103396554E+02 0.15214154535E+02
 0.10701436072E+02 0.90904806293E+01 0.83970508497E+01 0.81511701262E+01 0.83971325273E+01
 0.90904979450E+01 0.10700686039E+02 0.15211973156E+02 0.24100795637E+02 0.37377041698E+02
 0.53367956864E+02 0.68973723256E+02 0.80451625142E+02 0.84682092947E+02 0.80444761295E+02
 0.98712909305E+02 0.80363750824E+02 0.59047589092E+02 0.39268957899E+02 0.24100652698E+02
 0.14710851281E+02 0.10399615290E+02 0.90395549188E+01 0.84952916395E+01 0.84954897608E+01
 0.90396722085E+01 0.10398989777E+02 0.14709887634E+02 0.24100796844E+02 0.39271271873E+02
 0.59051598434E+02 0.80367856883E+02 0.98715709451E+02 0.10941168647E+03 0.10941073390E+03
 0.12762259019E+03 0.10934621436E+03 0.84565003077E+02 0.59049855775E+02 0.37374432094E+02
 0.22040289656E+02 0.13403772024E+02 0.99521968675E+01 0.89781429134E+01 0.86728157526E+01
 0.89785202606E+01 0.99520837335E+01 0.13403342052E+02 0.22041136935E+02 0.37377042028E+02
 0.59051601353E+02 0.84562357193E+02 0.10933934969E+03 0.12761652705E+03 0.13438149357E+03
 0.14898257980E+03 0.13435281255E+03 0.10934713290E+03 0.80370586678E+02 0.53366954223E+02
 0.32255769348E+02 0.18594510647E+02 0.11791223185E+02 0.95463516669E+01 0.89259610416E+01
 0.89261889626E+01 0.95465863641E+01 0.11791075415E+02 0.18594752235E+02 0.32257152887E+02
 0.53367961038E+02 0.80367856827E+02 0.10933934189E+03 0.13434365167E+03 0.14897846067E+03
 0.14883787957E+03 0.14133441698E+03 0.12107228043E+03 0.93634710152E+02 0.65386613222E+02
 0.41309804654E+02 0.24114516191E+02 0.14241717718E+02 0.10171253852E+02 0.90677838880E+01
 0.87513841960E+01 0.90678439462E+01 0.10171309992E+02 0.14241720989E+02 0.24114488397E+02
 0.41309802080E+02 0.65386651636E+02 0.93634750470E+02 0.12107228700E+03 0.14133440308E+03
 0.14133824686E+03 0.14133440196E+03 0.12748039772E+03 0.10377956887E+03 0.76276603749E+02
 0.50627929515E+02 0.30608286315E+02 0.17731033391E+02 0.11401282618E+02 0.93458679883E+01
 0.87431448498E+01 0.87429373175E+01 0.93456654967E+01 0.11401449492E+02 0.17730846774E+02
 0.30607036631E+02 0.50627025308E+02 0.76279175079E+02 0.10378685172E+03 0.12748895116E+03
 0.12107797331E+03 0.12746543176E+03 0.12107228589E+03 0.10377958489E+03 0.80291936893E+02
 0.56065268400E+02 0.35478034913E+02 0.20961457668E+02 0.12862905894E+02 0.96812419244E+01
 0.87600637156E+01 0.84602252628E+01 0.87595996313E+01 0.96812485061E+01 0.12863314778E+02
 0.20960734527E+02 0.35475613191E+02 0.56063568629E+02 0.80294329625E+02 0.10378598075E+03
 0.93632167158E+02 0.10373460007E+03 0.10373546234E+03 0.93634740904E+02 0.76276595068E+02
 0.56065253030E+02 0.37285532792E+02 0.22904185335E+02 0.14061785578E+02 0.10059364762E+02
 0.87904446314E+01 0.82542544579E+01 0.82540342993E+01 0.87902674003E+01 0.10059910829E+02
 0.14062681484E+02 0.22904028071E+02 0.37283302528E+02 0.56061437201E+02 0.76272747995E+02
 0.65378525764E+02 0.76212063287E+02 0.80205500703E+02 0.76218456386E+02 0.65386612939E+02
 0.50627899328E+02 0.35478047131E+02 0.22904198983E+02 0.14525187135E+02 0.10319175145E+02
 0.88185561731E+01 0.81312510182E+01 0.78880797826E+01 0.81312168590E+01 0.88185808254E+01
 0.10319878079E+02 0.14527197391E+02 0.22906611383E+02 0.35478052747E+02 0.50623181535E+02
 0.41308898037E+02 0.50580645123E+02 0.55980062819E+02 0.55982187114E+02 0.50584473854E+02
 0.41309789541E+02 0.30608291366E+02 0.20961485202E+02 0.14061769873E+02 0.10319163711E+02
 0.88308169553E+01 0.80771773242E+01 0.76778989081E+01 0.76780555817E+01 0.80770411466E+01
 0.88299315087E+01 0.10318974036E+02 0.14064360753E+02 0.20966353310E+02 0.30611784447E+02
 0.24120174713E+02 0.30604239903E+02 0.35446186046E+02 0.37238661059E+02 0.35443776087E+02
 0.30599524858E+02 0.24114503677E+02 0.17731048872E+02 0.12862896065E+02 0.10059341140E+02
 0.88185753892E+01 0.80771866656E+01 0.76108488906E+01 0.74562067110E+01 0.76112571331E+01
 0.80764865907E+01 0.88161412695E+01 0.10056978030E+02 0.12863314778E+02 0.17735040034E+02
 0.14241557369E+02 0.17759676538E+02 0.20995568783E+02 0.22931603160E+02 0.22929041688E+02
 0.20989987248E+02 0.17755492646E+02 0.14241709215E+02 0.11401292527E+02 0.96812273345E+01
 0.87904590527E+01 0.81312704449E+01 0.76778760966E+01 0.74561988549E+01 0.74567198181E+01
 0.76787960042E+01 0.81310532388E+01 0.87878477088E+01 0.96766973862E+01 0.11397442098E+02
 0.10165189322E+02 0.11438952309E+02 0.12934603789E+02 0.14151006515E+02 0.14618131119E+02
 0.14149338992E+02 0.12934598610E+02 0.11442924197E+02 0.10171270918E+02 0.93458735710E+01
 0.87600559893E+01 0.82542668085E+01 0.78880610397E+01 0.76780397168E+01 0.76112832439E+01
 0.76788029508E+01 0.78900849852E+01 0.82566176109E+01 0.87600339846E+01 0.93418217237E+01
 0.90676176312E+01 0.93870459052E+01 0.97633641990E+01 0.10175017269E+02 0.10453599429E+02
 0.10454493496E+02 0.10177932712E+02 0.97679066423E+01 0.93908782195E+01 0.90678018662E+01
 0.87431254835E+01 0.84602212981E+01 0.82540404935E+01 0.81312077502E+01 0.80770634937E+01
 0.80764995964E+01 0.81310247032E+01 0.82566114545E+01 0.84651663179E+01 0.87470074055E+01
 0.87570705125E+01 0.87925082415E+01 0.88494057017E+01 0.89154475993E+01 0.89704075159E+01
 0.89938154751E+01 0.89728106391E+01 0.89178552251E+01 0.88490156930E+01 0.87884902480E+01
 0.87513765357E+01 0.87429229796E+01 0.87596216360E+01 0.87902716214E+01 0.88185753892E+01
 0.88299367236E+01 0.88161166172E+01 0.87878375087E+01 0.87600637156E+01 0.87470124340E+01
 0.90675882619E+01 0.87925049005E+01 0.85554381750E+01 0.83886257098E+01 0.82966647041E+01
 0.82611914788E+01 0.82617310961E+01 0.82968064717E+01 0.83860550279E+01 0.85505552286E+01
 0.87887096852E+01 0.90678325550E+01 0.93456779449E+01 0.96812593405E+01 0.10059886253E+02
 0.10319872128E+02 0.10318979519E+02 0.10056977076E+02 0.96767228104E+01 0.93418285892E+01
 0.10165164814E+02 0.93870430604E+01 0.88494327685E+01 0.83886267719E+01 0.80601059511E+01
 0.78760480745E+01 0.78185360491E+01 0.78753227637E+01 0.80581041969E+01 0.83862506540E+01
 0.88494184142E+01 0.93911045344E+01 0.10171302550E+02 0.11401456147E+02 0.12863298786E+02
 0.14062673916E+02 0.14527223970E+02 0.14064368890E+02 0.12863308615E+02 0.11397438845E+02
 0.14241564571E+02 0.11438959170E+02 0.97633858596E+01 0.89154458024E+01 0.82966418432E+01
 0.78760496118E+01 0.76724373724E+01 0.76719419835E+01 0.78751696166E+01 0.82968489508E+01
 0.89179845611E+01 0.97678334743E+01 0.11442771050E+02 0.14241719688E+02 0.17730852533E+02
 0.20960734307E+02 0.22904045836E+02 0.22906615499E+02 0.20966325555E+02 0.17735030311E+02
 0.24120202508E+02 0.17759686489E+02 0.12934595440E+02 0.10175007729E+02 0.89703905159E+01
 0.82611980579E+01 0.78185535127E+01 0.76719382502E+01 0.78181333279E+01 0.82618814452E+01
 0.89728106391E+01 0.10177360422E+02 0.12934164257E+02 0.17755675001E+02 0.24114503677E+02
 0.30607041348E+02 0.35475607575E+02 0.37283295455E+02 0.35478034913E+02 0.30611784113E+02
 0.41308914401E+02 0.30604236347E+02 0.20995542548E+02 0.14150998020E+02 0.10453608865E+02
 0.89938266285E+01 0.82617423359E+01 0.78753125056E+01 0.78751578213E+01 0.82618861058E+01
 0.89947295393E+01 0.10453829557E+02 0.14148448739E+02 0.20990713880E+02 0.30600764598E+02
 0.41309803330E+02 0.50627009075E+02 0.56063559972E+02 0.56061443913E+02 0.50623195488E+02
 0.65378517220E+02 0.50580626033E+02 0.35446172802E+02 0.22931610563E+02 0.14618154119E+02
 0.10454499118E+02 0.89728002019E+01 0.82967949902E+01 0.80580989862E+01 0.82968603302E+01
 0.89728172019E+01 0.10453825744E+02 0.14616155786E+02 0.22929205308E+02 0.35446185773E+02
 0.50585377897E+02 0.65386642809E+02 0.76279178379E+02 0.80294346579E+02 0.76272759976E+02
 0.93632149884E+02 0.76212049516E+02 0.55980073547E+02 0.37238682915E+02 0.22929050294E+02
 0.14149328005E+02 0.10177913972E+02 0.89178529237E+01 0.83860665035E+01 0.83862610675E+01
 0.89179840566E+01 0.10177351222E+02 0.14148446247E+02 0.22929206511E+02 0.37240871841E+02
 0.55983843340E+02 0.76215896117E+02 0.93634763947E+02 0.10378685990E+03 0.10378597292E+03
 0.12107796675E+03 0.10373461152E+03 0.80205517419E+02 0.55982200696E+02 0.35443763116E+02
 0.20989964878E+02 0.12934595440E+02 0.97679201299E+01 0.88490300474E+01 0.85505551315E+01
 0.88494057017E+01 0.97678253014E+01 0.12934169435E+02 0.20990717746E+02 0.35446186046E+02
 0.55983846194E+02 0.80203061147E+02 0.10372819161E+03 0.12107228589E+03 0.12748892891E+03
 0.14133824979E+03 0.12746546005E+03 0.10373546612E+03 0.76218442595E+02 0.50584458844E+02
 0.30599513283E+02 0.17755507702E+02 0.11442945128E+02 0.93908758714E+01 0.87884764633E+01
 0.87886992415E+01 0.93911050312E+01 0.11442785120E+02 0.17755680106E+02 0.30600756579E+02
 0.50585381976E+02 0.76215896098E+02 0.10372818395E+03 0.12745688421E+03 0.14133439099E+03
 0.12712783078E+03 0.12072273682E+03 0.10340036671E+03 0.79897653219E+02 0.55697897432E+02
 0.35179268553E+02 0.20745033834E+02 0.12710177317E+02 0.95610982537E+01 0.86517039345E+01
 0.83561577127E+01 0.86517577116E+01 0.95611486995E+01 0.12710180186E+02 0.20745007604E+02
 0.35179263216E+02 0.55697928362E+02 0.79897687422E+02 0.10340037290E+03 0.12072272545E+03
 0.12072586886E+03 0.12072272253E+03 0.10887716947E+03 0.88577353796E+02 0.64997590811E+02
 0.43066035242E+02 0.26123878282E+02 0.15476216128E+02 0.10461430055E+02 0.88871888467E+01
 0.83290419437E+01 0.83288475392E+01 0.88869986143E+01 0.10461624292E+02 0.15476206984E+02
 0.26122995835E+02 0.43065347954E+02 0.64999665381E+02 0.88583269222E+02 0.10888415260E+03
 0.10340502903E+03 0.10887520733E+03 0.10340037188E+03 0.88577368970E+02 0.68428979247E+02
 0.47683556687E+02 0.30191421661E+02 0.18082052300E+02 0.11560068662E+02 0.91232680368E+01
 0.83319500600E+01 0.80558485015E+01 0.83315036575E+01 0.91232366874E+01 0.11560465583E+02
 0.18081575731E+02 0.30189503765E+02 0.47682138492E+02 0.68430875174E+02 0.88582572748E+02
 0.79895601469E+02 0.88567840874E+02 0.88568531864E+02 0.79897682330E+02 0.64997582559E+02
 0.47683542190E+02 0.31706644807E+02 0.19663575589E+02 0.12479480155E+02 0.93801702863E+01
 0.83529598397E+01 0.78612102161E+01 0.78610062728E+01 0.83527581654E+01 0.93805547000E+01
 0.12480156543E+02 0.19663390241E+02 0.31704764256E+02 0.47680384562E+02 0.64994436019E+02
 0.55691337554E+02 0.64990037696E+02 0.68420458614E+02 0.64995240514E+02 0.55697897169E+02
 0.43066006777E+02 0.30191433254E+02 0.19663588421E+02 0.12838275908E+02 0.95594123353E+01
 0.83754858314E+01 0.77467293206E+01 0.75280809450E+01 0.77467374337E+01 0.83755089247E+01
 0.95599076339E+01 0.12839794523E+02 0.19665476194E+02 0.30191438443E+02 0.43062204545E+02
 0.35178579101E+02 0.43085950496E+02 0.47707328884E+02 0.47709076681E+02 0.43089081504E+02
 0.35179254329E+02 0.26123883072E+02 0.18082078210E+02 0.12479465356E+02 0.95594016262E+01
 0.83849481958E+01 0.76968612606E+01 0.73396535705E+01 0.73398382178E+01 0.76968589852E+01
 0.83842793574E+01 0.95592235187E+01 0.12481558381E+02 0.18086099729E+02 0.26126823359E+02
 0.20749663735E+02 0.26184770461E+02 0.30277872894E+02 0.31798770315E+02 0.30275960918E+02
 0.26180969254E+02 0.20745021957E+02 0.15476230739E+02 0.11560059420E+02 0.93801481135E+01
 0.83755038094E+01 0.76968699642E+01 0.72799767836E+01 0.71432555226E+01 0.72803708618E+01
 0.76963747368E+01 0.83735742476E+01 0.93782688805E+01 0.11560465583E+02 0.15479550260E+02
 0.12709989035E+02 0.15562235588E+02 0.18226844923E+02 0.19834500227E+02 0.19832430954E+02
 0.18222348604E+02 0.15558897291E+02 0.12710169359E+02 0.10461439424E+02 0.91232542323E+01
 0.83529732953E+01 0.77467474780E+01 0.73396322794E+01 0.71432482146E+01 0.71436465405E+01
 0.73403311821E+01 0.77465462827E+01 0.83508633639E+01 0.91195879553E+01 0.10458289732E+02
 0.95560740864E+01 0.10549461416E+02 0.11729451632E+02 0.12701583903E+02 0.13077382217E+02
 0.12700192123E+02 0.11729446679E+02 0.10552764438E+02 0.95611143369E+01 0.88871939371E+01
 0.83319427551E+01 0.78612218912E+01 0.75280634762E+01 0.73398234304E+01 0.72803952660E+01
 0.73403376858E+01 0.75295971397E+01 0.78630922254E+01 0.83319221399E+01 0.88838552055E+01
 0.86515479438E+01 0.89731263108E+01 0.92919696999E+01 0.96154044850E+01 0.98317470367E+01
 0.98324247628E+01 0.96176800492E+01 0.92956144598E+01 0.89762604830E+01 0.86517207944E+01
 0.83290237848E+01 0.80558449871E+01 0.78610121234E+01 0.77467288613E+01 0.76968798651E+01
 0.76963869132E+01 0.77465195529E+01 0.78630864009E+01 0.80598981524E+01 0.83322007158E+01
 0.83608138435E+01 0.84192228447E+01 0.85003851795E+01 0.85875404108E+01 0.86562957216E+01
 0.86833374300E+01 0.86582014017E+01 0.85894275184E+01 0.85000060504E+01 0.84159142493E+01
 0.83561506071E+01 0.83288341824E+01 0.83315242727E+01 0.83527619789E+01 0.83755038094E+01
 0.83842842460E+01 0.83735511543E+01 0.83508537217E+01 0.83319500600E+01 0.83322055179E+01
 0.86515202671E+01 0.84192196206E+01 0.82269009242E+01 0.80986882560E+01 0.80335788091E+01
 0.80113356378E+01 0.80118065129E+01 0.80337493983E+01 0.80966103894E+01 0.82228989894E+01
 0.84161180821E+01 0.86517468949E+01 0.88870102697E+01 0.91232467487E+01 0.93805316477E+01
 0.95599020741E+01 0.95592286679E+01 0.93782680011E+01 0.91196118211E+01 0.88838617706E+01
 0.95560510158E+01 0.89731235148E+01 0.85004107791E+01 0.80986893181E+01 0.78181623524E+01
 0.76637641481E+01 0.76161180422E+01 0.76632827245E+01 0.78166465560E+01 0.80967940567E+01
 0.85003971575E+01 0.89764702508E+01 0.95611417121E+01 0.10461630575E+02 0.11560450527E+02
 0.12480149472E+02 0.12839819478E+02 0.12481566107E+02 0.11560459769E+02 0.10458286646E+02
 0.12709995874E+02 0.10549467900E+02 0.92919901570E+01 0.85875388122E+01 0.80335571396E+01
 0.76637655829E+01 0.74867258178E+01 0.74863492447E+01 0.76631012814E+01 0.80337516225E+01
 0.85895887961E+01 0.92955861350E+01 0.10552582995E+02 0.12710179067E+02 0.15476212315E+02
 0.18081575537E+02 0.19663406978E+02 0.19665480098E+02 0.18086073626E+02 0.15479540980E+02
 0.20749689965E+02 0.15562245099E+02 0.11729443675E+02 0.96153954864E+01 0.86562796298E+01
 0.80113418183E+01 0.76161346079E+01 0.74863456774E+01 0.76157269351E+01 0.80118215429E+01
 0.86582014017E+01 0.96172715841E+01 0.11729028196E+02 0.15558904837E+02 0.20745021957E+02
 0.26123000259E+02 0.30189498577E+02 0.31704757552E+02 0.30191421661E+02 0.26126822994E+02
 0.35178594503E+02 0.26184767164E+02 0.18226820073E+02 0.12701575794E+02 0.98317560272E+01
 0.86833479420E+01 0.80118171718E+01 0.76632729750E+01 0.76630900972E+01 0.80118260214E+01
 0.86840316463E+01 0.98319604797E+01 0.12699518072E+02 0.18222831504E+02 0.26181843171E+02
 0.35179264393E+02 0.43065332726E+02 0.47682130289E+02 0.47680390855E+02 0.43062217783E+02
 0.55691329437E+02 0.43085932392E+02 0.30277860407E+02 0.19834507157E+02 0.13077404043E+02
 0.98324300781E+01 0.86581914939E+01 0.80337385826E+01 0.78166415954E+01 0.80337624765E+01
 0.86582075857E+01 0.98319568045E+01 0.13075888836E+02 0.19832622105E+02 0.30277872782E+02
 0.43089765619E+02 0.55697919982E+02 0.64999668511E+02 0.68430891111E+02 0.64994447402E+02
 0.79895585136E+02 0.64990024599E+02 0.47707339129E+02 0.31798791000E+02 0.19832439074E+02
 0.12700181762E+02 0.96176622665E+01 0.85894254519E+01 0.80966212354E+01 0.80968038406E+01
 0.85895883282E+01 0.96172628000E+01 0.12699515820E+02 0.19832623296E+02 0.31800638530E+02
 0.47710460649E+02 0.64993172431E+02 0.79897700199E+02 0.88583276935E+02 0.88582565288E+02
 0.10340502284E+03 0.88567851732E+02 0.68420474508E+02 0.47709089594E+02 0.30275948543E+02
 0.18222327474E+02 0.11729443675E+02 0.92956272621E+01 0.85000196720E+01 0.82228987087E+01
 0.85003851795E+01 0.92955784802E+01 0.11729033150E+02 0.18222835224E+02 0.30277872894E+02
 0.47710463317E+02 0.68418523936E+02 0.88562627363E+02 0.10340037188E+03 0.10888413142E+03
 0.12072587164E+03 0.10887523422E+03 0.88568535459E+02 0.64995227504E+02 0.43089067214E+02
 0.26180958291E+02 0.15558911580E+02 0.10552784165E+02 0.89762583366E+01 0.84159011314E+01
 0.84161081883E+01 0.89764709004E+01 0.10552596238E+02 0.15558909615E+02 0.26181835507E+02
 0.43089769433E+02 0.64993172518E+02 0.88562620099E+02 0.10886823262E+03 0.12072271395E+03
 0.97823187756E+02 0.92876790267E+02 0.79482083461E+02 0.61295231462E+02 0.42637812353E+02
 0.27035674531E+02 0.16401832725E+02 0.10824935272E+02 0.88013714067E+01 0.80709367235E+01
 0.78115511723E+01 0.80709829189E+01 0.88014152764E+01 0.10824938296E+02 0.16401808895E+02
 0.27035665733E+02 0.42637833574E+02 0.61295257678E+02 0.79482089087E+02 0.92876782108E+02
 0.92878989597E+02 0.92876777131E+02 0.83710256631E+02 0.67986494450E+02 0.49751412129E+02
 0.32942372314E+02 0.20252735601E+02 0.12636807980E+02 0.93170022507E+01 0.82474239009E+01
 0.77541986043E+01 0.77540278718E+01 0.82472564796E+01 0.93172197491E+01 0.12637001864E+02
 0.20252310302E+02 0.32941962010E+02 0.49752829369E+02 0.67990592303E+02 0.83715144403E+02
 0.79485367049E+02 0.83726689754E+02 0.79482088240E+02 0.67986508323E+02 0.52382538451E+02
 0.36426488782E+02 0.23214373602E+02 0.14402536012E+02 0.99616456639E+01 0.83997900860E+01
 0.77311927516E+01 0.74935741121E+01 0.77307846379E+01 0.83997152624E+01 0.99620109033E+01
 0.14402361654E+02 0.23213114376E+02 0.36425453565E+02 0.52383784686E+02 0.67990125177E+02
 0.61293829951E+02 0.68026596609E+02 0.68027062185E+02 0.61295258050E+02 0.49751404511E+02
 0.36426475617E+02 0.24325859889E+02 0.15493845605E+02 0.10520993089E+02 0.85291275590E+01
 0.77319941252E+01 0.73108900970E+01 0.73107129688E+01 0.77317720749E+01 0.85293097247E+01
 0.10521389283E+02 0.15493636671E+02 0.24324460741E+02 0.36424206676E+02 0.49749194154E+02
 0.42633281213E+02 0.49822831508E+02 0.52482205200E+02 0.49826449504E+02 0.42637812092E+02
 0.32942346475E+02 0.23214384238E+02 0.15493857186E+02 0.10743405418E+02 0.86168614857E+01
 0.77414381944E+01 0.72038696725E+01 0.70216471628E+01 0.72039258522E+01 0.77414588976E+01
 0.86170988302E+01 0.10744297408E+02 0.15495064398E+02 0.23214388775E+02 0.32939754522E+02
 0.27035262443E+02 0.33054812743E+02 0.36600565036E+02 0.36601807044E+02 0.33057011193E+02
 0.27035661650E+02 0.20252739987E+02 0.14402559425E+02 0.10520979675E+02 0.86168518959E+01
 0.77463352308E+01 0.71570275517E+01 0.68607838981E+01 0.68609927370E+01 0.71571789981E+01
 0.77459437145E+01 0.86166955402E+01 0.10522413719E+02 0.14405439558E+02 0.20254921081E+02
 0.16405086858E+02 0.20403083294E+02 0.23463712089E+02 0.24609387394E+02 0.23462451599E+02
 0.20400490379E+02 0.16401821815E+02 0.12636821251E+02 0.99616373262E+01 0.85291076292E+01
 0.77414542952E+01 0.71570352803E+01 0.68102238908E+01 0.66983250709E+01 0.68105850772E+01
 0.71567957923E+01 0.77401844992E+01 0.85278619142E+01 0.99620109033E+01 0.12639229436E+02
 0.10824723629E+02 0.12802913901E+02 0.14701125449E+02 0.15863888013E+02 0.15862470453E+02
 0.14698063005E+02 0.12800685327E+02 0.10824928150E+02 0.93170108155E+01 0.83997775157E+01
 0.77320061192E+01 0.72038858834E+01 0.68607649181E+01 0.66983185962E+01 0.66985598221E+01
 0.68611813600E+01 0.72037111853E+01 0.77305590156E+01 0.83972553145E+01 0.93147975936E+01
 0.87977543437E+01 0.94773006558E+01 0.10270183537E+02 0.10931721497E+02 0.11189772843E+02
 0.10930705145E+02 0.10270178939E+02 0.94796959409E+01 0.88013860109E+01 0.82474282559E+01
 0.77311860947E+01 0.73109007127E+01 0.70216316204E+01 0.68609795851E+01 0.68106068609E+01
 0.68611871882E+01 0.70225385911E+01 0.73121406951E+01 0.77311676081E+01 0.82450489911E+01
 0.80708004793E+01 0.83997963517E+01 0.86963698467E+01 0.89405511205E+01 0.90922313554E+01
 0.90926329716E+01 0.89419980844E+01 0.86988321494E+01 0.84019973562E+01 0.80709518694E+01
 0.77541822718E+01 0.74935712440E+01 0.73107182730E+01 0.72039181107E+01 0.71571976358E+01
 0.71568067013E+01 0.72036872329E+01 0.73121353836E+01 0.74964311666E+01 0.77564178000E+01
 0.78148291348E+01 0.79061962599E+01 0.80197950294E+01 0.81340104280E+01 0.82202958676E+01
 0.82530931557E+01 0.82215508890E+01 0.81352218629E+01 0.80194459062E+01 0.79038420934E+01
 0.78115448810E+01 0.77540159909E+01 0.77308031245E+01 0.77317752935E+01 0.77414542952E+01
 0.77459480995E+01 0.77401637960E+01 0.77305502402E+01 0.77311927516E+01 0.77564222514E+01
 0.80707753985E+01 0.79061932193E+01 0.77811584411E+01 0.77093472096E+01 0.76829410850E+01
 0.76796795370E+01 0.76800510758E+01 0.76831364103E+01 0.77079219871E+01 0.77783368508E+01
 0.79040195771E+01 0.80709729840E+01 0.82472669308E+01 0.83997241738E+01 0.85292890384E+01
 0.86170938609E+01 0.86167001606E+01 0.85278611577E+01 0.83972767963E+01 0.82450550874E+01
 0.87977334735E+01 0.83997936402E+01 0.80198183739E+01 0.77093482622E+01 0.75010577346E+01
 0.73909102080E+01 0.73579480427E+01 0.73907276790E+01 0.75001616657E+01 0.77080833122E+01
 0.80198058769E+01 0.84021797959E+01 0.88014090105E+01 0.93172254824E+01 0.99619972968E+01
 0.10521382965E+02 0.10744319846E+02 0.10522420815E+02 0.99620056345E+01 0.93147947623E+01
 0.10824729905E+02 0.94773065658E+01 0.86963884530E+01 0.81340091128E+01 0.76829212350E+01
 0.73909114945E+01 0.72540358828E+01 0.72538114103E+01 0.73905223117E+01 0.76830923681E+01
 0.81354110715E+01 0.86988550770E+01 0.94794905736E+01 0.10824937450E+02 0.12637006534E+02
 0.14402361502E+02 0.15493651819E+02 0.15495067964E+02 0.14405415994E+02 0.12639220835E+02
 0.16405110688E+02 0.12802922737E+02 0.10270176182E+02 0.89405429379E+01 0.82202811654E+01
 0.76796851257E+01 0.73579632521E+01 0.72538080954E+01 0.73575880721E+01 0.76799121709E+01
 0.82215508890E+01 0.89417932246E+01 0.10269795969E+02 0.12800493080E+02 0.16401821815E+02
 0.20252314277E+02 0.23213109839E+02 0.24324454582E+02 0.23214373602E+02 0.20254920670E+02
 0.27035276378E+02 0.20403080395E+02 0.14701102727E+02 0.10931713981E+02 0.90922396665E+01
 0.82531027003E+01 0.76800608585E+01 0.73907187088E+01 0.73905120551E+01 0.76799163649E+01
 0.82535074674E+01 0.90924172583E+01 0.10930306992E+02 0.14698246491E+02 0.20400908616E+02
 0.27035666787E+02 0.32941948322E+02 0.36425446043E+02 0.36424212320E+02 0.32939766673E+02
 0.42633273767E+02 0.33054796153E+02 0.23463700766E+02 0.15863894222E+02 0.11189792877E+02
 0.90926378194E+01 0.82215417887E+01 0.76831266023E+01 0.75001570819E+01 0.76831024101E+01
 0.82215564909E+01 0.90924137951E+01 0.11188895190E+02 0.15862685120E+02 0.23463712222E+02
 0.33057414483E+02 0.42637825867E+02 0.49752832237E+02 0.52383799074E+02 0.49749204641E+02
 0.61293815071E+02 0.49822819429E+02 0.36600574527E+02 0.24609406286E+02 0.15862477831E+02
 0.10930695743E+02 0.89419817495E+01 0.81352201370E+01 0.77079318707E+01 0.77080921432E+01
 0.81354106608E+01 0.89417850723E+01 0.10930305106E+02 0.15862686288E+02 0.24610783702E+02
 0.36602820145E+02 0.49825033112E+02 0.61295269385E+02 0.67990599329E+02 0.67990118329E+02
 0.79485361424E+02 0.68026606536E+02 0.52482219803E+02 0.36601818928E+02 0.23462440143E+02
 0.14698043782E+02 0.10270176182E+02 0.86988438778E+01 0.80194584033E+01 0.77783363240E+01
 0.80197950294E+01 0.86988481991E+01 0.10269800567E+02 0.14698249990E+02 0.23463712089E+02
 0.36602822538E+02 0.52480930802E+02 0.68022973667E+02 0.79482088240E+02 0.83715124911E+02
 0.92878992138E+02 0.83726714459E+02 0.68027065457E+02 0.49826437692E+02 0.33056998024E+02
 0.20400480371E+02 0.12800698445E+02 0.94797138044E+01 0.84019955115E+01 0.79038300230E+01
 0.79040105473E+01 0.84021806626E+01 0.94795025271E+01 0.12800497363E+02 0.20400901507E+02
 0.33057417904E+02 0.49825033379E+02 0.68022967012E+02 0.83721813267E+02 0.92876771513E+02
 0.67732963210E+02 0.64274493135E+02 0.54917035224E+02 0.42266781103E+02 0.29458119208E+02
 0.19062119934E+02 0.12374926300E+02 0.91904441177E+01 0.80497755158E+01 0.74429083044E+01
 0.72321444368E+01 0.74429460293E+01 0.80498115292E+01 0.91904465274E+01 0.12374905429E+02
 0.19062109557E+02 0.29458132885E+02 0.42266800511E+02 0.54917040151E+02 0.64274487605E+02
 0.64275767145E+02 0.64274481446E+02 0.57856927253E+02 0.46878384996E+02 0.34259840084E+02
 0.22879011019E+02 0.14659310083E+02 0.10103168047E+02 0.83037448445E+01 0.75429874042E+01