    2    2    1    1
  0.9343547E+01  0.2283400E-09  0.2283400E-09  0.4138540E-09  0.5000000E-15
  1.000000000000000E-004
  CAR 
 unknown system                          
     16     96     40
 
  0.0000000E+00  0.0000000E+00  0.0000000E+00  0.7513148E-03
    1       -1.465422   1.000000
    2        2.395448   1.000000
    3        5.244172   1.000000
    4        6.155964   1.000000
    5        6.156016   1.000000
    6        6.466945   1.000000
    7        6.467006   1.000000
    8        6.833443   1.000000
    9        7.723613   1.032966
   10        7.723628   1.032963
   11        8.797738  -0.000000
   12        8.797754  -0.000000
   13       15.659434   0.000000
   14       31.437715   0.000000
   15       32.542570   0.000000
   16       35.553060   0.000000
   17       38.905840   0.000000
   18       38.969757   0.000000
   19       38.969823   0.000000
   20       39.659463   0.000000
   21       39.659631   0.000000
   22       41.952013   0.000000
   23       41.952028   0.000000
   24       42.953995   0.000000
   25       45.864270   0.000000
   26       45.864277   0.000000
   27       46.544452   0.000000
   28       50.324195   0.000000
   29       50.324617   0.000000
   30       52.214775   0.000000
   31       52.214952   0.000000
   32       54.529441   0.000000
   33       61.962736   0.000000
   34       63.453822   0.000000
   35       63.581255   0.000000
   36       63.582013   0.000000
   37       64.620680   0.000000
   38       66.442561   0.000000
   39       66.443479   0.000000
   40       67.236255   0.000000
 
  0.9090909E-01 -0.4564632E-17  0.0000000E+00  0.4507889E-02
    1       -1.103880   1.000000
    2        2.678292   1.000000
    3        5.312113   1.000000
    4        6.023805   1.000000
    5        6.038861   1.000000
    6        6.329730   1.000000
    7        6.381146   1.000000
    8        6.678774   1.000000
    9        7.523591   1.005570
   10        7.598411   1.017131
   11        8.829115  -0.000000
   12        9.894432  -0.000000
   13       15.685460   0.000000
   14       31.458554   0.000000
   15       31.870047   0.000000
   16       34.193678   0.000000
   17       35.986397   0.000000
   18       37.603849   0.000000
   19       37.958225   0.000000
   20       38.836046   0.000000
   21       41.339239   0.000000
   22       42.197026   0.000000
   23       42.849354   0.000000
   24       43.449281   0.000000
   25       47.125730   0.000000
   26       47.473723   0.000000
   27       47.706893   0.000000
   28       48.029434   0.000000
   29       51.210331   0.000000
   30       53.603087   0.000000
   31       54.712588   0.000000
   32       56.505406   0.000000
   33       60.770884   0.000000
   34       62.621319   0.000000
   35       62.644764   0.000000
   36       63.113445   0.000000
   37       63.626265   0.000000
   38       67.240022   0.000000
   39       67.369777   0.000000
   40       67.985746   0.000000
 
  0.1818182E+00  0.3117884E-17  0.0000000E+00  0.4507889E-02
    1       -0.089985   1.000000
    2        3.333115   1.000000
    3        4.909413   1.000000
    4        5.235198   1.000000
    5        5.772448   1.000000
    6        6.410353   1.000000
    7        7.004392   1.000000
    8        7.054165   1.000000
    9        7.261556   1.000007
   10        7.302141   1.000027
   11        8.873027  -0.000000
   12       11.793404  -0.000000
   13       15.783678   0.000000
   14       27.767770   0.000000
   15       32.667084   0.000000
   16       32.871871   0.000000
   17       32.948989   0.000000
   18       33.370947   0.000000
   19       38.110232   0.000000
   20       38.984228   0.000000
   21       39.487262   0.000000
   22       40.416797   0.000000
   23       43.720130   0.000000
   24       44.490943   0.000000
   25       47.774669   0.000000
   26       48.634146   0.000000
   27       49.930680   0.000000
   28       52.210703   0.000000
   29       54.274518   0.000000
   30       56.428993   0.000000
   31       57.360553   0.000000
   32       59.294693   0.000000
   33       59.707285   0.000000
   34       60.209374   0.000000
   35       60.878611   0.000000
   36       62.077870   0.000000
   37       64.730146   0.000000
   38       67.711117   0.000000
   39       67.932591   0.000000
   40       68.196993   0.000000
 
  0.2727273E+00 -0.8385641E-17  0.0000000E+00  0.4507889E-02
    1        1.312911   1.000000
    2        3.587728   1.000000
    3        4.026695   1.000000
    4        5.259964   1.000000
    5        5.582252   1.000000
    6        6.475899   1.000000
    7        6.962763   1.000000
    8        7.279880   1.000013
    9        7.892141   0.715319
   10        8.079755   0.049657
   11        8.884954  -0.000000
   12       13.960424   0.000000
   13       16.023340   0.000000
   14       23.622622   0.000000
   15       29.104533   0.000000
   16       30.363573   0.000000
   17       31.152477   0.000000
   18       33.508573   0.000000
   19       36.576592   0.000000
   20       38.836781   0.000000
   21       39.699119   0.000000
   22       39.863936   0.000000
   23       41.161079   0.000000
   24       44.406567   0.000000
   25       51.442988   0.000000
   26       52.601253   0.000000
   27       53.630961   0.000000
   28       54.509359   0.000000
   29       54.873383   0.000000
   30       57.089715   0.000000
   31       58.217616   0.000000
   32       60.274221   0.000000
   33       60.597176   0.000000
   34       60.768789   0.000000
   35       62.231518   0.000000
   36       65.056721   0.000000
   37       65.308941   0.000000
   38       67.898713   0.000000
   39       68.132570   0.000000
   40       68.993265   0.000000
 
  0.3636364E+00 -0.4961122E-16  0.0000000E+00  0.4507889E-02
    1        2.461190   1.000000
    2        3.255658   1.000000
    3        3.438556   1.000000
    4        5.418126   1.000000
    5        5.965128   1.000000
    6        6.167339   1.000000
    7        6.682511   1.000000
    8        8.723000  -0.000000
    9        8.790757  -0.000000
   10        8.873308  -0.000000
   11        8.905069  -0.000000
   12       16.028430   0.000000
   13       16.278601   0.000000
   14       20.498320   0.000000
   15       25.664594   0.000000
   16       28.201886   0.000000
   17       28.381455   0.000000
   18       32.838900   0.000000
   19       35.616277   0.000000
   20       38.959025   0.000000
   21       39.265423   0.000000
   22       40.658871   0.000000
   23       40.745096   0.000000
   24       44.333443   0.000000
   25       51.409513   0.000000
   26       53.448819   0.000000
   27       54.661002   0.000000
   28       57.915768   0.000000
   29       57.944816   0.000000
   30       57.978758   0.000000
   31       59.399925   0.000000
   32       61.716071   0.000000
   33       62.149116   0.000000
   34       62.256825   0.000000
   35       64.131178   0.000000
   36       65.531953   0.000000
   37       67.793656   0.000000
   38       68.252381   0.000000
   39       68.487871   0.000000
   40       69.626566   0.000000
 
  0.4545455E+00 -0.3105685E-16  0.0000000E+00  0.4507889E-02
    1        2.778128   1.000000
    2        3.032338   1.000000
    3        3.148213   1.000000
    4        5.668965   1.000000
    5        6.079799   1.000000
    6        6.444359   1.000000
    7        6.526111   1.000000
    8        8.859934  -0.000000
    9        9.353124  -0.000000
   10        9.457736  -0.000000
   11       10.621138  -0.000000
   12       14.310514   0.000000
   13       18.471664   0.000000
   14       20.274945   0.000000
   15       22.924391   0.000000
   16       25.363176   0.000000
   17       27.267286   0.000000
   18       32.223577   0.000000
   19       35.303425   0.000000
   20       37.722975   0.000000
   21       39.071993   0.000000
   22       41.705275   0.000000
   23       43.264680   0.000000
   24       43.601693   0.000000
   25       48.015351   0.000000
   26       54.051291   0.000000
   27       55.245952   0.000000
   28       58.711813   0.000000
   29       60.059495   0.000000
   30       60.965170   0.000000
   31       62.118628   0.000000
   32       62.540545   0.000000
   33       62.655861   0.000000
   34       64.347864   0.000000
   35       65.585414   0.000000
   36       67.390554   0.000000
   37       67.772757   0.000000
   38       68.175628   0.000000
   39       70.409349   0.000000
   40       71.113706   0.000000
 
  0.9090909E-01  0.9090909E-01  0.0000000E+00  0.4507889E-02
    1       -0.412572   1.000000
    2        3.172603   1.000000
    3        5.204249   1.000000
    4        5.249772   1.000000
    5        6.022513   1.000000
    6        6.065616   1.000000
    7        6.838632   1.000000
    8        7.070053   1.000000
    9        7.130293   1.000000
   10        7.531326   1.006368
   11        8.823256  -0.000000
   12       11.262564  -0.000000
   13       15.751259   0.000000
   14       29.504770   0.000000
   15       31.025496   0.000000
   16       32.577779   0.000000
   17       34.640305   0.000000
   18       36.719703   0.000000
   19       36.806354   0.000000
   20       37.989277   0.000000
   21       38.629866   0.000000
   22       44.093383   0.000000
   23       44.609194   0.000000
   24       45.423019   0.000000
   25       45.978854   0.000000
   26       46.656139   0.000000
   27       46.953169   0.000000
   28       52.816268   0.000000
   29       54.872707   0.000000
   30       55.445986   0.000000
   31       55.538614   0.000000
   32       58.934749   0.000000
   33       59.596164   0.000000
   34       60.618289   0.000000
   35       61.893778   0.000000
   36       62.170179   0.000000
   37       63.719767   0.000000
   38       67.407223   0.000000
   39       68.408777   0.000000
   40       68.420167   0.000000
 
  0.1818182E+00  0.9090909E-01  0.0000000E+00  0.9015778E-02
    1        0.830453   1.000000
    2        3.781541   1.000000
    3        4.347966   1.000000
    4        4.972062   1.000000
    5        5.683724   1.000000
    6        6.521039   1.000000
    7        6.533452   1.000000
    8        7.229759   1.000003
    9        7.656753   1.030168
   10        7.975048   0.374521
   11        8.798022  -0.000000
   12       13.205513  -0.000000
   13       15.967916   0.000000
   14       25.750065   0.000000
   15       28.534055   0.000000
   16       30.995659   0.000000
   17       33.015199   0.000000
   18       34.156092   0.000000
   19       36.677577   0.000000
   20       37.259404   0.000000
   21       38.479159   0.000000
   22       43.175797   0.000000
   23       43.418631   0.000000
   24       45.184662   0.000000
   25       48.172613   0.000000
   26       48.895601   0.000000
   27       51.215666   0.000000
   28       55.011703   0.000000
   29       56.493598   0.000000
   30       57.368644   0.000000
   31       57.963141   0.000000
   32       59.840762   0.000000
   33       60.261599   0.000000
   34       60.789313   0.000000
   35       62.160608   0.000000
   36       62.348716   0.000000
   37       64.597407   0.000000
   38       67.595160   0.000000
   39       68.987977   0.000000
   40       69.059319   0.000000
 
  0.2727273E+00  0.9090909E-01  0.0000000E+00  0.9015778E-02
    1        2.222107   1.000000
    2        3.645941   1.000000
    3        3.704793   1.000000
    4        5.101610   1.000000
    5        5.803465   1.000000
    6        6.066566   1.000000
    7        6.814811   1.000000
    8        7.444792   1.001152
    9        8.547020  -0.000088
   10        8.764672  -0.000000
   11        9.071514  -0.000000
   12       15.426871   0.000000
   13       16.362587   0.000000
   14       21.885298   0.000000
   15       26.734640   0.000000
   16       27.474126   0.000000
   17       30.702814   0.000000
   18       32.047273   0.000000
   19       36.578013   0.000000
   20       37.951173   0.000000
   21       38.157445   0.000000
   22       42.256796   0.000000
   23       42.737437   0.000000
   24       45.958756   0.000000
   25       50.193591   0.000000
   26       52.607164   0.000000
   27       53.760817   0.000000
   28       53.800355   0.000000
   29       56.493661   0.000000
   30       58.428064   0.000000
   31       58.796268   0.000000
   32       61.534878   0.000000
   33       62.409772   0.000000
   34       62.709143   0.000000
   35       63.414410   0.000000
   36       65.062460   0.000000
   37       67.382888   0.000000
   38       68.411357   0.000000
   39       68.431377   0.000000
   40       69.316719   0.000000
 
  0.3636364E+00  0.9090909E-01  0.0000000E+00  0.9015778E-02
    1        2.956480   1.000000
    2        3.303356   1.000000
    3        3.322355   1.000000
    4        5.600667   1.000000
    5        5.751125   1.000000
    6        6.277577   1.000000
    7        6.476755   1.000000
    8        8.547670  -0.000087
    9        8.731087  -0.000000
   10        9.150411  -0.000000
   11       10.431008  -0.000000
   12       15.753101   0.000000
   13       17.764818   0.000000
   14       20.126077   0.000000
   15       24.343620   0.000000
   16       25.262982   0.000000
   17       27.358146   0.000000
   18       31.139536   0.000000
   19       35.679811   0.000000
   20       37.484976   0.000000
   21       39.890370   0.000000
   22       42.449394   0.000000
   23       43.261174   0.000000
   24       45.115329   0.000000
   25       50.056177   0.000000
   26       52.805151   0.000000
   27       54.195518   0.000000
   28       56.059632   0.000000
   29       58.140680   0.000000
   30       59.665287   0.000000
   31       61.002938   0.000000
   32       62.280449   0.000000
   33       62.801076   0.000000
   34       65.227744   0.000000
   35       66.088589   0.000000
   36       66.664707   0.000000
   37       67.065363   0.000000
   38       69.208139   0.000000
   39       69.259546   0.000000
   40       70.972663   0.000000
 
  0.4545455E+00  0.9090909E-01  0.0000000E+00  0.4507889E-02
    1        2.992243   1.000000
    2        3.197062   1.000000
    3        3.239208   1.000000
    4        5.638780   1.000000
    5        6.104551   1.000000
    6        6.346189   1.000000
    7        6.359927   1.000000
    8        8.716213  -0.000000
    9        9.185212  -0.000000
   10        9.219870  -0.000000
   11       11.744790  -0.000000
   12       14.088239   0.000000
   13       19.351770   0.000000
   14       20.727916   0.000000
   15       22.494282   0.000000
   16       24.230110   0.000000
   17       25.949561   0.000000
   18       30.796694   0.000000
   19       35.275266   0.000000
   20       37.334675   0.000000
   21       40.318712   0.000000
   22       43.079208   0.000000
   23       44.095890   0.000000
   24       44.608420   0.000000
   25       47.895892   0.000000
   26       53.791093   0.000000
   27       54.460531   0.000000
   28       56.399693   0.000000
   29       60.181771   0.000000
   30       60.241526   0.000000
   31       62.798069   0.000000
   32       62.904342   0.000000
   33       62.992702   0.000000
   34       64.183264   0.000000
   35       65.627606   0.000000
   36       68.315033   0.000000
   37       68.899755   0.000000
   38       69.018511   0.000000
   39       69.033648   0.000000
   40       70.998211   0.000000
 
  0.1818182E+00  0.1818182E+00  0.0000000E+00  0.4507889E-02
    1        2.165467   1.000000
    2        3.863298   1.000000
    3        4.293890   1.000000
    4        4.459065   1.000000
    5        5.767450   1.000000
    6        6.015227   1.000000
    7        6.790766   1.000000
    8        6.944499   1.000000
    9        8.516503  -0.000203
   10        8.638722  -0.000005
   11        9.156650  -0.000000
   12       15.162708   0.000000
   13       16.507341   0.000000
   14       23.652731   0.000000
   15       24.564388   0.000000
   16       29.028530   0.000000
   17       30.631466   0.000000
   18       33.175695   0.000000
   19       33.750199   0.000000
   20       37.498779   0.000000
   21       40.010938   0.000000
   22       44.348148   0.000000
   23       45.182427   0.000000
   24       46.856093   0.000000
   25       47.902605   0.000000
   26       49.945382   0.000000
   27       50.822363   0.000000
   28       55.082981   0.000000
   29       57.410749   0.000000
   30       57.431653   0.000000
   31       57.937604   0.000000
   32       61.862261   0.000000
   33       61.983199   0.000000
   34       63.914587   0.000000
   35       64.482485   0.000000
   36       65.301770   0.000000
   37       65.556943   0.000000
   38       67.729429   0.000000
   39       68.348441   0.000000
   40       70.661955   0.000000
 
  0.2727273E+00  0.1818182E+00  0.0000000E+00  0.9015778E-02
    1        3.378685   1.000000
    2        3.562882   1.000000
    3        3.911483   1.000000
    4        4.773840   1.000000
    5        5.695129   1.000000
    6        6.103958   1.000000
    7        6.468822   1.000000
    8        7.471006   1.002029
    9        8.501911  -0.000296
   10        9.054256  -0.000000
   11       10.622552  -0.000000
   12       17.213032   0.000000
   13       17.437281   0.000000
   14       20.583463   0.000000
   15       22.810122   0.000000
   16       26.318352   0.000000
   17       28.930363   0.000000
   18       29.496410   0.000000
   19       32.468538   0.000000
   20       39.844366   0.000000
   21       40.494381   0.000000
   22       44.192777   0.000000
   23       46.261857   0.000000
   24       48.114188   0.000000
   25       48.722005   0.000000
   26       50.786872   0.000000
   27       52.077591   0.000000
   28       53.145267   0.000000
   29       56.473965   0.000000
   30       57.931209   0.000000
   31       60.385932   0.000000
   32       62.324359   0.000000
   33       63.190098   0.000000
   34       65.099918   0.000000
   35       66.597412   0.000000
   36       66.626851   0.000000
   37       68.361114   0.000000
   38       68.673514   0.000000
   39       70.415304   0.000000
   40       71.656587   0.000000
 
  0.3636364E+00  0.1818182E+00  0.0000000E+00  0.9015778E-02
    1        3.434436   1.000000
    2        3.580777   1.000000
    3        3.783661   1.000000
    4        5.397599   1.000000
    5        5.629055   1.000000
    6        6.042421   1.000000
    7        6.418411   1.000000
    8        8.314922  -0.012602
    9        8.424952  -0.001792
   10        9.020142  -0.000000
   11       12.377914  -0.000000
   12       15.640817   0.000000
   13       19.765883   0.000000
   14       20.743199   0.000000
   15       21.842932   0.000000
   16       23.561012   0.000000
   17       26.401108   0.000000
   18       28.271684   0.000000
   19       31.808085   0.000000
   20       40.584149   0.000000
   21       42.210443   0.000000
   22       44.266337   0.000000
   23       45.360360   0.000000
   24       46.668723   0.000000
   25       50.547400   0.000000
   26       51.209275   0.000000
   27       52.711141   0.000000
   28       54.200817   0.000000
   29       58.035829   0.000000
   30       59.064057   0.000000
   31       59.944041   0.000000
   32       62.363048   0.000000
   33       63.071850   0.000000
   34       63.453174   0.000000
   35       67.451886   0.000000
   36       68.364166   0.000000
   37       69.400549   0.000000
   38       70.264498   0.000000
   39       70.295653   0.000000
   40       70.594638   0.000000
 
  0.2727273E+00  0.2727273E+00  0.0000000E+00  0.4507889E-02
    1        3.600286   1.000000
    2        4.102422   1.000000
    3        4.466122   1.000000
    4        4.475995   1.000000
    5        5.515098   1.000000
    6        5.979532   1.000000
    7        6.445195   1.000000
    8        7.772154   1.004725
    9        8.271796  -0.021507
   10        8.970993  -0.000000
   11       12.545981  -0.000000
   12       17.834581   0.000000
   13       18.528300   0.000000
   14       19.814759   0.000000
   15       21.497793   0.000000
   16       25.591446   0.000000
   17       25.817447   0.000000
   18       28.235118   0.000000
   19       29.082716   0.000000
   20       41.604811   0.000000
   21       42.530336   0.000000
   22       47.203196   0.000000
   23       47.897572   0.000000
   24       48.195090   0.000000
   25       48.551901   0.000000
   26       49.152335   0.000000
   27       52.007136   0.000000
   28       54.467360   0.000000
   29       54.697870   0.000000
   30       59.118155   0.000000
   31       59.215533   0.000000
   32       61.911087   0.000000
   33       63.213270   0.000000
   34       63.370059   0.000000
   35       67.612267   0.000000
   36       68.573158   0.000000
   37       68.760105   0.000000
   38       69.485628   0.000000
   39       70.225846   0.000000
   40       72.442376   0.000000
 
  0.3636364E+00  0.2727273E+00  0.0000000E+00  0.4507889E-02
    1        3.657630   1.000000
    2        4.212562   1.000000
    3        4.335525   1.000000
    4        4.887670   1.000000
    5        5.601274   1.000000
    6        5.602287   1.000000
    7        6.602032   1.000000
    8        8.182320  -0.035220
    9        8.214533  -0.033502
   10        8.577920  -0.000036
   11       14.412189   0.000000
   12       15.873822   0.000000
   13       18.138800   0.000000
   14       21.887617   0.000000
   15       22.464222   0.000000
   16       23.385391   0.000000
   17       25.452976   0.000000
   18       26.434589   0.000000
   19       28.469420   0.000000
   20       41.940872   0.000000
   21       45.211290   0.000000
   22       45.885153   0.000000
   23       47.271671   0.000000
   24       47.512074   0.000000
   25       49.060641   0.000000
   26       50.474333   0.000000
   27       53.848317   0.000000
   28       54.588424   0.000000
   29       54.788968   0.000000
   30       58.109695   0.000000
   31       59.125833   0.000000
   32       59.843704   0.000000
   33       62.673826   0.000000
   34       62.827952   0.000000
   35       67.277454   0.000000
   36       68.774597   0.000000
   37       69.675437   0.000000
   38       69.820808   0.000000
   39       70.965459   0.000000
   40       71.699418   0.000000
 
  0.0000000E+00  0.0000000E+00  0.9090909E-01  0.1502630E-02
    1       -1.383241   1.000000
    2        2.365203   1.000000
    3        5.223244   1.000000
    4        6.150436   1.000000
    5        6.150488   1.000000
    6        6.451563   1.000000
    7        6.451624   1.000000
    8        6.623958   1.000000
    9        7.758363   1.016748
   10        7.758379   1.016736
   11        8.786800  -0.000000
   12        8.786816  -0.000000
   13       16.024009   0.000000
   14       30.761040   0.000000
   15       32.689004   0.000000
   16       35.388593   0.000000
   17       39.005645   0.000000
   18       39.005703   0.000000
   19       39.393883   0.000000
   20       39.662865   0.000000
   21       39.663027   0.000000
   22       41.913256   0.000000
   23       41.913272   0.000000
   24       43.218033   0.000000
   25       45.575329   0.000000
   26       45.575345   0.000000
   27       46.748281   0.000000
   28       50.551635   0.000000
   29       50.552040   0.000000
   30       52.576232   0.000000
   31       52.576399   0.000000
   32       54.309510   0.000000
   33       60.996846   0.000000
   34       63.406285   0.000000
   35       63.407020   0.000000
   36       63.620821   0.000000
   37       65.148902   0.000000
   38       65.149428   0.000000
   39       65.636387   0.000000
   40       65.674951   0.000000
 
  0.9090909E-01 -0.4564632E-17  0.9090909E-01  0.9015778E-02
    1       -1.023771   1.000000
    2        2.651999   1.000000
    3        5.296785   1.000000
    4        5.871454   1.000000
    5        6.017879   1.000000
    6        6.352024   1.000000
    7        6.373136   1.000000
    8        6.661964   1.000000
    9        7.567874   1.011360
   10        7.639307   1.026361
   11        8.814867  -0.000000
   12        9.748914  -0.000000
   13       16.085824   0.000000
   14       31.023088   0.000000
   15       31.736350   0.000000
   16       34.144606   0.000000
   17       36.052140   0.000000
   18       37.092000   0.000000
   19       38.436801   0.000000
   20       39.234594   0.000000
   21       41.098854   0.000000
   22       42.320323   0.000000
   23       42.919894   0.000000
   24       43.609801   0.000000
   25       46.824433   0.000000
   26       47.132185   0.000000
   27       48.332056   0.000000
   28       48.473331   0.000000
   29       51.085904   0.000000
   30       53.801308   0.000000
   31       54.971991   0.000000
   32       56.356025   0.000000
   33       59.552035   0.000000
   34       62.256313   0.000000
   35       63.091379   0.000000
   36       63.233881   0.000000
   37       64.169740   0.000000
   38       65.853905   0.000000
   39       66.139567   0.000000
   40       67.435081   0.000000
 
  0.1818182E+00  0.3117884E-17  0.9090909E-01  0.9015778E-02
    1       -0.018546   1.000000
    2        3.319549   1.000000
    3        4.832040   1.000000
    4        5.249895   1.000000
    5        5.740859   1.000000
    6        6.346798   1.000000
    7        6.971566   1.000000
    8        7.160557   1.000000
    9        7.219507   1.000002
   10        7.396393   1.000365
   11        8.851486  -0.000000
   12       11.445440  -0.000000
   13       16.314351   0.000000
   14       27.819918   0.000000
   15       31.862275   0.000000
   16       32.820337   0.000000
   17       33.046140   0.000000
   18       33.500808   0.000000
   19       37.716969   0.000000
   20       39.402799   0.000000
   21       39.986730   0.000000
   22       40.047991   0.000000
   23       44.047653   0.000000
   24       44.922146   0.000000
   25       47.998048   0.000000
   26       48.563348   0.000000
   27       49.745173   0.000000
   28       52.264565   0.000000
   29       53.921921   0.000000
   30       56.649975   0.000000
   31       57.695802   0.000000
   32       58.261198   0.000000
   33       59.224117   0.000000
   34       60.474305   0.000000
   35       61.269840   0.000000
   36       62.509234   0.000000
   37       64.616842   0.000000
   38       66.544707   0.000000
   39       67.149126   0.000000
   40       69.205943   0.000000
 
  0.2727273E+00 -0.8385641E-17  0.9090909E-01  0.9015778E-02
    1        1.358401   1.000000
    2        3.579193   1.000000
    3        4.012983   1.000000
    4        5.243339   1.000000
    5        5.561360   1.000000
    6        6.497551   1.000000
    7        6.985454   1.000000
    8        7.323181   1.000050
    9        7.900996   0.681373
   10        8.066816   0.076000
   11        8.861869  -0.000000
   12       13.251732  -0.000000
   13       16.859822   0.000000
   14       23.686367   0.000000
   15       28.757372   0.000000
   16       30.472740   0.000000
   17       31.350153   0.000000
   18       33.290751   0.000000
   19       36.250937   0.000000
   20       38.397410   0.000000
   21       38.848874   0.000000
   22       40.789694   0.000000
   23       42.045813   0.000000
   24       44.950359   0.000000
   25       51.532597   0.000000
   26       51.983338   0.000000
   27       53.027483   0.000000
   28       53.256600   0.000000
   29       56.536246   0.000000
   30       57.282551   0.000000
   31       58.467691   0.000000
   32       60.062183   0.000000
   33       60.329549   0.000000
   34       60.626599   0.000000
   35       62.657439   0.000000
   36       64.312633   0.000000
   37       65.772456   0.000000
   38       67.248451   0.000000
   39       67.745089   0.000000
   40       69.405169   0.000000
 
  0.3636364E+00 -0.4961122E-16  0.9090909E-01  0.9015778E-02
    1        2.438663   1.000000
    2        3.202219   1.000000
    3        3.555292   1.000000
    4        5.156555   1.000000
    5        6.108866   1.000000
    6        6.362998   1.000000
    7        6.718235   1.000000
    8        8.682350  -0.000001
    9        8.752553  -0.000000
   10        8.806882  -0.000000
   11        8.962052  -0.000000
   12       14.724890   0.000000
   13       17.616605   0.000000
   14       20.584219   0.000000
   15       25.340598   0.000000
   16       28.503517   0.000000
   17       28.535715   0.000000
   18       32.812809   0.000000
   19       35.524186   0.000000
   20       37.613969   0.000000
   21       38.995003   0.000000
   22       40.649135   0.000000
   23       42.152420   0.000000
   24       44.869609   0.000000
   25       50.330937   0.000000
   26       54.353864   0.000000
   27       54.593402   0.000000
   28       56.870263   0.000000
   29       57.212871   0.000000
   30       59.220312   0.000000
   31       59.728894   0.000000
   32       61.568303   0.000000
   33       62.123135   0.000000
   34       62.604236   0.000000
   35       64.115316   0.000000
   36       65.481725   0.000000
   37       66.929336   0.000000
   38       67.889883   0.000000
   39       69.343418   0.000000
   40       69.770606   0.000000
 
  0.4545455E+00 -0.3105685E-16  0.9090909E-01  0.9015778E-02
    1        2.724687   1.000000
    2        2.870358   1.000000
    3        3.415913   1.000000
    4        5.220385   1.000000
    5        6.297142   1.000000
    6        6.566692   1.000000
    7        6.781946   1.000000
    8        8.799739  -0.000000
    9        9.358237  -0.000000
   10        9.457984  -0.000000
   11       10.519907  -0.000000
   12       14.090973   0.000000
   13       18.437694   0.000000
   14       20.285866   0.000000
   15       23.040436   0.000000
   16       25.685969   0.000000
   17       27.397804   0.000000
   18       32.239748   0.000000
   19       35.253366   0.000000
   20       36.735956   0.000000
   21       40.116132   0.000000