unknown system                          
   1.00000000000000     
     3.635000    0.000000    0.000000
     0.000000    3.635000    0.000000
     0.000000    0.000000    3.635000
   Cu
     4
Direct
  0.000000  0.000000  0.000000
  0.500000  0.500000  0.000000
  0.500000  0.000000  0.500000
  0.000000  0.500000  0.500000
 
   20   20   20
 0.66072786860E+03 0.57298063152E+03 0.37121601181E+03 0.17749441934E+03 0.70217084761E+02
 0.38358381354E+02 0.21458179979E+02 0.85086686440E+01 0.72213655783E+01 0.13937213063E+02
 0.18055828130E+02 0.13937213063E+02 0.72213655783E+01 0.85086686440E+01 0.21458179979E+02
 0.38358381354E+02 0.70217084761E+02 0.17749441934E+03 0.37121601181E+03 0.57298063152E+03
 0.57298063152E+03 0.49566567482E+03 0.31933717290E+03 0.15278392198E+03 0.62813310780E+02
 0.35998708050E+02 0.19922333030E+02 0.82580726107E+01 0.64381043906E+01 0.11026627795E+02
 0.13937213063E+02 0.11026627795E+02 0.64381043906E+01 0.82580726107E+01 0.19922333030E+02
 0.35998708050E+02 0.62813310780E+02 0.15278392198E+03 0.31933717290E+03 0.49566567482E+03
 0.37121601181E+03 0.31933717290E+03 0.20393427125E+03 0.10029283171E+03 0.48023371811E+02
 0.29883953433E+02 0.15953429203E+02 0.75606961698E+01 0.54243695666E+01 0.64381043906E+01
 0.72213655783E+01 0.64381043906E+01 0.54243695666E+01 0.75606961698E+01 0.15953429203E+02
 0.29883953433E+02 0.48023371811E+02 0.10029283171E+03 0.20393427125E+03 0.31933717290E+03
 0.17749441934E+03 0.15278392198E+03 0.10029283171E+03 0.57197895251E+02 0.36044867467E+02
 0.22075370168E+02 0.11739771431E+02 0.76620065403E+01 0.75606961698E+01 0.82580726107E+01
 0.85086686440E+01 0.82580726107E+01 0.75606961698E+01 0.76620065403E+01 0.11739771431E+02
 0.22075370168E+02 0.36044867467E+02 0.57197895251E+02 0.10029283171E+03 0.15278392198E+03
 0.70217084761E+02 0.62813310780E+02 0.48023371811E+02 0.36044867467E+02 0.25343923791E+02
 0.15546597443E+02 0.10737801052E+02 0.11739771431E+02 0.15953429203E+02 0.19922333030E+02
 0.21458179979E+02 0.19922333030E+02 0.15953429203E+02 0.11739771431E+02 0.10737801052E+02
 0.15546597443E+02 0.25343923791E+02 0.36044867467E+02 0.48023371811E+02 0.62813310780E+02
 0.38358381354E+02 0.35998708050E+02 0.29883953433E+02 0.22075370168E+02 0.15546597443E+02
 0.13002900696E+02 0.15546597443E+02 0.22075370168E+02 0.29883953433E+02 0.35998708050E+02
 0.38358381354E+02 0.35998708050E+02 0.29883953433E+02 0.22075370168E+02 0.15546597443E+02
 0.13002900696E+02 0.15546597443E+02 0.22075370168E+02 0.29883953433E+02 0.35998708050E+02
 0.21458179979E+02 0.19922333030E+02 0.15953429203E+02 0.11739771431E+02 0.10737801052E+02
 0.15546597443E+02 0.25343923791E+02 0.36044867467E+02 0.48023371811E+02 0.62813310780E+02
 0.70217084761E+02 0.62813310780E+02 0.48023371811E+02 0.36044867467E+02 0.25343923791E+02
 0.15546597443E+02 0.10737801052E+02 0.11739771431E+02 0.15953429203E+02 0.19922333030E+02
 0.85086686440E+01 0.82580726107E+01 0.75606961698E+01 0.76620065403E+01 0.11739771431E+02
 0.22075370168E+02 0.36044867467E+02 0.57197895251E+02 0.10029283171E+03 0.15278392198E+03
 0.17749441934E+03 0.15278392198E+03 0.10029283171E+03 0.57197895251E+02 0.36044867467E+02
 0.22075370168E+02 0.11739771431E+02 0.76620065403E+01 0.75606961698E+01 0.82580726107E+01
 0.72213655783E+01 0.64381043906E+01 0.54243695666E+01 0.75606961698E+01 0.15953429203E+02
 0.29883953433E+02 0.48023371811E+02 0.10029283171E+03 0.20393427125E+03 0.31933717290E+03
 0.37121601181E+03 0.31933717290E+03 0.20393427125E+03 0.10029283171E+03 0.48023371811E+02
 0.29883953433E+02 0.15953429203E+02 0.75606961698E+01 0.54243695666E+01 0.64381043906E+01
 0.13937213063E+02 0.11026627795E+02 0.64381043906E+01 0.82580726107E+01 0.19922333030E+02
 0.35998708050E+02 0.62813310780E+02 0.15278392198E+03 0.31933717290E+03 0.49566567482E+03
 0.57298063152E+03 0.49566567482E+03 0.31933717290E+03 0.15278392198E+03 0.62813310780E+02
 0.35998708050E+02 0.19922333030E+02 0.82580726107E+01 0.64381043906E+01 0.11026627795E+02
 0.18055828130E+02 0.13937213063E+02 0.72213655783E+01 0.85086686440E+01 0.21458179979E+02
 0.38358381354E+02 0.70217084761E+02 0.17749441934E+03 0.37121601181E+03 0.57298063152E+03
 0.66072786860E+03 0.57298063152E+03 0.37121601181E+03 0.17749441934E+03 0.70217084761E+02
 0.38358381354E+02 0.21458179979E+02 0.85086686440E+01 0.72213655783E+01 0.13937213063E+02
 0.13937213063E+02 0.11026627795E+02 0.64381043906E+01 0.82580726107E+01 0.19922333030E+02
 0.35998708050E+02 0.62813310780E+02 0.15278392198E+03 0.31933717290E+03 0.49566567482E+03
 0.57298063152E+03 0.49566567482E+03 0.31933717290E+03 0.15278392198E+03 0.62813310780E+02
 0.35998708050E+02 0.19922333030E+02 0.82580726107E+01 0.64381043906E+01 0.11026627795E+02
 0.72213655783E+01 0.64381043906E+01 0.54243695666E+01 0.75606961698E+01 0.15953429203E+02
 0.29883953433E+02 0.48023371811E+02 0.10029283171E+03 0.20393427125E+03 0.31933717290E+03
 0.37121601181E+03 0.31933717290E+03 0.20393427125E+03 0.10029283171E+03 0.48023371811E+02
 0.29883953433E+02 0.15953429203E+02 0.75606961698E+01 0.54243695666E+01 0.64381043906E+01
 0.85086686440E+01 0.82580726107E+01 0.75606961698E+01 0.76620065403E+01 0.11739771431E+02
 0.22075370168E+02 0.36044867467E+02 0.57197895251E+02 0.10029283171E+03 0.15278392198E+03
 0.17749441934E+03 0.15278392198E+03 0.10029283171E+03 0.57197895251E+02 0.36044867467E+02
 0.22075370168E+02 0.11739771431E+02 0.76620065403E+01 0.75606961698E+01 0.82580726107E+01
 0.21458179979E+02 0.19922333030E+02 0.15953429203E+02 0.11739771431E+02 0.10737801052E+02
 0.15546597443E+02 0.25343923791E+02 0.36044867467E+02 0.48023371811E+02 0.62813310780E+02
 0.70217084761E+02 0.62813310780E+02 0.48023371811E+02 0.36044867467E+02 0.25343923791E+02
 0.15546597443E+02 0.10737801052E+02 0.11739771431E+02 0.15953429203E+02 0.19922333030E+02
 0.38358381354E+02 0.35998708050E+02 0.29883953433E+02 0.22075370168E+02 0.15546597443E+02
 0.13002900696E+02 0.15546597443E+02 0.22075370168E+02 0.29883953433E+02 0.35998708050E+02
 0.38358381354E+02 0.35998708050E+02 0.29883953433E+02 0.22075370168E+02 0.15546597443E+02
 0.13002900696E+02 0.15546597443E+02 0.22075370168E+02 0.29883953433E+02 0.35998708050E+02
 0.70217084761E+02 0.62813310780E+02 0.48023371811E+02 0.36044867467E+02 0.25343923791E+02
 0.15546597443E+02 0.10737801052E+02 0.11739771431E+02 0.15953429203E+02 0.19922333030E+02
 0.21458179979E+02 0.19922333030E+02 0.15953429203E+02 0.11739771431E+02 0.10737801052E+02
 0.15546597443E+02 0.25343923791E+02 0.36044867467E+02 0.48023371811E+02 0.62813310780E+02
 0.17749441934E+03 0.15278392198E+03 0.10029283171E+03 0.57197895251E+02 0.36044867467E+02
 0.22075370168E+02 0.11739771431E+02 0.76620065403E+01 0.75606961698E+01 0.82580726107E+01
 0.85086686440E+01 0.82580726107E+01 0.75606961698E+01 0.76620065403E+01 0.11739771431E+02
 0.22075370168E+02 0.36044867467E+02 0.57197895251E+02 0.10029283171E+03 0.15278392198E+03
 0.37121601181E+03 0.31933717290E+03 0.20393427125E+03 0.10029283171E+03 0.48023371811E+02
 0.29883953433E+02 0.15953429203E+02 0.75606961698E+01 0.54243695666E+01 0.64381043906E+01
 0.72213655783E+01 0.64381043906E+01 0.54243695666E+01 0.75606961698E+01 0.15953429203E+02
 0.29883953433E+02 0.48023371811E+02 0.10029283171E+03 0.20393427125E+03 0.31933717290E+03
 0.57298063152E+03 0.49566567482E+03 0.31933717290E+03 0.15278392198E+03 0.62813310780E+02
 0.35998708050E+02 0.19922333030E+02 0.82580726107E+01 0.64381043906E+01 0.11026627795E+02
 0.13937213063E+02 0.11026627795E+02 0.64381043906E+01 0.82580726107E+01 0.19922333030E+02
 0.35998708050E+02 0.62813310780E+02 0.15278392198E+03 0.31933717290E+03 0.49566567482E+03
 0.57298063152E+03 0.49566567482E+03 0.31933717290E+03 0.15278392198E+03 0.62813310780E+02
 0.35998708050E+02 0.19922333030E+02 0.82580726107E+01 0.64381043906E+01 0.11026627795E+02
 0.13937213063E+02 0.11026627795E+02 0.64381043906E+01 0.82580726107E+01 0.19922333030E+02
 0.35998708050E+02 0.62813310780E+02 0.15278392198E+03 0.31933717290E+03 0.49566567482E+03
 0.49566567482E+03 0.42787758094E+03 0.27446897476E+03 0.13182414613E+03 0.56571785515E+02
 0.33685208019E+02 0.18554927956E+02 0.82396232461E+01 0.61623092558E+01 0.90859675484E+01
 0.11026627795E+02 0.90859675484E+01 0.61623092558E+01 0.82396232461E+01 0.18554927956E+02
 0.33685208019E+02 0.56571785515E+02 0.13182414613E+03 0.27446897476E+03 0.42787758094E+03
 0.31933717290E+03 0.27446897476E+03 0.17534520408E+03 0.87590308945E+02 0.44091980837E+02
 0.27716684768E+02 0.15048096371E+02 0.79569113432E+01 0.59589360135E+01 0.61623092558E+01
 0.64381043906E+01 0.61623092558E+01 0.59589360135E+01 0.79569113432E+01 0.15048096371E+02
 0.27716684768E+02 0.44091980837E+02 0.87590308945E+02 0.17534520408E+03 0.27446897476E+03
 0.15278392198E+03 0.13182414613E+03 0.87590308945E+02 0.51683570325E+02 0.33603044204E+02
 0.20468791618E+02 0.11357240013E+02 0.80557226107E+01 0.79569113432E+01 0.82396232461E+01
 0.82580726107E+01 0.82396232461E+01 0.79569113432E+01 0.80557226107E+01 0.11357240013E+02
 0.20468791618E+02 0.33603044204E+02 0.51683570325E+02 0.87590308945E+02 0.13182414613E+03
 0.62813310780E+02 0.56571785515E+02 0.44091980837E+02 0.33603044204E+02 0.23530395754E+02
 0.14709977407E+02 0.10481677068E+02 0.11357240013E+02 0.15048096371E+02 0.18554927956E+02
 0.19922333030E+02 0.18554927956E+02 0.15048096371E+02 0.11357240013E+02 0.10481677068E+02
 0.14709977407E+02 0.23530395754E+02 0.33603044204E+02 0.44091980837E+02 0.56571785515E+02
 0.35998708050E+02 0.33685208019E+02 0.27716684768E+02 0.20468791618E+02 0.14709977407E+02
 0.12535058908E+02 0.14709977407E+02 0.20468791618E+02 0.27716684768E+02 0.33685208019E+02
 0.35998708050E+02 0.33685208019E+02 0.27716684768E+02 0.20468791618E+02 0.14709977407E+02
 0.12535058908E+02 0.14709977407E+02 0.20468791618E+02 0.27716684768E+02 0.33685208019E+02
 0.19922333030E+02 0.18554927956E+02 0.15048096371E+02 0.11357240013E+02 0.10481677068E+02
 0.14709977407E+02 0.23530395754E+02 0.33603044204E+02 0.44091980837E+02 0.56571785515E+02
 0.62813310780E+02 0.56571785515E+02 0.44091980837E+02 0.33603044204E+02 0.23530395754E+02
 0.14709977407E+02 0.10481677068E+02 0.11357240013E+02 0.15048096371E+02 0.18554927956E+02
 0.82580726107E+01 0.82396232461E+01 0.79569113432E+01 0.80557226107E+01 0.11357240013E+02
 0.20468791618E+02 0.33603044204E+02 0.51683570325E+02 0.87590308945E+02 0.13182414613E+03
 0.15278392198E+03 0.13182414613E+03 0.87590308945E+02 0.51683570325E+02 0.33603044204E+02
 0.20468791618E+02 0.11357240013E+02 0.80557226107E+01 0.79569113432E+01 0.82396232461E+01
 0.64381043906E+01 0.61623092558E+01 0.59589360135E+01 0.79569113432E+01 0.15048096371E+02
 0.27716684768E+02 0.44091980837E+02 0.87590308945E+02 0.17534520408E+03 0.27446897476E+03
 0.31933717290E+03 0.27446897476E+03 0.17534520408E+03 0.87590308945E+02 0.44091980837E+02
 0.27716684768E+02 0.15048096371E+02 0.79569113432E+01 0.59589360135E+01 0.61623092558E+01
 0.11026627795E+02 0.90859675484E+01 0.61623092558E+01 0.82396232461E+01 0.18554927956E+02
 0.33685208019E+02 0.56571785515E+02 0.13182414613E+03 0.27446897476E+03 0.42787758094E+03
 0.49566567482E+03 0.42787758094E+03 0.27446897476E+03 0.13182414613E+03 0.56571785515E+02
 0.33685208019E+02 0.18554927956E+02 0.82396232461E+01 0.61623092558E+01 0.90859675484E+01
 0.13937213063E+02 0.11026627795E+02 0.64381043906E+01 0.82580726107E+01 0.19922333030E+02
 0.35998708050E+02 0.62813310780E+02 0.15278392198E+03 0.31933717290E+03 0.49566567482E+03
 0.57298063152E+03 0.49566567482E+03 0.31933717290E+03 0.15278392198E+03 0.62813310780E+02
 0.35998708050E+02 0.19922333030E+02 0.82580726107E+01 0.64381043906E+01 0.11026627795E+02
 0.11026627795E+02 0.90859675484E+01 0.61623092558E+01 0.82396232461E+01 0.18554927956E+02
 0.33685208019E+02 0.56571785515E+02 0.13182414613E+03 0.27446897476E+03 0.42787758094E+03
 0.49566567482E+03 0.42787758094E+03 0.27446897476E+03 0.13182414613E+03 0.56571785515E+02
 0.33685208019E+02 0.18554927956E+02 0.82396232461E+01 0.61623092558E+01 0.90859675484E+01
 0.64381043906E+01 0.61623092558E+01 0.59589360135E+01 0.79569113432E+01 0.15048096371E+02
 0.27716684768E+02 0.44091980837E+02 0.87590308945E+02 0.17534520408E+03 0.27446897476E+03
 0.31933717290E+03 0.27446897476E+03 0.17534520408E+03 0.87590308945E+02 0.44091980837E+02
 0.27716684768E+02 0.15048096371E+02 0.79569113432E+01 0.59589360135E+01 0.61623092558E+01
 0.82580726107E+01 0.82396232461E+01 0.79569113432E+01 0.80557226107E+01 0.11357240013E+02
 0.20468791618E+02 0.33603044204E+02 0.51683570325E+02 0.87590308945E+02 0.13182414613E+03
 0.15278392198E+03 0.13182414613E+03 0.87590308945E+02 0.51683570325E+02 0.33603044204E+02
 0.20468791618E+02 0.11357240013E+02 0.80557226107E+01 0.79569113432E+01 0.82396232461E+01
 0.19922333030E+02 0.18554927956E+02 0.15048096371E+02 0.11357240013E+02 0.10481677068E+02
 0.14709977407E+02 0.23530395754E+02 0.33603044204E+02 0.44091980837E+02 0.56571785515E+02
 0.62813310780E+02 0.56571785515E+02 0.44091980837E+02 0.33603044204E+02 0.23530395754E+02
 0.14709977407E+02 0.10481677068E+02 0.11357240013E+02 0.15048096371E+02 0.18554927956E+02
 0.35998708050E+02 0.33685208019E+02 0.27716684768E+02 0.20468791618E+02 0.14709977407E+02
 0.12535058908E+02 0.14709977407E+02 0.20468791618E+02 0.27716684768E+02 0.33685208019E+02
 0.35998708050E+02 0.33685208019E+02 0.27716684768E+02 0.20468791618E+02 0.14709977407E+02
 0.12535058908E+02 0.14709977407E+02 0.20468791618E+02 0.27716684768E+02 0.33685208019E+02
 0.62813310780E+02 0.56571785515E+02 0.44091980837E+02 0.33603044204E+02 0.23530395754E+02
 0.14709977407E+02 0.10481677068E+02 0.11357240013E+02 0.15048096371E+02 0.18554927956E+02
 0.19922333030E+02 0.18554927956E+02 0.15048096371E+02 0.11357240013E+02 0.10481677068E+02
 0.14709977407E+02 0.23530395754E+02 0.33603044204E+02 0.44091980837E+02 0.56571785515E+02
 0.15278392198E+03 0.13182414613E+03 0.87590308945E+02 0.51683570325E+02 0.33603044204E+02
 0.20468791618E+02 0.11357240013E+02 0.80557226107E+01 0.79569113432E+01 0.82396232461E+01
 0.82580726107E+01 0.82396232461E+01 0.79569113432E+01 0.80557226107E+01 0.11357240013E+02
 0.20468791618E+02 0.33603044204E+02 0.51683570325E+02 0.87590308945E+02 0.13182414613E+03
 0.31933717290E+03 0.27446897476E+03 0.17534520408E+03 0.87590308945E+02 0.44091980837E+02
 0.27716684768E+02 0.15048096371E+02 0.79569113432E+01 0.59589360135E+01 0.61623092558E+01
 0.64381043906E+01 0.61623092558E+01 0.59589360135E+01 0.79569113432E+01 0.15048096371E+02
 0.27716684768E+02 0.44091980837E+02 0.87590308945E+02 0.17534520408E+03 0.27446897476E+03
 0.49566567482E+03 0.42787758094E+03 0.27446897476E+03 0.13182414613E+03 0.56571785515E+02
 0.33685208019E+02 0.18554927956E+02 0.82396232461E+01 0.61623092558E+01 0.90859675484E+01
 0.11026627795E+02 0.90859675484E+01 0.61623092558E+01 0.82396232461E+01 0.18554927956E+02
 0.33685208019E+02 0.56571785515E+02 0.13182414613E+03 0.27446897476E+03 0.42787758094E+03
 0.37121601181E+03 0.31933717290E+03 0.20393427125E+03 0.10029283171E+03 0.48023371811E+02
 0.29883953433E+02 0.15953429203E+02 0.75606961698E+01 0.54243695666E+01 0.64381043906E+01
 0.72213655783E+01 0.64381043906E+01 0.54243695666E+01 0.75606961698E+01 0.15953429203E+02
 0.29883953433E+02 0.48023371811E+02 0.10029283171E+03 0.20393427125E+03 0.31933717290E+03
 0.31933717290E+03 0.27446897476E+03 0.17534520408E+03 0.87590308945E+02 0.44091980837E+02
 0.27716684768E+02 0.15048096371E+02 0.79569113432E+01 0.59589360135E+01 0.61623092558E+01
 0.64381043906E+01 0.61623092558E+01 0.59589360135E+01 0.79569113432E+01 0.15048096371E+02
 0.27716684768E+02 0.44091980837E+02 0.87590308945E+02 0.17534520408E+03 0.27446897476E+03
 0.20393427125E+03 0.17534520408E+03 0.11357666238E+03 0.61284989979E+02 0.35941041930E+02
 0.22453569408E+02 0.12781128645E+02 0.84727067323E+01 0.69903473639E+01 0.59589360135E+01
 0.54243695666E+01 0.59589360135E+01 0.69903473639E+01 0.84727067323E+01 0.12781128645E+02
 0.22453569408E+02 0.35941041930E+02 0.61284989979E+02 0.11357666238E+03 0.17534520408E+03
 0.10029283171E+03 0.87590308945E+02 0.61284989979E+02 0.40334792592E+02 0.27600419660E+02
 0.16769736382E+02 0.10471303320E+02 0.86744252088E+01 0.84727067323E+01 0.79569113432E+01
 0.75606961698E+01 0.79569113432E+01 0.84727067323E+01 0.86744252088E+01 0.10471303320E+02
 0.16769736382E+02 0.27600419660E+02 0.40334792592E+02 0.61284989979E+02 0.87590308945E+02
 0.48023371811E+02 0.44091980837E+02 0.35941041930E+02 0.27600419660E+02 0.19204608284E+02
 0.12836216721E+02 0.99810460064E+01 0.10471303320E+02 0.12781128645E+02 0.15048096371E+02
 0.15953429203E+02 0.15048096371E+02 0.12781128645E+02 0.10471303320E+02 0.99810460064E+01
 0.12836216721E+02 0.19204608284E+02 0.27600419660E+02 0.35941041930E+02 0.44091980837E+02
 0.29883953433E+02 0.27716684768E+02 0.22453569408E+02 0.16769736382E+02 0.12836216721E+02
 0.11490683390E+02 0.12836216721E+02 0.16769736382E+02 0.22453569408E+02 0.27716684768E+02
 0.29883953433E+02 0.27716684768E+02 0.22453569408E+02 0.16769736382E+02 0.12836216721E+02
 0.11490683390E+02 0.12836216721E+02 0.16769736382E+02 0.22453569408E+02 0.27716684768E+02
 0.15953429203E+02 0.15048096371E+02 0.12781128645E+02 0.10471303320E+02 0.99810460064E+01
 0.12836216721E+02 0.19204608284E+02 0.27600419660E+02 0.35941041930E+02 0.44091980837E+02
 0.48023371811E+02 0.44091980837E+02 0.35941041930E+02 0.27600419660E+02 0.19204608284E+02
 0.12836216721E+02 0.99810460064E+01 0.10471303320E+02 0.12781128645E+02 0.15048096371E+02
 0.75606961698E+01 0.79569113432E+01 0.84727067323E+01 0.86744252088E+01 0.10471303320E+02
 0.16769736382E+02 0.27600419660E+02 0.40334792592E+02 0.61284989979E+02 0.87590308945E+02
 0.10029283171E+03 0.87590308945E+02 0.61284989979E+02 0.40334792592E+02 0.27600419660E+02
 0.16769736382E+02 0.10471303320E+02 0.86744252088E+01 0.84727067323E+01 0.79569113432E+01
 0.54243695666E+01 0.59589360135E+01 0.69903473639E+01 0.84727067323E+01 0.12781128645E+02
 0.22453569408E+02 0.35941041930E+02 0.61284989979E+02 0.11357666238E+03 0.17534520408E+03
 0.20393427125E+03 0.17534520408E+03 0.11357666238E+03 0.61284989979E+02 0.35941041930E+02
 0.22453569408E+02 0.12781128645E+02 0.84727067323E+01 0.69903473639E+01 0.59589360135E+01
 0.64381043906E+01 0.61623092558E+01 0.59589360135E+01 0.79569113432E+01 0.15048096371E+02
 0.27716684768E+02 0.44091980837E+02 0.87590308945E+02 0.17534520408E+03 0.27446897476E+03
 0.31933717290E+03 0.27446897476E+03 0.17534520408E+03 0.87590308945E+02 0.44091980837E+02
 0.27716684768E+02 0.15048096371E+02 0.79569113432E+01 0.59589360135E+01 0.61623092558E+01
 0.72213655783E+01 0.64381043906E+01 0.54243695666E+01 0.75606961698E+01 0.15953429203E+02
 0.29883953433E+02 0.48023371811E+02 0.10029283171E+03 0.20393427125E+03 0.31933717290E+03
 0.37121601181E+03 0.31933717290E+03 0.20393427125E+03 0.10029283171E+03 0.48023371811E+02
 0.29883953433E+02 0.15953429203E+02 0.75606961698E+01 0.54243695666E+01 0.64381043906E+01
 0.64381043906E+01 0.61623092558E+01 0.59589360135E+01 0.79569113432E+01 0.15048096371E+02
 0.27716684768E+02 0.44091980837E+02 0.87590308945E+02 0.17534520408E+03 0.27446897476E+03
 0.31933717290E+03 0.27446897476E+03 0.17534520408E+03 0.87590308945E+02 0.44091980837E+02
 0.27716684768E+02 0.15048096371E+02 0.79569113432E+01 0.59589360135E+01 0.61623092558E+01
 0.54243695666E+01 0.59589360135E+01 0.69903473639E+01 0.84727067323E+01 0.12781128645E+02
 0.22453569408E+02 0.35941041930E+02 0.61284989979E+02 0.11357666238E+03 0.17534520408E+03
 0.20393427125E+03 0.17534520408E+03 0.11357666238E+03 0.61284989979E+02 0.35941041930E+02
 0.22453569408E+02 0.12781128645E+02 0.84727067323E+01 0.69903473639E+01 0.59589360135E+01
 0.75606961698E+01 0.79569113432E+01 0.84727067323E+01 0.86744252088E+01 0.10471303320E+02
 0.16769736382E+02 0.27600419660E+02 0.40334792592E+02 0.61284989979E+02 0.87590308945E+02
 0.10029283171E+03 0.87590308945E+02 0.61284989979E+02 0.40334792592E+02 0.27600419660E+02
 0.16769736382E+02 0.10471303320E+02 0.86744252088E+01 0.84727067323E+01 0.79569113432E+01
 0.15953429203E+02 0.15048096371E+02 0.12781128645E+02 0.10471303320E+02 0.99810460064E+01
 0.12836216721E+02 0.19204608284E+02 0.27600419660E+02 0.35941041930E+02 0.44091980837E+02
 0.48023371811E+02 0.44091980837E+02 0.35941041930E+02 0.27600419660E+02 0.19204608284E+02
 0.12836216721E+02 0.99810460064E+01 0.10471303320E+02 0.12781128645E+02 0.15048096371E+02
 0.29883953433E+02 0.27716684768E+02 0.22453569408E+02 0.16769736382E+02 0.12836216721E+02
 0.11490683390E+02 0.12836216721E+02 0.16769736382E+02 0.22453569408E+02 0.27716684768E+02
 0.29883953433E+02 0.27716684768E+02 0.22453569408E+02 0.16769736382E+02 0.12836216721E+02
 0.11490683390E+02 0.12836216721E+02 0.16769736382E+02 0.22453569408E+02 0.27716684768E+02
 0.48023371811E+02 0.44091980837E+02 0.35941041930E+02 0.27600419660E+02 0.19204608284E+02
 0.12836216721E+02 0.99810460064E+01 0.10471303320E+02 0.12781128645E+02 0.15048096371E+02
 0.15953429203E+02 0.15048096371E+02 0.12781128645E+02 0.10471303320E+02 0.99810460064E+01
 0.12836216721E+02 0.19204608284E+02 0.27600419660E+02 0.35941041930E+02 0.44091980837E+02
 0.10029283171E+03 0.87590308945E+02 0.61284989979E+02 0.40334792592E+02 0.27600419660E+02
 0.16769736382E+02 0.10471303320E+02 0.86744252088E+01 0.84727067323E+01 0.79569113432E+01
 0.75606961698E+01 0.79569113432E+01 0.84727067323E+01 0.86744252088E+01 0.10471303320E+02
 0.16769736382E+02 0.27600419660E+02 0.40334792592E+02 0.61284989979E+02 0.87590308945E+02
 0.20393427125E+03 0.17534520408E+03 0.11357666238E+03 0.61284989979E+02 0.35941041930E+02
 0.22453569408E+02 0.12781128645E+02 0.84727067323E+01 0.69903473639E+01 0.59589360135E+01
 0.54243695666E+01 0.59589360135E+01 0.69903473639E+01 0.84727067323E+01 0.12781128645E+02
 0.22453569408E+02 0.35941041930E+02 0.61284989979E+02 0.11357666238E+03 0.17534520408E+03
 0.31933717290E+03 0.27446897476E+03 0.17534520408E+03 0.87590308945E+02 0.44091980837E+02
 0.27716684768E+02 0.15048096371E+02 0.79569113432E+01 0.59589360135E+01 0.61623092558E+01
 0.64381043906E+01 0.61623092558E+01 0.59589360135E+01 0.79569113432E+01 0.15048096371E+02
 0.27716684768E+02 0.44091980837E+02 0.87590308945E+02 0.17534520408E+03 0.27446897476E+03
 0.17749441934E+03 0.15278392198E+03 0.10029283171E+03 0.57197895251E+02 0.36044867467E+02
 0.22075370168E+02 0.11739771431E+02 0.76620065403E+01 0.75606961698E+01 0.82580726107E+01
 0.85086686440E+01 0.82580726107E+01 0.75606961698E+01 0.76620065403E+01 0.11739771431E+02
 0.22075370168E+02 0.36044867467E+02 0.57197895251E+02 0.10029283171E+03 0.15278392198E+03
 0.15278392198E+03 0.13182414613E+03 0.87590308945E+02 0.51683570325E+02 0.33603044204E+02
 0.20468791618E+02 0.11357240013E+02 0.80557226107E+01 0.79569113432E+01 0.82396232461E+01
 0.82580726107E+01 0.82396232461E+01 0.79569113432E+01 0.80557226107E+01 0.11357240013E+02
 0.20468791618E+02 0.33603044204E+02 0.51683570325E+02 0.87590308945E+02 0.13182414613E+03
 0.10029283171E+03 0.87590308945E+02 0.61284989979E+02 0.40334792592E+02 0.27600419660E+02
 0.16769736382E+02 0.10471303320E+02 0.86744252088E+01 0.84727067323E+01 0.79569113432E+01
 0.75606961698E+01 0.79569113432E+01 0.84727067323E+01 0.86744252088E+01 0.10471303320E+02
 0.16769736382E+02 0.27600419660E+02 0.40334792592E+02 0.61284989979E+02 0.87590308945E+02
 0.57197895251E+02 0.51683570325E+02 0.40334792592E+02 0.30104060456E+02 0.20531512477E+02
 0.13211496684E+02 0.96915265443E+01 0.89008971423E+01 0.86744252088E+01 0.80557226107E+01
 0.76620065403E+01 0.80557226107E+01 0.86744252088E+01 0.89008971423E+01 0.96915265443E+01
 0.13211496684E+02 0.20531512477E+02 0.30104060456E+02 0.40334792592E+02 0.51683570325E+02
 0.36044867467E+02 0.33603044204E+02 0.27600419660E+02 0.20531512477E+02 0.14710062856E+02
 0.11153199149E+02 0.96938116465E+01 0.96915265443E+01 0.10471303320E+02 0.11357240013E+02
 0.11739771431E+02 0.11357240013E+02 0.10471303320E+02 0.96915265443E+01 0.96938116465E+01
 0.11153199149E+02 0.14710062856E+02 0.20531512477E+02 0.27600419660E+02 0.33603044204E+02
 0.22075370168E+02 0.20468791618E+02 0.16769736382E+02 0.13211496684E+02 0.11153199149E+02
 0.10560664625E+02 0.11153199149E+02 0.13211496684E+02 0.16769736382E+02 0.20468791618E+02
 0.22075370168E+02 0.20468791618E+02 0.16769736382E+02 0.13211496684E+02 0.11153199149E+02
 0.10560664625E+02 0.11153199149E+02 0.13211496684E+02 0.16769736382E+02 0.20468791618E+02
 0.11739771431E+02 0.11357240013E+02 0.10471303320E+02 0.96915265443E+01 0.96938116465E+01
 0.11153199149E+02 0.14710062856E+02 0.20531512477E+02 0.27600419660E+02 0.33603044204E+02
 0.36044867467E+02 0.33603044204E+02 0.27600419660E+02 0.20531512477E+02 0.14710062856E+02
 0.11153199149E+02 0.96938116465E+01 0.96915265443E+01 0.10471303320E+02 0.11357240013E+02
 0.76620065403E+01 0.80557226107E+01 0.86744252088E+01 0.89008971423E+01 0.96915265443E+01
 0.13211496684E+02 0.20531512477E+02 0.30104060456E+02 0.40334792592E+02 0.51683570325E+02
 0.57197895251E+02 0.51683570325E+02 0.40334792592E+02 0.30104060456E+02 0.20531512477E+02
 0.13211496684E+02 0.96915265443E+01 0.89008971423E+01 0.86744252088E+01 0.80557226107E+01
 0.75606961698E+01 0.79569113432E+01 0.84727067323E+01 0.86744252088E+01 0.10471303320E+02
 0.16769736382E+02 0.27600419660E+02 0.40334792592E+02 0.61284989979E+02 0.87590308945E+02
 0.10029283171E+03 0.87590308945E+02 0.61284989979E+02 0.40334792592E+02 0.27600419660E+02
 0.16769736382E+02 0.10471303320E+02 0.86744252088E+01 0.84727067323E+01 0.79569113432E+01
 0.82580726107E+01 0.82396232461E+01 0.79569113432E+01 0.80557226107E+01 0.11357240013E+02
 0.20468791618E+02 0.33603044204E+02 0.51683570325E+02 0.87590308945E+02 0.13182414613E+03
 0.15278392198E+03 0.13182414613E+03 0.87590308945E+02 0.51683570325E+02 0.33603044204E+02
 0.20468791618E+02 0.11357240013E+02 0.80557226107E+01 0.79569113432E+01 0.82396232461E+01
 0.85086686440E+01 0.82580726107E+01 0.75606961698E+01 0.76620065403E+01 0.11739771431E+02
 0.22075370168E+02 0.36044867467E+02 0.57197895251E+02 0.10029283171E+03 0.15278392198E+03
 0.17749441934E+03 0.15278392198E+03 0.10029283171E+03 0.57197895251E+02 0.36044867467E+02
 0.22075370168E+02 0.11739771431E+02 0.76620065403E+01 0.75606961698E+01 0.82580726107E+01
 0.82580726107E+01 0.82396232461E+01 0.79569113432E+01 0.80557226107E+01 0.11357240013E+02
 0.20468791618E+02 0.33603044204E+02 0.51683570325E+02 0.87590308945E+02 0.13182414613E+03
 0.15278392198E+03 0.13182414613E+03 0.87590308945E+02 0.51683570325E+02 0.33603044204E+02
 0.20468791618E+02 0.11357240013E+02 0.80557226107E+01 0.79569113432E+01 0.82396232461E+01
 0.75606961698E+01 0.79569113432E+01 0.84727067323E+01 0.86744252088E+01 0.10471303320E+02
 0.16769736382E+02 0.27600419660E+02 0.40334792592E+02 0.61284989979E+02 0.87590308945E+02
 0.10029283171E+03 0.87590308945E+02 0.61284989979E+02 0.40334792592E+02 0.27600419660E+02
 0.16769736382E+02 0.10471303320E+02 0.86744252088E+01 0.84727067323E+01 0.79569113432E+01
 0.76620065403E+01 0.80557226107E+01 0.86744252088E+01 0.89008971423E+01 0.96915265443E+01
 0.13211496684E+02 0.20531512477E+02 0.30104060456E+02 0.40334792592E+02 0.51683570325E+02
 0.57197895251E+02 0.51683570325E+02 0.40334792592E+02 0.30104060456E+02 0.20531512477E+02
 0.13211496684E+02 0.96915265443E+01 0.89008971423E+01 0.86744252088E+01 0.80557226107E+01
 0.11739771431E+02 0.11357240013E+02 0.10471303320E+02 0.96915265443E+01 0.96938116465E+01
 0.11153199149E+02 0.14710062856E+02 0.20531512477E+02 0.27600419660E+02 0.33603044204E+02
 0.36044867467E+02 0.33603044204E+02 0.27600419660E+02 0.20531512477E+02 0.14710062856E+02
 0.11153199149E+02 0.96938116465E+01 0.96915265443E+01 0.10471303320E+02 0.11357240013E+02
 0.22075370168E+02 0.20468791618E+02 0.16769736382E+02 0.13211496684E+02 0.11153199149E+02
 0.10560664625E+02 0.11153199149E+02 0.13211496684E+02 0.16769736382E+02 0.20468791618E+02
 0.22075370168E+02 0.20468791618E+02 0.16769736382E+02 0.13211496684E+02 0.11153199149E+02
 0.10560664625E+02 0.11153199149E+02 0.13211496684E+02 0.16769736382E+02 0.20468791618E+02
 0.36044867467E+02 0.33603044204E+02 0.27600419660E+02 0.20531512477E+02 0.14710062856E+02
 0.11153199149E+02 0.96938116465E+01 0.96915265443E+01 0.10471303320E+02 0.11357240013E+02
 0.11739771431E+02 0.11357240013E+02 0.10471303320E+02 0.96915265443E+01 0.96938116465E+01
 0.11153199149E+02 0.14710062856E+02 0.20531512477E+02 0.27600419660E+02 0.33603044204E+02
 0.57197895251E+02 0.51683570325E+02 0.40334792592E+02 0.30104060456E+02 0.20531512477E+02
 0.13211496684E+02 0.96915265443E+01 0.89008971423E+01 0.86744252088E+01 0.80557226107E+01
 0.76620065403E+01 0.80557226107E+01 0.86744252088E+01 0.89008971423E+01 0.96915265443E+01
 0.13211496684E+02 0.20531512477E+02 0.30104060456E+02 0.40334792592E+02 0.51683570325E+02
 0.10029283171E+03 0.87590308945E+02 0.61284989979E+02 0.40334792592E+02 0.27600419660E+02
 0.16769736382E+02 0.10471303320E+02 0.86744252088E+01 0.84727067323E+01 0.79569113432E+01
 0.75606961698E+01 0.79569113432E+01 0.84727067323E+01 0.86744252088E+01 0.10471303320E+02
 0.16769736382E+02 0.27600419660E+02 0.40334792592E+02 0.61284989979E+02 0.87590308945E+02
 0.15278392198E+03 0.13182414613E+03 0.87590308945E+02 0.51683570325E+02 0.33603044204E+02
 0.20468791618E+02 0.11357240013E+02 0.80557226107E+01 0.79569113432E+01 0.82396232461E+01
 0.82580726107E+01 0.82396232461E+01 0.79569113432E+01 0.80557226107E+01 0.11357240013E+02
 0.20468791618E+02 0.33603044204E+02 0.51683570325E+02 0.87590308945E+02 0.13182414613E+03
 0.70217084761E+02 0.62813310780E+02 0.48023371811E+02 0.36044867467E+02 0.25343923791E+02
 0.15546597443E+02 0.10737801052E+02 0.11739771431E+02 0.15953429203E+02 0.19922333030E+02
 0.21458179979E+02 0.19922333030E+02 0.15953429203E+02 0.11739771431E+02 0.10737801052E+02
 0.15546597443E+02 0.25343923791E+02 0.36044867467E+02 0.48023371811E+02 0.62813310780E+02
 0.62813310780E+02 0.56571785515E+02 0.44091980837E+02 0.33603044204E+02 0.23530395754E+02