   4   4   0   0
  0.1200752E+02  0.3635000E-09  0.3635000E-09  0.3635000E-09  0.5000000E-15
  1.000000000000000E-004
  CAR 
 unknown system                          
     26.15949059    -10.98713235  301     10.15857299      1.00000000
    -10.987  0.0000E+00  0.0000E+00
    -10.863  0.0000E+00  0.0000E+00
    -10.739  0.0000E+00  0.0000E+00
    -10.616 -0.9516E-29 -0.1178E-29
    -10.492 -0.1433E-24 -0.1775E-25
    -10.368 -0.9963E-21 -0.1234E-21
    -10.244 -0.3191E-17 -0.3952E-18
    -10.120 -0.4558E-14 -0.5648E-15
     -9.997 -0.3056E-11 -0.3789E-12
     -9.873 -0.9333E-09 -0.1159E-09
     -9.749 -0.1288E-06 -0.1606E-07
     -9.625 -0.7902E-05 -0.9945E-06
     -9.501 -0.2089E-03 -0.2687E-04
     -9.377 -0.2192E-02 -0.2982E-03
     -9.254 -0.6358E-02 -0.1085E-02
     -9.130  0.1795E-01  0.1138E-02
     -9.006  0.9952E-01  0.1346E-01
     -8.882  0.1196E+00  0.2827E-01
     -8.758  0.3899E-01  0.3310E-01
     -8.635 -0.4768E-02  0.3251E-01
     -8.511 -0.3608E-02  0.3206E-01
     -8.387 -0.4744E-03  0.3200E-01
     -8.263 -0.2346E-04  0.3200E-01
     -8.139 -0.5766E-06  0.3200E-01
     -8.015 -0.8549E-05  0.3200E-01
     -7.892 -0.3791E-03  0.3195E-01
     -7.768 -0.7086E-02  0.3107E-01
     -7.644 -0.4884E-01  0.2503E-01
     -7.520 -0.4406E-01  0.1957E-01
     -7.396  0.5412E+00  0.8658E-01
     -7.272  0.1406E+01  0.2606E+00
     -7.149  0.1033E+01  0.3885E+00
     -7.025  0.8488E+00  0.4936E+00
     -6.901  0.2259E+01  0.7733E+00
     -6.777  0.3568E+01  0.1215E+01
     -6.653  0.3547E+01  0.1654E+01
     -6.530  0.2192E+01  0.1926E+01
     -6.406  0.1583E+01  0.2122E+01
     -6.282  0.2579E+01  0.2441E+01
     -6.158  0.3400E+01  0.2862E+01
     -6.034  0.3157E+01  0.3253E+01
     -5.910  0.2592E+01  0.3574E+01
     -5.787  0.2464E+01  0.3879E+01
     -5.663  0.2014E+01  0.4128E+01
     -5.539  0.1932E+01  0.4368E+01
     -5.415  0.3747E+01  0.4832E+01
     -5.291  0.3980E+01  0.5324E+01
     -5.167  0.3093E+01  0.5707E+01
     -5.044  0.3506E+01  0.6142E+01
     -4.920  0.4171E+01  0.6658E+01
     -4.796  0.2852E+01  0.7011E+01
     -4.672  0.2871E+01  0.7367E+01
     -4.548  0.6501E+01  0.8172E+01
     -4.425  0.5686E+01  0.8876E+01
     -4.301  0.1363E+01  0.9044E+01
     -4.177  0.1039E+01  0.9173E+01
     -4.053  0.4528E+01  0.9734E+01
     -3.929  0.7559E+01  0.1067E+02
     -3.805  0.5606E+01  0.1136E+02
     -3.682  0.1738E+01  0.1158E+02
     -3.558  0.1548E+01  0.1177E+02
     -3.434  0.2432E+01  0.1207E+02
     -3.310  0.2696E+01  0.1241E+02
     -3.186  0.3730E+01  0.1287E+02
     -3.063  0.4395E+01  0.1341E+02
     -2.939  0.3475E+01  0.1384E+02
     -2.815  0.1606E+01  0.1404E+02
     -2.691  0.3420E+00  0.1408E+02
     -2.567  0.1064E+01  0.1421E+02
     -2.443  0.2106E+01  0.1448E+02
     -2.320  0.1837E+01  0.1470E+02
     -2.196  0.2024E+01  0.1495E+02
     -2.072  0.3271E+01  0.1536E+02
     -1.948  0.5321E+01  0.1602E+02
     -1.824  0.7852E+01  0.1699E+02
     -1.700  0.7159E+01  0.1788E+02
     -1.577  0.3449E+01  0.1830E+02
     -1.453  0.1147E+01  0.1845E+02
     -1.329  0.1478E+01  0.1863E+02
     -1.205  0.2356E+01  0.1892E+02
     -1.081  0.1664E+01  0.1913E+02
     -0.958  0.4792E+00  0.1919E+02
     -0.834  0.2908E+00  0.1922E+02
     -0.710  0.3802E+00  0.1927E+02
     -0.586  0.1240E+01  0.1942E+02
     -0.462  0.3025E+01  0.1980E+02
     -0.338  0.3749E+01  0.2026E+02
     -0.215  0.4008E+01  0.2076E+02
     -0.091  0.6281E+01  0.2153E+02
      0.033  0.6506E+01  0.2234E+02
      0.157  0.4424E+01  0.2289E+02
      0.281  0.2854E+01  0.2324E+02
      0.404  0.1777E+01  0.2346E+02
      0.528  0.1545E+01  0.2365E+02
      0.652  0.1010E+01  0.2378E+02
      0.776  0.1949E+00  0.2380E+02
      0.900  0.4658E+00  0.2386E+02
      1.024  0.8859E+00  0.2397E+02
      1.147  0.9423E+00  0.2409E+02
      1.271  0.1785E+01  0.2431E+02
      1.395  0.2701E+01  0.2464E+02
      1.519  0.4441E+01  0.2519E+02
      1.643  0.5651E+01  0.2589E+02
      1.767  0.4099E+01  0.2640E+02
      1.890  0.2193E+01  0.2667E+02
      2.014  0.1917E+01  0.2691E+02
      2.138  0.2058E+01  0.2716E+02
      2.262  0.3379E+01  0.2758E+02
      2.386  0.4295E+01  0.2811E+02
      2.509  0.2225E+01  0.2839E+02
      2.633  0.1433E+01  0.2857E+02
      2.757  0.2452E+01  0.2887E+02
      2.881  0.2094E+01  0.2913E+02
      3.005  0.1517E+01  0.2932E+02
      3.129  0.2093E+01  0.2958E+02
      3.252  0.2576E+01  0.2989E+02
      3.376  0.2527E+01  0.3021E+02
      3.500  0.2493E+01  0.3052E+02
      3.624  0.1860E+01  0.3075E+02
      3.748  0.1236E+01  0.3090E+02
      3.872  0.1860E+01  0.3113E+02
      3.995  0.2686E+01  0.3146E+02
      4.119  0.3294E+01  0.3187E+02
      4.243  0.2132E+01  0.3213E+02
      4.367  0.2831E+00  0.3217E+02
      4.491 -0.1560E+00  0.3215E+02
      4.614 -0.4536E-01  0.3214E+02
      4.738 -0.4972E-02  0.3214E+02
      4.862 -0.9628E-02  0.3214E+02
      4.986 -0.3171E-01  0.3214E+02
      5.110 -0.1054E-01  0.3214E+02
      5.234  0.2470E+00  0.3217E+02
      5.357  0.1400E+01  0.3234E+02
      5.481  0.2925E+01  0.3270E+02
      5.605  0.2087E+01  0.3296E+02
      5.729  0.1140E+01  0.3310E+02
      5.853  0.3154E+01  0.3349E+02
      5.976  0.4635E+01  0.3407E+02
      6.100  0.3743E+01  0.3453E+02
      6.224  0.3447E+01  0.3496E+02
      6.348  0.4717E+01  0.3554E+02
      6.472  0.6457E+01  0.3634E+02
      6.596  0.5145E+01  0.3698E+02
      6.719  0.1925E+01  0.3722E+02
      6.843  0.3615E-01  0.3722E+02
      6.967 -0.2213E+00  0.3719E+02
      7.091  0.2113E+01  0.3746E+02
      7.215  0.6543E+01  0.3827E+02
      7.339  0.8383E+01  0.3930E+02
      7.462  0.5466E+01  0.3998E+02
      7.586  0.1427E+01  0.4016E+02
      7.710 -0.1779E+00  0.4014E+02
      7.834 -0.1610E+00  0.4012E+02
      7.958 -0.5284E-01  0.4011E+02
      8.081 -0.8694E-01  0.4010E+02
      8.205  0.1789E+00  0.4012E+02
      8.329  0.1170E+01  0.4026E+02
      8.453  0.1492E+01  0.4045E+02
      8.577  0.1498E+01  0.4064E+02
      8.701  0.3202E+01  0.4103E+02
      8.824  0.3057E+01  0.4141E+02
      8.948  0.1433E+01  0.4159E+02
      9.072  0.2278E+01  0.4187E+02
      9.196  0.2413E+01  0.4217E+02
      9.320  0.1585E+01  0.4236E+02
      9.444  0.3273E+01  0.4277E+02
      9.567  0.3879E+01  0.4325E+02
      9.691  0.1550E+01  0.4344E+02
      9.815 -0.1412E+00  0.4342E+02
      9.939 -0.3590E+00  0.4338E+02
     10.063  0.1300E+01  0.4354E+02
     10.186  0.5119E+01  0.4418E+02
     10.310  0.5506E+01  0.4486E+02
     10.434  0.1716E+01  0.4507E+02
     10.558 -0.2465E-01  0.4507E+02
     10.682  0.2076E+00  0.4509E+02
     10.806  0.1708E+00  0.4511E+02
     10.929  0.1246E+01  0.4527E+02
     11.053  0.4363E+01  0.4581E+02
     11.177  0.6262E+01  0.4658E+02
     11.301  0.5163E+01  0.4722E+02
     11.425  0.3351E+01  0.4764E+02
     11.548  0.4316E+01  0.4817E+02
     11.672  0.5134E+01  0.4881E+02
     11.796  0.2551E+01  0.4912E+02
     11.920  0.6886E+00  0.4921E+02
     12.044  0.1153E+00  0.4922E+02
     12.168  0.1946E-01  0.4923E+02
     12.291  0.1327E+01  0.4939E+02
     12.415  0.2906E+01  0.4975E+02
     12.539  0.2506E+01  0.5006E+02
     12.663  0.1654E+01  0.5026E+02
     12.787  0.1450E+01  0.5044E+02
     12.911  0.1576E+01  0.5064E+02
     13.034  0.1663E+01  0.5084E+02
     13.158  0.1972E+01  0.5109E+02
     13.282  0.2969E+01  0.5146E+02
     13.406  0.2000E+01  0.5170E+02
     13.530  0.1662E+00  0.5172E+02
     13.653  0.6845E+00  0.5181E+02
     13.777  0.3151E+01  0.5220E+02
     13.901  0.4148E+01  0.5271E+02
     14.025  0.2196E+01  0.5299E+02
     14.149  0.6995E+00  0.5307E+02
     14.273  0.5308E+00  0.5314E+02
     14.396  0.5013E+00  0.5320E+02
     14.520  0.1073E+01  0.5333E+02
     14.644  0.1875E+01  0.5356E+02
     14.768  0.1916E+01  0.5380E+02
     14.892  0.1830E+01  0.5403E+02
     15.016  0.3055E+01  0.5441E+02
     15.139  0.2662E+01  0.5474E+02
     15.263  0.1459E+01  0.5492E+02
     15.387  0.2431E+01  0.5522E+02
     15.511  0.2316E+01  0.5550E+02
     15.635  0.5821E+00  0.5558E+02
     15.758  0.2581E+00  0.5561E+02
     15.882  0.1265E+01  0.5577E+02
     16.006  0.1190E+01  0.5591E+02
     16.130  0.4529E+00  0.5597E+02
     16.254  0.1318E+01  0.5613E+02
     16.378  0.2150E+01  0.5640E+02
     16.501  0.9603E+00  0.5652E+02
     16.625  0.1474E+00  0.5654E+02
     16.749  0.1567E+01  0.5673E+02
     16.873  0.2982E+01  0.5710E+02
     16.997  0.2783E+01  0.5744E+02
     17.120  0.3468E+01  0.5787E+02
     17.244  0.3849E+01  0.5835E+02
     17.368  0.1736E+01  0.5856E+02
     17.492  0.1580E-01  0.5857E+02
     17.616 -0.1478E+00  0.5855E+02
     17.740 -0.3124E-01  0.5854E+02
     17.863 -0.2381E-01  0.5854E+02
     17.987 -0.7759E-01  0.5853E+02
     18.111  0.1247E+00  0.5855E+02
     18.235  0.1016E+01  0.5867E+02
     18.359  0.1669E+01  0.5888E+02
     18.483  0.1713E+01  0.5909E+02
     18.606  0.1424E+01  0.5927E+02
     18.730  0.4672E+00  0.5933E+02
     18.854 -0.6477E-01  0.5932E+02
     18.978 -0.4439E-01  0.5931E+02
     19.102  0.9408E-01  0.5932E+02
     19.225  0.1923E+00  0.5935E+02
     19.349  0.1068E+00  0.5936E+02
     19.473  0.4763E-02  0.5936E+02
     19.597 -0.8294E-02  0.5936E+02
     19.721 -0.1712E-02  0.5936E+02
     19.845 -0.1201E-03  0.5936E+02
     19.968 -0.7575E-04  0.5936E+02
     20.092 -0.2037E-02  0.5936E+02
     20.216 -0.2297E-01  0.5936E+02
     20.340 -0.7592E-01  0.5935E+02
     20.464  0.1675E+00  0.5937E+02
     20.587  0.1123E+01  0.5951E+02
     20.711  0.1474E+01  0.5969E+02
     20.835  0.5386E+00  0.5976E+02
     20.959 -0.4600E-01  0.5975E+02
     21.083 -0.4788E-01  0.5974E+02
     21.207 -0.6831E-02  0.5974E+02
     21.330 -0.3606E-03  0.5974E+02
     21.454 -0.8028E-05  0.5974E+02
     21.578 -0.7878E-07  0.5974E+02
     21.702 -0.3476E-09  0.5974E+02
     21.826 -0.6969E-12  0.5974E+02
     21.950 -0.6886E-15  0.5974E+02
     22.073  0.0000E+00  0.5974E+02
     22.197  0.0000E+00  0.5974E+02
     22.321  0.0000E+00  0.5974E+02
     22.445 -0.5993E-31  0.5974E+02
     22.569 -0.1545E-26  0.5974E+02
     22.692 -0.1839E-22  0.5974E+02
     22.816 -0.1010E-18  0.5974E+02
     22.940 -0.2554E-15  0.5974E+02
     23.064 -0.2872E-12  0.5974E+02
     23.188 -0.1517E-09  0.5974E+02
     23.312 -0.3641E-07  0.5974E+02
     23.435 -0.3934E-05  0.5974E+02
     23.559 -0.1877E-03  0.5974E+02
     23.683 -0.3795E-02  0.5974E+02
     23.807 -0.2886E-01  0.5974E+02
     23.931 -0.3814E-01  0.5974E+02
     24.055  0.3120E+00  0.5977E+02
     24.178  0.9569E+00  0.5989E+02
     24.302  0.7962E+00  0.5999E+02
     24.426  0.1436E+00  0.6001E+02
     24.550 -0.5086E-01  0.6000E+02
     24.674 -0.1753E-01  0.6000E+02
     24.797 -0.1672E-02  0.6000E+02
     24.921 -0.6321E-04  0.6000E+02
     25.045 -0.1030E-05  0.6000E+02
     25.169 -0.7467E-08  0.6000E+02
     25.293 -0.2445E-10  0.6000E+02
     25.417 -0.3627E-13  0.6000E+02
     25.540  0.0000E+00  0.6000E+02
     25.664  0.0000E+00  0.6000E+02
     25.788  0.0000E+00  0.6000E+02
     25.912  0.0000E+00  0.6000E+02
     26.036  0.0000E+00  0.6000E+02
     26.159  0.0000E+00  0.6000E+02
