    4    4    1    1
  0.1200752E+02  0.3635000E-09  0.3635000E-09  0.3635000E-09  0.5000000E-15
  1.000000000000000E-004
  CAR 
 unknown system                          
     44     10     30
 
  0.0000000E+00  0.0000000E+00  0.0000000E+00  0.8000000E-02
    1       -8.987132   1.000000
    2       -8.987132   1.000000
    3       -6.897955   1.000000
    4       -6.897955   1.000000
    5       -6.897955   1.000000
    6       -5.630979   1.000000
    7       -5.630979   1.000000
    8       -5.630979   1.000000
    9       -3.983271   1.000000
   10       -3.983271   1.000000
   11       -3.983271   1.000000
   12       -2.282755   1.000000
   13       -1.236102   1.000000
   14       -1.236102   1.000000
   15       -1.236102   1.000000
   16        8.333048   1.000000
   17        8.333048   1.000000
   18        8.333048   1.000000
   19       11.030383  -0.000000
   20       11.030383  -0.000000
   21       11.030383  -0.000000
   22       13.822964  -0.000000
   23       13.822964  -0.000000
   24       13.822964  -0.000000
   25       13.822964  -0.000000
   26       13.822964  -0.000000
   27       13.822964  -0.000000
   28       19.166362   0.000000
   29       19.166362   0.000000
   30       19.166362   0.000000
 
  0.2000000E+00  0.0000000E+00  0.0000000E+00  0.4800000E-01
    1       -6.842723   1.000000
    2       -6.842723   1.000000
    3       -6.800908   1.000000
    4       -5.432254   1.000000
    5       -4.004493   1.000000
    6       -3.909419   1.000000
    7       -3.909419   1.000000
    8       -3.611159   1.000000
    9       -3.611159   1.000000
   10       -1.833191   1.000000
   11       -1.831482   1.000000
   12       -1.620483   1.000000
   13       -1.471229   1.000000
   14       -1.471229   1.000000
   15       -1.163109   1.000000
   16        5.232035   1.000000
   17        8.740301   1.000000
   18        8.740301   1.000000
   19       11.421004  -0.000000
   20       11.421004  -0.000000
   21       12.306168  -0.000000
   22       12.306168  -0.000000
   23       12.960988  -0.000000
   24       12.960988  -0.000000
   25       13.911152  -0.000000
   26       13.911152  -0.000000
   27       15.014254  -0.000000
   28       16.257885   0.000000
   29       16.257885   0.000000
   30       17.227435   0.000000
 
  0.4000000E+00  0.0000000E+00  0.0000000E+00  0.4800000E-01
    1       -6.514828   1.000000
    2       -6.053088   1.000000
    3       -5.423810   1.000000
    4       -5.423810   1.000000
    5       -3.019683   1.000000
    6       -2.991915   1.000000
    7       -2.991915   1.000000
    8       -2.400553   1.000000
    9       -2.201605   1.000000
   10       -2.108848   1.000000
   11       -1.856467   1.000000
   12       -1.856467   1.000000
   13       -0.370674   1.000000
   14       -0.066245   1.000000
   15       -0.066245   1.000000
   16        1.991367   1.000000
   17        7.137177   1.000000
   18        7.137177   1.000000
   19        9.036937   1.000000
   20        9.036937   1.000000
   21       11.648284  -0.000000
   22       11.648284  -0.000000
   23       12.668017  -0.000000
   24       12.668017  -0.000000
   25       12.989856  -0.000000
   26       12.989856  -0.000000
   27       14.173594  -0.000000
   28       14.173594  -0.000000
   29       14.598027  -0.000000
   30       14.598027  -0.000000
 
  0.2000000E+00  0.2000000E+00  0.0000000E+00  0.9600000E-01
    1       -6.747390   1.000000
    2       -6.747390   1.000000
    3       -5.808592   1.000000
    4       -5.189658   1.000000
    5       -5.189658   1.000000
    6       -5.093973   1.000000
    7       -4.126053   1.000000
    8       -2.989602   1.000000
    9       -2.087114   1.000000
   10       -1.711293   1.000000
   11       -1.711293   1.000000
   12       -1.311165   1.000000
   13       -0.169087   1.000000
   14        0.144619   1.000000
   15        2.962822   1.000000
   16        5.463946   1.000000
   17        5.463946   1.000000
   18        7.303974   1.000000
   19        7.303974   1.000000
   20        9.072054   1.000000
   21       11.857081  -0.000000
   22       12.379656  -0.000000
   23       12.392160  -0.000000
   24       12.392160  -0.000000
   25       12.814365  -0.000000
   26       13.827526  -0.000000
   27       15.421523  -0.000000
   28       15.421523  -0.000000
   29       16.834010   0.000000
   30       16.834010   0.000000
 
  0.4000000E+00  0.2000000E+00  0.0000000E+00  0.1920000E+00
    1       -7.302119   1.000000
    2       -6.364557   1.000000
    3       -6.234622   1.000000
    4       -5.968963   1.000000
    5       -5.749206   1.000000
    6       -4.559545   1.000000
    7       -4.483487   1.000000
    8       -2.538790   1.000000
    9       -1.963927   1.000000
   10       -1.937047   1.000000
   11       -0.411032   1.000000
   12        0.006946   1.000000
   13        0.112363   1.000000
   14        1.511396   1.000000
   15        2.268582   1.000000
   16        2.315813   1.000000
   17        3.332089   1.000000
   18        5.442415   1.000000
   19        5.933428   1.000000
   20        7.156497   1.000000
   21        7.357737   1.000000
   22       10.214346   0.273870
   23       11.066703  -0.000000
   24       11.162117  -0.000000
   25       13.235992  -0.000000
   26       13.719981  -0.000000
   27       14.991432  -0.000000
   28       15.335526  -0.000000
   29       16.775661   0.000000
   30       18.266499   0.000000
 
  0.4000000E+00  0.4000000E+00  0.0000000E+00  0.9600000E-01
    1       -5.200241   1.000000
    2       -3.917980   1.000000
    3       -3.917980   1.000000
    4       -3.573855   1.000000
    5       -3.458843   1.000000
    6       -3.458843   1.000000
    7       -2.907062   1.000000
    8       -2.413986   1.000000
    9       -1.237835   1.000000
   10        1.276432   1.000000
   11        2.101742   1.000000
   12        2.345307   1.000000
   13        2.345307   1.000000
   14        2.653891   1.000000
   15        2.653891   1.000000
   16        3.079324   1.000000
   17        3.780222   1.000000
   18        3.876038   1.000000
   19        3.876038   1.000000
   20        5.935679   1.000000
   21        6.467740   1.000000
   22        6.467740   1.000000
   23        6.666433   1.000000
   24       10.110965   0.695255
   25       12.581693  -0.000000
   26       14.472490  -0.000000
   27       15.015936  -0.000000
   28       15.015936  -0.000000
   29       16.325383   0.000000
   30       16.325383   0.000000
 
  0.2000000E+00  0.2000000E+00  0.2000000E+00  0.6400000E-01
    1       -6.138344   1.000000
    2       -6.138344   1.000000
    3       -6.138344   1.000000
    4       -4.927725   1.000000
    5       -4.924594   1.000000
    6       -4.924594   1.000000
    7       -3.159467   1.000000
    8       -3.159467   1.000000
    9       -3.159467   1.000000
   10       -0.864051   1.000000
   11        0.953762   1.000000
   12        0.953762   1.000000
   13        1.263001   1.000000
   14        1.263001   1.000000
   15        1.263001   1.000000
   16        5.905026   1.000000
   17        5.905026   1.000000
   18        5.905026   1.000000
   19        7.145835   1.000000
   20        7.145835   1.000000
   21        7.145835   1.000000
   22        9.100584   1.000000
   23        9.100584   1.000000
   24        9.100584   1.000000
   25       13.262572  -0.000000
   26       13.262572  -0.000000
   27       13.262572  -0.000000
   28       15.877307   0.000000
   29       15.877307   0.000000
   30       15.877307   0.000000
 
  0.4000000E+00  0.2000000E+00  0.2000000E+00  0.1920000E+00
    1       -6.954249   1.000000
    2       -6.650499   1.000000
    3       -5.430009   1.000000
    4       -5.430009   1.000000
    5       -4.587145   1.000000
    6       -3.152205   1.000000
    7       -1.838024   1.000000
    8       -1.838024   1.000000
    9       -1.727217   1.000000
   10       -0.564087   1.000000
   11       -0.125504   1.000000
   12        0.505867   1.000000
   13        1.519125   1.000000
   14        1.696898   1.000000
   15        1.696898   1.000000
   16        2.769863   1.000000
   17        6.150294   1.000000
   18        6.453000   1.000000
   19        7.261695   1.000000
   20        7.261695   1.000000
   21        8.688059   1.000000
   22        8.688059   1.000000
   23       10.187197   0.380246
   24       10.187197   0.380246
   25       11.267149  -0.000000
   26       11.267149  -0.000000
   27       14.715445  -0.000000
   28       17.024520   0.000000
   29       17.173648   0.000000
   30       17.173648   0.000000
 
  0.4000000E+00  0.4000000E+00  0.2000000E+00  0.1920000E+00
    1       -4.586230   1.000000
    2       -4.586230   1.000000
    3       -4.128411   1.000000
    4       -4.016795   1.000000
    5       -3.927761   1.000000
    6       -3.927761   1.000000
    7       -2.167933   1.000000
    8       -0.389767   1.000000
    9       -0.119279   1.000000
   10       -0.119279   1.000000
   11        0.267100   1.000000
   12        1.952903   1.000000
   13        3.172320   1.000000
   14        3.523392   1.000000
   15        4.090181   1.000000
   16        4.090181   1.000000
   17        6.168696   1.000000
   18        6.362043   1.000000
   19        6.362043   1.000000
   20        6.532996   1.000000
   21        7.419900   1.000000
   22        9.429789   1.000002
   23        9.429789   1.000002
   24        9.535315   1.000048
   25       11.567837  -0.000000
   26       11.581813  -0.000000
   27       11.581813  -0.000000
   28       13.839926  -0.000000
   29       18.507848   0.000000
   30       20.615316   0.000000
 
  0.4000000E+00  0.4000000E+00  0.4000000E+00  0.6400000E-01
    1       -4.970535   1.000000
    2       -4.970535   1.000000
    3       -4.970535   1.000000
    4       -4.907134   1.000000
    5       -4.907134   1.000000
    6       -3.292317   1.000000
    7       -3.292317   1.000000
    8       -3.292317   1.000000
    9       -1.206502   1.000000
   10        1.538286   1.000000
   11        1.538286   1.000000
   12        1.538286   1.000000
   13        3.478885   1.000000
   14        5.793431   1.000000
   15        5.793431   1.000000
   16        5.793431   1.000000
   17        8.360148   1.000000
   18        8.360148   1.000000
   19        8.360148   1.000000
   20       10.242322   0.177732
   21       10.242322   0.177732
   22       10.644133  -0.001589
   23       10.981774  -0.000000
   24       10.981774  -0.000000
   25       10.981774  -0.000000
   26       11.084406  -0.000000
   27       11.084406  -0.000000
   28       11.084406  -0.000000
   29       24.159491   0.000000
   30       24.159491   0.000000
