unknown system                          
   1.00000000000000     
     2.236800    0.000000    0.000000
    -1.118400    1.937126    0.000000
     0.000000    0.000000    3.857280
   Fe
     2
Direct
  0.000000  0.000000  0.000000
  0.333333  0.666667  0.500000
 
   20   20   32
  140.15      133.36      114.98      89.910      63.816      41.192      24.590      14.620      10.193      8.9867    
  8.7197      8.9867      10.193      14.620      24.590      41.192      63.816      89.910      114.98      133.36    
  133.37      133.36      120.81      99.220      73.940      50.028      30.945      18.223      11.583      9.2515    
  8.7004      8.7003      9.2514      11.583      18.222      30.944      50.027      73.942      99.225      120.81    
  114.98      120.78      114.98      99.220      77.661      55.153      35.657      21.487      13.176      9.6481    
  8.6914      8.4322      8.6912      9.6482      13.176      21.486      35.656      55.152      77.663      99.224    
  89.908      99.150      99.150      89.910      73.940      55.153      37.398      23.428      14.453      10.098    
  8.6913      8.2223      8.2222      8.6913      10.098      14.454      23.428      37.397      55.150      73.938    
  63.810      73.844      77.527      73.848      63.816      50.028      35.657      23.428      14.941      10.400    
  8.7070      8.0877      7.8649      8.0875      8.7070      10.401      14.943      23.430      35.657      50.025    
  41.191      49.948      55.010      55.012      49.950      41.192      30.945      21.487      14.453      10.400    
  8.7183      8.0246      7.6518      7.6518      8.0243      8.7176      10.400      14.455      21.490      30.947    
  24.594      30.914      35.574      37.290      35.572      30.911      24.590      18.223      13.176      10.098    
  8.7070      8.0246      7.5823      7.4312      7.5825      8.0240      8.7052      10.096      13.176      18.225    
  14.620      18.238      21.488      23.410      23.409      21.484      18.235      14.620      11.583      9.6481    
  8.6913      8.0877      7.6518      7.4312      7.4316      7.6525      8.0876      8.6895      9.6450      11.580    
  10.189      11.620      13.239      14.524      15.012      14.523      13.239      11.623      10.193      9.2515    
  8.6914      8.2223      7.8649      7.6517      7.5825      7.6525      7.8665      8.2240      8.6914      9.2489    
  8.9866      9.2973      9.7357      10.216      10.535      10.536      10.218      9.7389      9.2998      8.9867    
  8.7004      8.4322      8.2222      8.0875      8.0243      8.0240      8.0876      8.2240      8.4354      8.7030    
  8.7234      8.7522      8.7875      8.8261      8.8695      8.8917      8.8712      8.8278      8.7874      8.7495    
  8.7197      8.7003      8.6912      8.6913      8.7070      8.7176      8.7052      8.6895      8.6914      8.7030    
  8.9866      8.7522      8.5326      8.3654      8.2644      8.2208      8.2211      8.2643      8.3637      8.5294    
  8.7496      8.9867      9.2514      9.6482      10.098      10.401      10.400      10.096      9.6451      9.2489    
  10.189      9.2973      8.7875      8.3654      8.0480      7.8624      7.8028      7.8617      8.0464      8.3637    
  8.7875      9.2999      10.193      11.583      13.176      14.454      14.943      14.455      13.176      11.580    
  14.620      11.620      9.7357      8.8260      8.2644      7.8624      7.6606      7.6602      7.8617      8.2644    
  8.8278      9.7388      11.623      14.620      18.222      21.486      23.428      23.430      21.490      18.225    
  24.594      18.238      13.239      10.216      8.8695      8.2208      7.8028      7.6602      7.8027      8.2214    
  8.8712      10.218      13.239      18.235      24.590      30.944      35.656      37.397      35.657      30.947    
  41.191      30.914      21.488      14.524      10.535      8.8917      8.2211      7.8617      7.8617      8.2214    
  8.8924      10.535      14.522      21.485      30.912      41.192      50.027      55.152      55.150      50.025    
  63.810      49.948      35.574      23.410      15.012      10.536      8.8712      8.2644      8.0464      8.2645    
  8.8712      10.535      15.011      23.409      35.574      49.951      63.816      73.942      77.663      73.938    
  89.908      73.844      55.010      37.290      23.409      14.523      10.218      8.8278      8.3637      8.3637    
  8.8278      10.218      14.522      23.409      37.291      55.013      73.846      89.910      99.225      99.224    
  114.98      99.150      77.527      55.012      35.572      21.484      13.239      9.7389      8.7874      8.5294    
  8.7875      9.7388      13.239      21.485      35.574      55.013      77.525      99.146      114.98      120.81    
  133.37      120.78      99.150      73.848      49.950      30.911      18.235      11.623      9.2998      8.7496    
  8.7496      9.2999      11.623      18.235      30.912      49.951      73.846      99.146      120.78      133.36    
  132.27      125.87      108.53      84.861      60.211      38.864      23.267      13.990      9.9424      8.8484    
  8.5853      8.8484      9.9424      13.990      23.267      38.864      60.211      84.861      108.53      125.87    
  125.88      125.87      114.03      93.647      69.763      47.180      29.208      17.310      11.186      9.0795    
  8.5555      8.5554      9.0794      11.186      17.310      29.207      47.179      69.765      93.652      114.04    
  108.53      114.01      108.53      93.647      73.274      52.007      33.624      20.335      12.628      9.4183    
  8.5400      8.2865      8.5399      9.4184      12.628      20.335      33.622      52.006      73.276      93.651    
  84.860      93.595      93.596      84.861      69.763      52.007      35.257      22.140      13.793      9.8086    
  8.5355      8.0791      8.0790      8.5355      9.8090      13.793      22.140      35.256      52.004      69.761    
  60.206      69.696      73.179      69.700      60.211      47.180      33.624      22.140      14.239      10.074    
  8.5433      7.9473      7.7321      7.9472      8.5433      10.075      14.241      22.142      33.624      47.176    
  38.863      47.134      51.921      51.922      47.137      38.864      29.208      20.335      13.793      10.074    
  8.5506      7.8860      7.5266      7.5266      7.8857      8.5500      10.074      13.794      20.338      29.210    
  23.271      29.212      33.604      35.223      33.602      29.209      23.267      17.310      12.628      9.8086    
  8.5433      7.8860      7.4599      7.3150      7.4600      7.8854      8.5416      9.8070      12.628      17.313    
  13.990      17.357      20.399      22.202      22.200      20.395      17.355      13.990      11.186      9.4183    
  8.5355      7.9473      7.5266      7.3150      7.3154      7.5273      7.9472      8.5338      9.4154      11.183    
  9.9388      11.252      12.747      13.939      14.394      13.939      12.747      11.254      9.9424      9.0795    
  8.5400      8.0791      7.7321      7.5266      7.4601      7.5273      7.7336      8.0807      8.5400      9.0770    
  8.8483      9.1517      9.5572      9.9984      10.292      10.292      10.000      9.5601      9.1540      8.8484    
  8.5554      8.2865      8.0790      7.9472      7.8857      7.8854      7.9472      8.0807      8.2896      8.5579    
  8.5889      8.6323      8.6847      8.7381      8.7864      8.8091      8.7880      8.7397      8.6846      8.6299    
  8.5853      8.5554      8.5399      8.5355      8.5433      8.5500      8.5416      8.5339      8.5400      8.5579    
  8.8483      8.6323      8.4346      8.2885      8.2037      8.1688      8.1691      8.2037      8.2869      8.4316    
  8.6300      8.8484      9.0794      9.4184      9.8090      10.075      10.074      9.8070      9.4154      9.0770    
  9.9387      9.1517      8.6847      8.2885      7.9942      7.8242      7.7700      7.8235      7.9928      8.2869    
  8.6847      9.1541      9.9424      11.186      12.628      13.793      14.241      13.794      12.628      11.183    
  13.990      11.252      9.5572      8.7381      8.2037      7.8242      7.6350      7.6346      7.8235      8.2037    
  8.7397      9.5600      11.254      13.990      17.310      20.335      22.140      22.142      20.338      17.313    
  23.271      17.357      12.747      9.9984      8.7864      8.1688      7.7700      7.6346      7.7699      8.1694    
  8.7880      9.9999      12.747      17.355      23.267      29.207      33.622      35.256      33.624      29.210    
  38.863      29.212      20.399      13.939      10.292      8.8091      8.1691      7.8235      7.8235      8.1694    
  8.8097      10.292      13.938      20.396      29.210      38.864      47.179      52.006      52.004      47.176    
  60.206      47.134      33.604      22.202      14.394      10.292      8.7880      8.2037      7.9928      8.2038    
  8.7880      10.292      14.392      22.200      33.604      47.137      60.211      69.765      73.276      69.761    
  84.860      69.696      51.921      35.223      22.200      13.939      10.000      8.7397      8.2869      8.2869    
  8.7397      9.9999      13.938      22.200      35.224      51.923      69.698      84.861      93.652      93.651    
  108.53      93.595      73.179      51.922      33.602      20.395      12.747      9.5601      8.6846      8.4316    
  8.6847      9.5600      12.747      20.396      33.604      51.923      73.178      93.591      108.53      114.04    
  125.88      114.01      93.596      69.700      47.137      29.209      17.355      11.254      9.1540      8.6299    
  8.6300      9.1541      11.254      17.355      29.210      47.137      69.698      93.591      114.00      125.87    
  111.25      105.88      91.297      71.353      50.579      32.681      19.802      12.379      9.3137      8.4700    
  8.2207      8.4700      9.3137      12.379      19.802      32.681      50.579      71.353      91.297      105.88    
  105.88      105.88      95.917      78.740      58.591      39.589      24.625      14.950      10.185      8.6339    
  8.1638      8.1637      8.6338      10.185      14.949      24.624      39.589      58.592      78.744      95.922    
  91.300      95.916      91.297      78.740      61.537      43.612      28.241      17.335      11.235      8.8375    
  8.1299      7.8944      8.1298      8.8376      11.235      17.335      28.239      43.611      61.539      78.743    
  71.352      78.737      78.737      71.353      58.591      43.612      29.582      18.771      12.102      9.0814    
  8.1140      7.6928      7.6927      8.1140      9.0817      12.103      18.771      29.581      43.610      58.589    
  50.575      58.600      61.549      58.604      50.579      39.589      28.241      18.771      12.438      9.2537    
  8.1088      7.5671      7.3734      7.5670      8.1088      9.2541      12.439      18.773      28.241      39.587    
  32.681      39.636      43.676      43.677      39.638      32.681      24.625      17.335      12.102      9.2537    
  8.1083      7.5091      7.1876      7.1876      7.5090      8.1078      9.2536      12.103      17.337      24.627    
  19.805      24.721      28.386      29.742      28.384      24.718      19.802      14.950      11.235      9.0814    
  8.1088      7.5091      7.1278      6.9999      7.1280      7.5087      8.1075      9.0801      11.235      14.952    
  12.379      15.079      17.556      19.037      19.035      17.553      15.077      12.379      10.185      8.8375    
  8.1140      7.5671      7.1876      6.9999      7.0002      7.1881      7.5670      8.1127      8.8352      10.183    
  9.3107      10.324      11.495      12.441      12.804      12.441      11.495      10.326      9.3137      8.6339    
  8.1299      7.6928      7.3734      7.1876      7.1280      7.1881      7.3745      7.6941      8.1299      8.6318    
  8.4699      8.7712      9.1032      9.4475      9.6751      9.6756      9.4491      9.1055      8.7731      8.4700    
  8.1638      7.8944      7.6927      7.5670      7.5090      7.5087      7.5670      7.6941      7.8969      8.1657    
  8.2236      8.3021      8.3933      8.4820      8.5479      8.5735      8.5492      8.4833      8.3932      8.3001    
  8.2207      8.1637      8.1298      8.1140      8.1088      8.1078      8.1075      8.1127      8.1299      8.1657    
  8.4699      8.3021      8.1583      8.0619      8.0141      7.9986      7.9988      8.0141      8.0605      8.1558    
  8.3002      8.4700      8.6338      8.8376      9.0817      9.2541      9.2536      9.0801      8.8352      8.6318    
  9.3107      8.7712      8.3933      8.0619      7.8236      7.6901      7.6484      7.6896      7.8225      8.0606    
  8.3933      8.7732      9.3137      10.185      11.235      12.103      12.439      12.103      11.235      10.183    
  12.379      10.324      9.1032      8.4820      8.0141      7.6901      7.5313      7.5310      7.6896      8.0141    
  8.4833      9.1055      10.326      12.379      14.949      17.335      18.771      18.773      17.337      14.952    
  19.805      15.079      11.495      9.4475      8.5479      7.9986      7.6484      7.5310      7.6483      7.9990    
  8.5492      9.4487      11.495      15.077      19.802      24.624      28.239      29.581      28.241      24.627    
  32.681      24.721      17.556      12.441      9.6751      8.5735      7.9988      7.6896      7.6896      7.9990    
  8.5740      9.6752      12.440      17.553      24.719      32.681      39.589      43.611      43.610      39.587    
  50.575      39.636      28.386      19.037      12.804      9.6756      8.5492      8.0141      7.8225      8.0141    
  8.5492      9.6752      12.803      19.035      28.386      39.639      50.579      58.592      61.539      58.589    
  71.352      58.600      43.676      29.742      19.035      12.441      9.4490      8.4833      8.0605      8.0606    
  8.4833      9.4487      12.440      19.035      29.743      43.678      58.602      71.353      78.744      78.743    
  91.300      78.737      61.549      43.677      28.384      17.553      11.495      9.1055      8.3932      8.1558    
  8.3933      9.1055      11.495      17.553      28.386      43.678      61.548      78.733      91.297      95.922    
  105.88      95.916      78.737      58.604      39.638      24.718      15.077      10.326      8.7731      8.3001    
  8.3002      8.7732      10.326      15.077      24.719      39.638      58.602      78.733      95.911      105.88    
  83.462      79.428      68.460      53.453      37.883      24.660      15.449      10.459      8.5760      7.9477    
  7.7254      7.9477      8.5760      10.459      15.449      24.660      37.883      53.453      68.460      79.428    
  79.429      79.428      71.925      58.979      43.822      29.663      18.775      12.064      9.0219      8.0517    
  7.6339      7.6338      8.0517      9.0219      12.064      18.775      29.662      43.823      58.981      71.928    
  68.462      71.947      68.460      58.979      46.011      32.598      21.312      13.609      9.5914      8.1374    
  7.5716      7.3671      7.5714      8.1374      9.5915      13.609      21.311      32.597      46.012      58.981    
  53.452      59.038      59.039      53.453      43.822      32.598      22.260      14.557      10.084      8.2264    
  7.5344      7.1713      7.1712      7.5343      8.2266      10.085      14.557      22.259      32.596      43.821    
  37.880      43.930      46.159      43.932      37.883      29.663      21.312      14.557      10.280      8.2935    
  7.5158      7.0497      6.8882      7.0497      7.5158      8.2937      10.280      14.558      21.312      29.661    
  24.659      29.825      32.850      32.851      29.827      24.660      18.775      13.609      10.084      8.2935    
  7.5103      6.9934      6.7266      6.7267      6.9934      7.5100      8.2934      10.085      13.611      18.777    
  15.451      18.984      21.662      22.660      21.661      18.982      15.449      12.064      9.5914      8.2264    
  7.5158      6.9934      6.6750      6.5704      6.6752      6.9932      7.5149      8.2255      9.5915      12.066    
  10.459      12.294      14.022      15.072      15.071      14.021      12.292      10.459      9.0219      8.1374    
  7.5344      7.0497      6.7266      6.5703      6.5705      6.7269      7.0496      7.5335      8.1358      9.0205    
  8.5738      9.2472      10.021      10.655      10.901      10.655      10.021      9.2487      8.5760      8.0517    
  7.5716      7.1713      6.8882      6.7267      6.6752      6.7269      6.8889      7.1721      7.5716      8.0503    
  7.9476      8.2668      8.5542      8.8025      8.9580      8.9583      8.8035      8.5558      8.2682      7.9477    
  7.6339      7.3671      7.1712      7.0497      6.9934      6.9932      7.0496      7.1721      7.3689      7.6352    
  7.7274      7.8448      7.9752      8.0976      8.1861      8.2189      8.1870      8.0984      7.9751      7.8434    
  7.7254      7.6338      7.5714      7.5343      7.5158      7.5100      7.5149      7.5335      7.5716      7.6353    
  7.9476      7.8448      7.7669      7.7267      7.7181      7.7222      7.7224      7.7182      7.7258      7.7652    
  7.8434      7.9477      8.0517      8.1374      8.2266      8.2937      8.2934      8.2255      8.1358      8.0503    
  8.5738      8.2668      7.9752      7.7267      7.5556      7.4638      7.4361      7.4636      7.5550      7.7259    
  7.9752      8.2683      8.5760      9.0219      9.5915      10.085      10.280      10.085      9.5915      9.0205    
  10.459      9.2472      8.5542      8.0976      7.7181      7.4638      7.3417      7.3415      7.4635      7.7182    
  8.0985      8.5558      9.2486      10.459      12.064      13.609      14.557      14.558      13.611      12.066    
  15.451      12.294      10.021      8.8025      8.1861      7.7222      7.4361      7.3415      7.4359      7.7224    
  8.1870      8.8033      10.021      12.292      15.449      18.775      21.311      22.259      21.312      18.777    
  24.659      18.984      14.022      10.655      8.9580      8.2189      7.7224      7.4636      7.4635      7.7224    
  8.2192      8.9581      10.655      14.021      18.983      24.660      29.662      32.597      32.596      29.661    
  37.880      29.825      21.662      15.072      10.901      8.9583      8.1870      7.7182      7.5550      7.7182    
  8.1870      8.9581      10.900      15.071      21.662      29.827      37.883      43.823      46.012      43.821    
  53.452      43.930      32.850      22.660      15.071      10.655      8.8035      8.0984      7.7258      7.7259    
  8.0985      8.8033      10.655      15.071      22.661      32.851      43.931      53.453      58.981      58.981    
  68.462      59.038      46.159      32.851      21.661      14.020      10.021      8.5558      7.9751      7.7652    
  7.9752      8.5558      10.021      14.021      21.662      32.851      46.158      59.036      68.460      71.928    
  79.429      71.947      59.039      43.932      29.827      18.982      12.292      9.2487      8.2682      7.8434    
  7.8435      8.2683      9.2486      12.292      18.983      29.827      43.931      59.036      71.944      79.428    
  55.847      53.139      45.785      35.774      25.536      17.115      11.598      8.8996      7.9168      7.4017    
  7.2194      7.4018      7.9169      8.8996      11.598      17.115      25.536      35.774      45.785      53.139    
  53.139      53.139      48.091      39.412      29.352      20.174      13.442      9.6283      8.0792      7.4365    
  7.0907      7.0907      7.4364      8.0793      9.6283      13.442      20.174      29.352      39.413      48.093    
  45.786      48.135      45.785      39.412      30.767      21.996      14.896      10.378      8.2647      7.4621    
  6.9931      6.8297      6.9929      7.4621      8.2649      10.378      14.895      21.996      30.768      39.413    
  35.773      39.527      39.527      35.774      29.352      21.996      15.447      10.856      8.4376      7.4736    
  6.9261      6.6370      6.6370      6.9260      7.4736      8.4377      10.856      15.447      21.995      29.351    
  25.534      29.546      31.035      29.547      25.536      20.174      14.896      10.856      8.5094      7.4766    
  6.8874      6.5150      6.3903      6.5150      6.8874      7.4766      8.5097      10.856      14.896      20.173    
  17.115      20.437      22.413      22.414      20.438      17.115      13.442      10.378      8.4376      7.4766    
  6.8747      6.4570      6.2505      6.2506      6.4571      6.8746      7.4765      8.4381      10.379      13.443    
  11.599      13.749      15.425      16.057      15.424      13.748      11.598      9.6283      8.2647      7.4736    
  6.8874      6.4570      6.2058      6.1249      6.2060      6.4570      6.8869      7.4731      8.2649      9.6291    
  8.8995      9.9462      10.961      11.590      11.589      10.960      9.9454      8.8996      8.0792      7.4621    
  6.9261      6.5150      6.2505      6.1249      6.1250      6.2506      6.5149      6.9256      7.4612      8.0784    
  7.9155      8.3853      8.8500      9.2196      9.3622      9.2192      8.8500      8.3862      7.9168      7.4365    
  6.9931      6.6370      6.3903      6.2506      6.2060      6.2506      6.3906      6.6375      6.9931      7.4356    
  7.4017      7.7274      8.0250      8.2510      8.3732      8.3734      8.2515      8.0258      7.7282      7.4017    
  7.0907      6.8297      6.6370      6.5150      6.4571      6.4570      6.5149      6.6375      6.8307      7.0915    
  7.2206      7.3740      7.5367      7.6846      7.7894      7.8276      7.7898      7.6850      7.5365      7.3731    
  7.2194      7.0907      6.9929      6.9260      6.8874      6.8746      6.8869      6.9256      6.9931      7.0915    
  7.4017      7.3740      7.3666      7.3829      7.4120      7.4342      7.4343      7.4120      7.3824      7.3656    
  7.3732      7.4018      7.4364      7.4621      7.4736      7.4766      7.4765      7.4731      7.4612      7.4356    
  7.9155      7.7274      7.5367      7.3829      7.2845      7.2363      7.2229      7.2363      7.2843      7.3825    
  7.5367      7.7283      7.9169      8.0793      8.2649      8.4377      8.5097      8.4381      8.2649      8.0784    
  8.8995      8.3853      8.0250      7.6846      7.4120      7.2363      7.1545      7.1544      7.2362      7.4120    
  7.6851      8.0259      8.3861      8.8996      9.6284      10.378      10.856      10.856      10.379      9.6291    
  11.599      9.9462      8.8500      8.2510      7.7894      7.4342      7.2229      7.1544      7.2228      7.4342    
  7.7898      8.2514      8.8499      9.9453      11.598      13.442      14.895      15.447      14.896      13.443    
  17.115      13.749      10.961      9.2196      8.3732      7.8276      7.4343      7.2363      7.2362      7.4342    
  7.8277      8.3733      9.2191      10.960      13.748      17.115      20.174      21.996      21.995      20.173    
  25.534      20.437      15.425      11.590      9.3622      8.3734      7.7898      7.4120      7.2843      7.4120    
  7.7898      8.3733      9.3620      11.590      15.425      20.438      25.536      29.352      30.768      29.351    
  35.773      29.546      22.413      16.057      11.589      9.2192      8.2515      7.6850      7.3824      7.3825    
  7.6851      8.2514      9.2191      11.590      16.058      22.414      29.547      35.774      39.413      39.413    
  45.786      39.527      31.035      22.414      15.424      10.960      8.8500      8.0258      7.5365      7.3656    
  7.5367      8.0259      8.8499      10.960      15.425      22.414      31.034      39.525      45.785      48.093    
  53.139      48.135      39.527      29.547      20.438      13.748      9.9454      8.3862      7.7282      7.3731    
  7.3732      7.7283      8.3861      9.9453      13.748      20.438      29.547      39.525      48.133      53.139    
  33.433      31.841      27.546      21.796      16.111      11.714      9.1136      7.9584      7.3361      6.9353    
  6.7996      6.9353      7.3361      7.9583      9.1136      11.714      16.111      21.796      27.546      31.841    
  31.841      31.841      28.873      23.829      18.130      13.174      9.8295      8.1465      7.3961      6.8918    
  6.6316      6.6315      6.8918      7.3962      8.1467      9.8296      13.174      18.130      23.829      28.873    
  27.546      28.928      27.546      23.829      18.889      14.071      10.432      8.3532      7.4258      6.8546    
  6.4957      6.3758      6.4955      6.8546      7.4259      8.3532      10.432      14.071      18.889      23.829    
  21.796      23.975      23.976      21.796      18.130      14.071      10.668      8.4956      7.4361      6.8239    
  6.3961      6.1830      6.1830      6.3960      6.8239      7.4361      8.4955      10.668      14.071      18.129    
  16.110      18.374      19.226      18.375      16.111      13.174      10.432      8.4956      7.4398      6.8056    
  6.3352      6.0569      5.9666      6.0569      6.3352      6.8055      7.4398      8.4957      10.432      13.173    
  11.714      13.499      14.587      14.587      13.499      11.714      9.8295      8.3532      7.4361      6.8056    
  6.3147      5.9951      5.8427      5.8428      5.9952      6.3147      6.8055      7.4363      8.3537      9.8299    
  9.1141      10.201      11.075      11.411      11.075      10.201      9.1136      8.1465      7.4258      6.8239    
  6.3352      5.9951      5.8027      5.7416      5.8029      5.9952      6.3351      6.8237      7.4259      8.1470    
  7.9583      8.5310      9.0584      9.3843      9.3842      9.0580      8.5307      7.9584      7.3961      6.8546    
  6.3961      6.0569      5.8427      5.7416      5.7416      5.8427      6.0568      6.3959      6.8542      7.3957    
  7.3355      7.7731      8.1415      8.3897      8.4792      8.3895      8.1415      7.7735      7.3361      6.8918    
  6.4957      6.1830      5.9666      5.8428      5.8029      5.8427      5.9666      6.1832      6.4957      6.8914    
  6.9352      7.2575      7.5579      7.7915      7.9193      7.9193      7.7916      7.5583      7.2578      6.9353    
  6.6316      6.3758      6.1830      6.0569      5.9952      5.9952      6.0568      6.1832      6.3762      6.6319    
  6.8001      6.9905      7.1854      7.3583      7.4789      7.5223      7.4790      7.3584      7.1853      6.9901    
  6.7996      6.6315      6.4956      6.3960      6.3352      6.3147      6.3350      6.3959      6.4957      6.6319    
  6.9352      6.9905      7.0603      7.1390      7.2102      7.2533      7.2534      7.2103      7.1388      7.0599    
  6.9902      6.9353      6.8918      6.8546      6.8239      6.8055      6.8055      6.8237      6.8542      6.8914    
  7.3355      7.2575      7.1854      7.1390      7.1220      7.1231      7.1260      7.1232      7.1220      7.1388    
  7.1854      7.2578      7.3361      7.3962      7.4259      7.4361      7.4398      7.4363      7.4259      7.3957    
  7.9583      7.7731      7.5579      7.3583      7.2102      7.1231      7.0859      7.0859      7.1231      7.2103    
  7.3585      7.5583      7.7734      7.9583      8.1467      8.3532      8.4955      8.4957      8.3537      8.1470    
  9.1141      8.5310      8.1415      7.7915      7.4789      7.2533      7.1260      7.0859      7.1259      7.2533    
  7.4790      7.7916      8.1414      8.5305      9.1136      9.8296      10.432      10.668      10.432      9.8299    
  11.714      10.201      9.0584      8.3897      7.9193      7.5223      7.2534      7.1232      7.1231      7.2533    
  7.5223      7.9194      8.3895      9.0579      10.201      11.714      13.174      14.071      14.071      13.173    
  16.110      13.499      11.075      9.3843      8.4792      7.9193      7.4790      7.2103      7.1220      7.2103    
  7.4790      7.9194      8.4792      9.3842      11.075      13.499      16.111      18.130      18.889      18.129    
  21.796      18.374      14.587      11.411      9.3842      8.3895      7.7916      7.3584      7.1388      7.1388    
  7.3585      7.7916      8.3895      9.3842      11.411      14.587      18.375      21.796      23.829      23.829    
  27.546      23.975      19.226      14.587      11.075      9.0580      8.1415      7.5583      7.1853      7.0599    
  7.1854      7.5583      8.1414      9.0579      11.075      14.587      19.226      23.975      27.546      28.873    
  31.841      28.928      23.976      18.375      13.499      10.201      8.5307      7.7735      7.2578      6.9901    
  6.9902      7.2578      7.7734      8.5305      10.201      13.499      18.375      23.975      28.928      31.841    
  18.519      17.749      15.705      13.066      10.619      8.9047      7.9647      7.3598      6.8956      6.6162    
  6.5248      6.6162      6.8956      7.3598      7.9647      8.9047      10.619      13.066      15.705      17.749    
  17.749      17.749      16.316      13.941      11.388      9.3405      8.0918      7.3937      6.8569      6.4911    
  6.3119      6.3119      6.4911      6.8570      7.3938      8.0919      9.3405      11.388      13.942      16.316    
  15.705      16.373      15.705      13.941      11.686      9.6278      8.2099      7.4046      6.8221      6.3901    