unknown system                          
   1.00000000000000     
     2.236800    0.000000    0.000000
    -1.118400    1.937126    0.000000
     0.000000    0.000000    3.857280
   Fe
     2
Direct
  0.000000  0.000000  0.000000
  0.333333  0.666667  0.500000
 
   20   20   32
 0.14014960608E+03 0.13336319349E+03 0.11497703119E+03 0.89909890848E+02 0.63815843951E+02
 0.41191622861E+02 0.24590015861E+02 0.14620216440E+02 0.10192718127E+02 0.89867139611E+01
 0.87196908846E+01 0.89867380095E+01 0.10192737714E+02 0.14620215109E+02 0.24590013146E+02
 0.41191647098E+02 0.63815890819E+02 0.89909925393E+02 0.11497703183E+03 0.13336317842E+03
 0.13336572562E+03 0.13336318914E+03 0.12080884240E+03 0.99220195329E+02 0.73940469339E+02
 0.50027894566E+02 0.30945068054E+02 0.18222689421E+02 0.11582581256E+02 0.92515098918E+01
 0.87004177221E+01 0.87003359794E+01 0.92514309487E+01 0.11582562010E+02 0.18222249452E+02
 0.30943944605E+02 0.50027204193E+02 0.73942255760E+02 0.99225113217E+02 0.12081452550E+03
 0.11498078225E+03 0.12078152541E+03 0.11497702206E+03 0.99220192180E+02 0.77661235178E+02
 0.55152813709E+02 0.35657329924E+02 0.21486580802E+02 0.13176164109E+02 0.96481372126E+01
 0.86913753588E+01 0.84321632903E+01 0.86912189721E+01 0.96482256501E+01 0.13176296229E+02
 0.21485845014E+02 0.35655586062E+02 0.55151753608E+02 0.77662962974E+02 0.99224497306E+02
 0.89908150246E+02 0.99149850359E+02 0.99150439569E+02 0.89909881377E+02 0.73940464745E+02
 0.55152813599E+02 0.37397894384E+02 0.23427971305E+02 0.14453097523E+02 0.10097510698E+02
 0.86912912862E+01 0.82223207096E+01 0.82222212943E+01 0.86912881869E+01 0.10098006764E+02
 0.14453819967E+02 0.23427992957E+02 0.37396534800E+02 0.55150365645E+02 0.73937933415E+02
 0.63810383781E+02 0.73843665513E+02 0.77526743396E+02 0.73847936364E+02 0.63815837798E+02
 0.50027895576E+02 0.35657338547E+02 0.23427977078E+02 0.14941374241E+02 0.10400237275E+02
 0.87069659231E+01 0.80876568640E+01 0.78649433066E+01 0.80875401679E+01 0.87069629640E+01
 0.10400879347E+02 0.14942991564E+02 0.23429768104E+02 0.35657342681E+02 0.50024656994E+02
 0.41190922258E+02 0.49947597098E+02 0.55010178436E+02 0.55011562705E+02 0.49950132854E+02
 0.41191627330E+02 0.30945081462E+02 0.21486595301E+02 0.14453101508E+02 0.10400236595E+02
 0.87182866825E+01 0.80246204563E+01 0.76517744072E+01 0.76517542584E+01 0.80242895073E+01
 0.87175739245E+01 0.10400154507E+02 0.14454870273E+02 0.21489732963E+02 0.30947216644E+02
 0.24593763565E+02 0.30913980997E+02 0.35573946660E+02 0.37289555729E+02 0.35572243511E+02
 0.30910763319E+02 0.24590029844E+02 0.18222706353E+02 0.13176172269E+02 0.10097509508E+02
 0.87069649743E+01 0.80246186407E+01 0.75823130051E+01 0.74311905770E+01 0.75824609572E+01
 0.80239890682E+01 0.87052063446E+01 0.10095807217E+02 0.13176296229E+02 0.18225221051E+02
 0.14620233438E+02 0.18237503957E+02 0.21488210496E+02 0.23410406950E+02 0.23408669336E+02
 0.21484398010E+02 0.18234582673E+02 0.14620230316E+02 0.11582591586E+02 0.96481366268E+01
 0.86912868742E+01 0.80876508908E+01 0.76517658608E+01 0.74311875887E+01 0.74315966484E+01
 0.76524974281E+01 0.80875584974E+01 0.86894947108E+01 0.96450442111E+01 0.11580033141E+02
 0.10188836940E+02 0.11620034761E+02 0.13238777198E+02 0.14523838973E+02 0.15012257417E+02
 0.14522802041E+02 0.13238786394E+02 0.11622557620E+02 0.10192725696E+02 0.92515091433E+01
 0.86913659968E+01 0.82223103449E+01 0.78649315873E+01 0.76517475312E+01 0.75824633612E+01
 0.76524992473E+01 0.78665495699E+01 0.82239964408E+01 0.86913693283E+01 0.92488837502E+01
 0.89866400907E+01 0.92972935241E+01 0.97357338541E+01 0.10216116567E+02 0.10534920377E+02
 0.10535619984E+02 0.10218264617E+02 0.97388785364E+01 0.92998245877E+01 0.89867103721E+01
 0.87004052968E+01 0.84321504767E+01 0.82222124261E+01 0.80875346424E+01 0.80242921585E+01
 0.80239935349E+01 0.80875589452E+01 0.82239979373E+01 0.84354243186E+01 0.87029810966E+01
 0.87234413032E+01 0.87521625241E+01 0.87874910777E+01 0.88260502737E+01 0.88695002812E+01
 0.88917135807E+01 0.88712063672E+01 0.88278034613E+01 0.87873503069E+01 0.87495441027E+01
 0.87196789986E+01 0.87003247087E+01 0.86912156407E+01 0.86912878731E+01 0.87069649743E+01
 0.87175791730E+01 0.87052093037E+01 0.86894988091E+01 0.86913753588E+01 0.87029822512E+01
 0.89866372874E+01 0.87521616860E+01 0.85325942195E+01 0.83654153766E+01 0.82643750913E+01
 0.82208277291E+01 0.82211191938E+01 0.82643480152E+01 0.83636603076E+01 0.85293795768E+01
 0.87496381071E+01 0.89867316172E+01 0.92514324695E+01 0.96482316301E+01 0.10098010583E+02
 0.10400884762E+02 0.10400160601E+02 0.10095812225E+02 0.96450507769E+01 0.92488860196E+01
 0.10188834575E+02 0.92972919867E+01 0.87874907706E+01 0.83654131522E+01 0.80479519784E+01
 0.78623858646E+01 0.78027979075E+01 0.78616646749E+01 0.80463657922E+01 0.83637369814E+01
 0.87874834398E+01 0.92999225065E+01 0.10192742919E+02 0.11582573256E+02 0.13176305402E+02
 0.14453826348E+02 0.14942997728E+02 0.14454872670E+02 0.13176297242E+02 0.11580034058E+02
 0.14620234099E+02 0.11620034508E+02 0.97357322842E+01 0.88260445635E+01 0.82643691630E+01
 0.78623850096E+01 0.76606156280E+01 0.76602276363E+01 0.78616823342E+01 0.82644423483E+01
 0.88277684713E+01 0.97387629583E+01 0.11622575280E+02 0.14620229646E+02 0.18222264293E+02
 0.21485852802E+02 0.23427994737E+02 0.23429764111E+02 0.21489726252E+02 0.18225218960E+02
 0.24593766280E+02 0.18237506263E+02 0.13238775281E+02 0.10216110314E+02 0.88694925306E+01
 0.82208253108E+01 0.78028001051E+01 0.76602292926E+01 0.78026647746E+01 0.82214465148E+01
 0.88712063672E+01 0.10217762704E+02 0.13238636038E+02 0.18235004997E+02 0.24590029844E+02
 0.30943952627E+02 0.35655581928E+02 0.37396523233E+02 0.35657329924E+02 0.30947211258E+02
 0.41190924024E+02 0.30913986139E+02 0.21488212262E+02 0.14523836610E+02 0.10534915038E+02
 0.88917096404E+01 0.82211201538E+01 0.78616685125E+01 0.78616870268E+01 0.82214498930E+01
 0.88924297491E+01 0.10535019065E+02 0.14522103203E+02 0.21485115177E+02 0.30911886557E+02
 0.41191653332E+02 0.50027196739E+02 0.55151737290E+02 0.55150349438E+02 0.50024648530E+02
 0.63810383222E+02 0.49947605204E+02 0.35573956277E+02 0.23410412098E+02 0.15012255638E+02
 0.10535613875E+02 0.88712028407E+01 0.82643515037E+01 0.80463748012E+01 0.82644517651E+01
 0.88712105913E+01 0.10535018296E+02 0.15010697463E+02 0.23408651006E+02 0.35573953821E+02
 0.49950857695E+02 0.63815884108E+02 0.73942239892E+02 0.77662945489E+02 0.73937922140E+02
 0.89908148750E+02 0.73843676702E+02 0.55010195897E+02 0.37289568495E+02 0.23408669999E+02
 0.14522793348E+02 0.10218256408E+02 0.88278043217E+01 0.83636710534E+01 0.83637499515E+01
 0.88277750419E+01 0.10217760747E+02 0.14522096874E+02 0.23408646522E+02 0.37290873427E+02
 0.55012579963E+02 0.73846194265E+02 0.89909914425E+02 0.99225097388E+02 0.99224484627E+02
 0.11498078161E+03 0.99149863333E+02 0.77526763725E+02 0.55011579171E+02 0.35572245966E+02
 0.21484388052E+02 0.13238775281E+02 0.97388753160E+01 0.87873576377E+01 0.85293921732E+01
 0.87874910777E+01 0.97387613078E+01 0.13238626842E+02 0.21485103454E+02 0.35573946660E+02
 0.55012578969E+02 0.77524986777E+02 0.99145539050E+02 0.11497702206E+03 0.12081451497E+03
 0.13336572582E+03 0.12078153637E+03 0.99150456377E+02 0.73847951130E+02 0.49950137532E+02
 0.30910754973E+02 0.18234569940E+02 0.11622549177E+02 0.92998243151E+01 0.87495526838E+01
 0.87496475263E+01 0.92999237713E+01 0.11622567089E+02 0.18234989959E+02 0.30911873070E+02
 0.49950854267E+02 0.73846197841E+02 0.99145542884E+02 0.12077582997E+03 0.13336317427E+03
 0.13227142470E+03 0.12587378754E+03 0.10852981118E+03 0.84861356881E+02 0.60211365510E+02
 0.38863891698E+02 0.23267158934E+02 0.13990112123E+02 0.99424020900E+01 0.88484005580E+01
 0.85853434967E+01 0.88484253583E+01 0.99424233005E+01 0.13990112450E+02 0.23267156093E+02
 0.38863913071E+02 0.60211408236E+02 0.84861388778E+02 0.10852981185E+03 0.12587377359E+03
 0.12587616029E+03 0.12587378334E+03 0.11403006296E+03 0.93647458980E+02 0.69763389309E+02
 0.47179515525E+02 0.29207904749E+02 0.17310315022E+02 0.11185561753E+02 0.90795124301E+01
 0.85554613849E+01 0.85553797017E+01 0.90794338549E+01 0.11185557296E+02 0.17309935008E+02
 0.29206883261E+02 0.47178880474E+02 0.69765057108E+02 0.93652057981E+02 0.11403538510E+03
 0.10853332737E+03 0.11400964290E+03 0.10852980252E+03 0.93647456054E+02 0.73273964476E+02
 0.52006659722E+02 0.33623973241E+02 0.20335399874E+02 0.12628282443E+02 0.94183132152E+01
 0.85400330176E+01 0.82865131673E+01 0.85398705715E+01 0.94183863859E+01 0.12628418900E+02
 0.20334735541E+02 0.33622353574E+02 0.52005661026E+02 0.73275570737E+02 0.93651484548E+02
 0.84859731680E+02 0.93595305056E+02 0.93595853783E+02 0.84861348022E+02 0.69763384932E+02
 0.52006659565E+02 0.35256837372E+02 0.22139876002E+02 0.13792514796E+02 0.98085752136E+01
 0.85355285827E+01 0.80791363536E+01 0.80790366480E+01 0.85355103635E+01 0.98090240725E+01
 0.13793178739E+02 0.22139884355E+02 0.35255551589E+02 0.52004357983E+02 0.69761013303E+02
 0.60206260873E+02 0.69695607524E+02 0.73179445142E+02 0.69699603839E+02 0.60211359717E+02
 0.47179516390E+02 0.33623981477E+02 0.22139881516E+02 0.14239104134E+02 0.10074389461E+02
 0.85432732035E+01 0.79473422044E+01 0.77321180281E+01 0.79472403218E+01 0.85432707291E+01
 0.10074973828E+02 0.14240592638E+02 0.22141541453E+02 0.33623985421E+02 0.47176493766E+02
 0.38863246858E+02 0.47134213813E+02 0.51920699242E+02 0.51921998793E+02 0.47136590114E+02
 0.38863895935E+02 0.29207917484E+02 0.20335413679E+02 0.13792518397E+02 0.10074388727E+02
 0.85506071600E+01 0.78859992500E+01 0.75266245046E+01 0.75266194025E+01 0.78857161426E+01
 0.85499540059E+01 0.10074307615E+02 0.13794169623E+02 0.20338361895E+02 0.29209936182E+02
 0.23270671609E+02 0.29212060090E+02 0.33603978928E+02 0.35222680518E+02 0.33602396129E+02
 0.29209057094E+02 0.23267172117E+02 0.17310331030E+02 0.12628289966E+02 0.98085739000E+01
 0.85432724798E+01 0.78859976558E+01 0.74598957372E+01 0.73150332925E+01 0.74600498758E+01
 0.78854272464E+01 0.85416388818E+01 0.98069896582E+01 0.12628418900E+02 0.17312699033E+02
 0.13990115858E+02 0.17357381118E+02 0.20398566896E+02 0.22201578347E+02 0.22199955896E+02
 0.20395009742E+02 0.17354662156E+02 0.13990125097E+02 0.11185571429E+02 0.94183125330E+01
 0.85355245861E+01 0.79473368306E+01 0.75266163731E+01 0.73150304180E+01 0.73154072016E+01
 0.75272890235E+01 0.79472437297E+01 0.85338498584E+01 0.94154228373E+01 0.11183173996E+02
 0.99387512920E+01 0.11251871472E+02 0.12747003675E+02 0.13939492628E+02 0.14393731000E+02
 0.13938514880E+02 0.12747012283E+02 0.11254247495E+02 0.99424092251E+01 0.90795117158E+01
 0.85400241895E+01 0.80791267980E+01 0.77321069861E+01 0.75266129653E+01 0.74600522300E+01
 0.75272907177E+01 0.77335933825E+01 0.80806937453E+01 0.85400270644E+01 0.90770471471E+01
 0.88483270357E+01 0.91516734125E+01 0.95571614330E+01 0.99983871337E+01 0.10291516524E+02
 0.10292160212E+02 0.10000375883E+02 0.95600927529E+01 0.91540451186E+01 0.88483971998E+01
 0.85554495527E+01 0.82865011653E+01 0.80790284754E+01 0.79472351002E+01 0.78857186615E+01
 0.78854313594E+01 0.79472438818E+01 0.80806951283E+01 0.82895716307E+01 0.85578647320E+01
 0.85888590123E+01 0.86323381735E+01 0.86847353535E+01 0.87381064551E+01 0.87863916019E+01
 0.88090641451E+01 0.87879771605E+01 0.87397313945E+01 0.86845905716E+01 0.86298800598E+01
 0.85853321956E+01 0.85553690371E+01 0.85398676966E+01 0.85355101869E+01 0.85432724798E+01
 0.85499587539E+01 0.85416413562E+01 0.85338536784E+01 0.85400330176E+01 0.85578658996E+01
 0.88483243037E+01 0.86323373809E+01 0.84346192445E+01 0.82884952848E+01 0.82036779620E+01
 0.81688178483E+01 0.81690973662E+01 0.82036644505E+01 0.82868562059E+01 0.84316057195E+01
 0.86299741211E+01 0.88484192681E+01 0.90794354614E+01 0.94183921952E+01 0.98090274713E+01
 0.10074978686E+02 0.10074313207E+02 0.98069943706E+01 0.94154293287E+01 0.90770494681E+01
 0.99387490494E+01 0.91516719817E+01 0.86847351512E+01 0.82884931415E+01 0.79942170298E+01
 0.78241806312E+01 0.77700021161E+01 0.78235287426E+01 0.79927564309E+01 0.82869324603E+01
 0.86847280965E+01 0.91541434412E+01 0.99424281931E+01 0.11185568021E+02 0.12628427491E+02
 0.13793184610E+02 0.14240598457E+02 0.13794171894E+02 0.12628419968E+02 0.11183175046E+02
 0.13990116660E+02 0.11251871298E+02 0.95571599825E+01 0.87381009335E+01 0.82036722030E+01
 0.78241798340E+01 0.76349612253E+01 0.76346039555E+01 0.78235332796E+01 0.82037452419E+01
 0.87397090505E+01 0.95599898932E+01 0.11254252032E+02 0.13990126226E+02 0.17309949176E+02
 0.20334742929E+02 0.22139886053E+02 0.22141537636E+02 0.20338355478E+02 0.17312697193E+02
 0.23270674449E+02 0.17357383373E+02 0.12747001751E+02 0.99983810467E+01 0.87863841186E+01
 0.81688156022E+01 0.77700042883E+01 0.76346054998E+01 0.77698645911E+01 0.81693813745E+01
 0.87879771605E+01 0.99999172976E+01 0.12746855790E+02 0.17355025826E+02 0.23267172117E+02
 0.29206891008E+02 0.33622349630E+02 0.35255540538E+02 0.33623973241E+02 0.29209931194E+02
 0.38863248702E+02 0.29212064986E+02 0.20398568397E+02 0.13939490250E+02 0.10291511434E+02
 0.88090604658E+01 0.81690983354E+01 0.78235323012E+01 0.78235376355E+01 0.81693845897E+01
 0.88097249478E+01 0.10291615539E+02 0.13937871884E+02 0.20395656145E+02 0.29210077406E+02
 0.38863919152E+02 0.47178873395E+02 0.52005645464E+02 0.52004342577E+02 0.47176485821E+02
 0.60206260344E+02 0.47134221472E+02 0.33603987968E+02 0.22201583190E+02 0.14393729337E+02
 0.10292154430E+02 0.87879737692E+01 0.82036676660E+01 0.79927649042E+01 0.82037542164E+01
 0.87879812525E+01 0.10291614846E+02 0.14392297842E+02 0.22199952489E+02 0.33603985779E+02
 0.47137256327E+02 0.60211401914E+02 0.69765042029E+02 0.73275554127E+02 0.69761002601E+02
 0.84859730172E+02 0.69695618134E+02 0.51920715872E+02 0.35222692671E+02 0.22199956481E+02
 0.13938506537E+02 0.10000368018E+02 0.87397321795E+01 0.82868664325E+01 0.82869448301E+01
 0.87397153571E+01 0.99999155201E+01 0.13937865919E+02 0.22199948230E+02 0.35223929910E+02
 0.51922959288E+02 0.69697977130E+02 0.84861378410E+02 0.93652042904E+02 0.93651472397E+02
 0.10853332670E+03 0.93595317453E+02 0.73179464549E+02 0.51922014442E+02 0.33602398317E+02
 0.20395000122E+02 0.12747001751E+02 0.95600897989E+01 0.86845976263E+01 0.84316177107E+01
 0.86847353535E+01 0.95599883898E+01 0.12746847182E+02 0.20395645024E+02 0.33603978928E+02
 0.51922958308E+02 0.73177813295E+02 0.93591271406E+02 0.10852980252E+03 0.11403537494E+03
 0.12587616048E+03 0.11400965344E+03 0.93595869793E+02 0.69699617783E+02 0.47136594412E+02
 0.29209049051E+02 0.17354650171E+02 0.11254239700E+02 0.91540449213E+01 0.86298881869E+01
 0.86299830409E+01 0.91541446748E+01 0.11254244412E+02 0.17355011586E+02 0.29210064468E+02
 0.47137252966E+02 0.69697980464E+02 0.93591275019E+02 0.11400430982E+03 0.12587376957E+03
 0.11125283836E+03 0.10588133359E+03 0.91296620906E+02 0.71353363532E+02 0.50579097929E+02
 0.32681062659E+02 0.19801839600E+02 0.12378866654E+02 0.93137109195E+01 0.84699895586E+01
 0.82207244114E+01 0.84700146313E+01 0.93137341335E+01 0.12378869916E+02 0.19801836467E+02
 0.32681077557E+02 0.50579130923E+02 0.71353389055E+02 0.91296621646E+02 0.10588132240E+03
 0.10588327678E+03 0.10588132983E+03 0.95917477707E+02 0.78740018899E+02 0.58591004726E+02
 0.39589289043E+02 0.24625198575E+02 0.14949567730E+02 0.10184978419E+02 0.86338691464E+01
 0.81637766116E+01 0.81636959983E+01 0.86337920001E+01 0.10185010112E+02 0.14949341646E+02
 0.24624444889E+02 0.39588800772E+02 0.58592354572E+02 0.78743760720E+02 0.95921827741E+02
 0.91299503891E+02 0.95915636551E+02 0.91296613548E+02 0.78740016596E+02 0.61537310928E+02
 0.43612272054E+02 0.28240663534E+02 0.17335027689E+02 0.11234937396E+02 0.88375245849E+01
 0.81299328061E+01 0.78944283421E+01 0.81297585492E+01 0.88375600541E+01 0.11235083499E+02
 0.17334550235E+02 0.28239374640E+02 0.43611439228E+02 0.61538592011E+02 0.78743300698E+02
 0.71352048291E+02 0.78736610185E+02 0.78737050428E+02 0.71353356371E+02 0.58591000942E+02
 0.43612271759E+02 0.29582249406E+02 0.18771371007E+02 0.12102139561E+02 0.90813527805E+01
 0.81140414415E+01 0.76928460903E+01 0.76927477641E+01 0.81139875426E+01 0.90816795341E+01
 0.12102649343E+02 0.18771345681E+02 0.29581164132E+02 0.43610365594E+02 0.58589059432E+02
 0.50574949199E+02 0.58600390779E+02 0.61549206565E+02 0.58603648196E+02 0.50579093117E+02
 0.39589289484E+02 0.28240670704E+02 0.18771375813E+02 0.12438311936E+02 0.92537068739E+01
 0.81087744890E+01 0.75670972014E+01 0.73733840082E+01 0.75670336050E+01 0.81087732875E+01
 0.92541395780E+01 0.12439459217E+02 0.18772686445E+02 0.28240674119E+02 0.39586846396E+02
 0.32680565839E+02 0.39636044083E+02 0.43675788057E+02 0.43676858754E+02 0.39637990523E+02
 0.32681066223E+02 0.24625209451E+02 0.17335039597E+02 0.12102142124E+02 0.92537059967E+01
 0.81083426176E+01 0.75091128498E+01 0.71876056042E+01 0.71876372626E+01 0.75089509845E+01
 0.81078452745E+01 0.92536278606E+01 0.12103478390E+02 0.17337476350E+02 0.24626910982E+02
 0.19804718712E+02 0.24720743704E+02 0.28385746552E+02 0.29741545054E+02 0.28384485573E+02
 0.24718316979E+02 0.19801850574E+02 0.14949581205E+02 0.11234943211E+02 0.90813511382E+01
 0.81087743711E+01 0.75091118458E+01 0.71277906789E+01 0.69999462889E+01 0.71279569754E+01
 0.75086951830E+01 0.81074738090E+01 0.90800828543E+01 0.11235083499E+02 0.14951551938E+02
 0.12378836886E+02 0.15078850426E+02 0.17555881407E+02 0.19036724417E+02 0.19035411271E+02
 0.17553009512E+02 0.15076673237E+02 0.12378877172E+02 0.10184986343E+02 0.88375236524E+01
 0.81140385693E+01 0.75670934287E+01 0.71875985857E+01 0.69999437220E+01 0.70002352346E+01
 0.71881159503E+01 0.75670005753E+01 0.81126798085E+01 0.88351786864E+01 0.10183022707E+02
 0.93106833437E+01 0.10323599407E+02 0.11494842310E+02 0.12441469883E+02 0.12804437173E+02
 0.12440652865E+02 0.11494849321E+02 0.10325577417E+02 0.93137168944E+01 0.86338685539E+01
 0.81299254330E+01 0.76928387006E+01 0.73733747757E+01 0.71876316155E+01 0.71279592235E+01
 0.71881173216E+01 0.73745149420E+01 0.76940885279E+01 0.81299270938E+01 0.86318376245E+01
 0.84699173776E+01 0.87712047454E+01 0.91031838149E+01 0.94474877821E+01 0.96750611658E+01
 0.96755564442E+01 0.94490517713E+01 0.91055428762E+01 0.87731469400E+01 0.84699868658E+01
 0.81637664053E+01 0.78944185139E+01 0.76927414469E+01 0.75670292048E+01 0.75089531835E+01
 0.75086983860E+01 0.75669999478E+01 0.76940896005E+01 0.78969399932E+01 0.81657476276E+01
 0.82236066566E+01 0.83021063395E+01 0.83933294902E+01 0.84819796154E+01 0.85479436671E+01
 0.85734815942E+01 0.85492068999E+01 0.84832622149E+01 0.83931760478E+01 0.83000807624E+01
 0.82207147283E+01 0.81636869701E+01 0.81297568883E+01 0.81139877212E+01 0.81087743711E+01
 0.81078487185E+01 0.81074750106E+01 0.81126828593E+01 0.81299328061E+01 0.81657488056E+01
 0.84699148178E+01 0.83021056737E+01 0.81582564687E+01 0.80618545290E+01 0.80140661046E+01
 0.79985681826E+01 0.79988143115E+01 0.80140869876E+01 0.80605270474E+01 0.81557848652E+01
 0.83001733216E+01 0.84700093786E+01 0.86337938130E+01 0.88375653635E+01 0.90816817949E+01
 0.92541429733E+01 0.92536321330E+01 0.90800867574E+01 0.88351849283E+01 0.86318400300E+01
 0.93106813972E+01 0.87712036016E+01 0.83933296001E+01 0.80618526165E+01 0.78236107273E+01
 0.76900919994E+01 0.76484404157E+01 0.76896224150E+01 0.78224840582E+01 0.80606017882E+01
 0.83933233248E+01 0.87732441936E+01 0.93137381620E+01 0.10185019373E+02 0.11235090488E+02
 0.12102653841E+02 0.12439464138E+02 0.12103480325E+02 0.11235084673E+02 0.10183024044E+02
 0.12378838025E+02 0.10323599444E+02 0.91031827284E+01 0.84819746426E+01 0.80140608256E+01
 0.76900913645E+01 0.75312584224E+01 0.75309826591E+01 0.76895937860E+01 0.80141330994E+01
 0.84832730255E+01 0.91054742515E+01 0.10325548788E+02 0.12378881573E+02 0.14949353918E+02
 0.17334556508E+02 0.18771347184E+02 0.18772683142E+02 0.17337470716E+02 0.14951550735E+02
 0.19804721845E+02 0.15078852541E+02 0.11494840391E+02 0.94474821953E+01 0.85479369371E+01
 0.79985664145E+01 0.76484425110E+01 0.75309839023E+01 0.76482931386E+01 0.79989854617E+01
 0.85492068999E+01 0.94487086266E+01 0.11494680776E+02 0.15076886099E+02 0.19801850574E+02
 0.24624451843E+02 0.28239371226E+02 0.29581154533E+02 0.28240663534E+02 0.24626907059E+02
 0.32680567877E+02 0.24720747898E+02 0.17555882194E+02 0.12441467503E+02 0.96750567914E+01
 0.85734786438E+01 0.79988153058E+01 0.76896252111E+01 0.76895972170E+01 0.79989882242E+01
 0.85739941948E+01 0.96751589155E+01 0.12440158083E+02 0.17553471265E+02 0.24719067678E+02
 0.32681083158E+02 0.39588794701E+02 0.43611425777E+02 0.43610352439E+02 0.39586839885E+02
 0.50574948739E+02 0.39636050480E+02 0.28385753996E+02 0.19036728443E+02 0.12804435862E+02
 0.96755515737E+01 0.85492038822E+01 0.80140894545E+01 0.78224910592E+01 0.80141408455E+01
 0.85492106123E+01 0.96751584195E+01 0.12803338773E+02 0.19035444301E+02 0.28385752518E+02
 0.39638502241E+02 0.50579125651E+02 0.58592341706E+02 0.61538577874E+02 0.58589050350E+02
 0.71352046756E+02 0.58600399763E+02 0.43675802367E+02 0.29741555524E+02 0.19035411668E+02
 0.12440645510E+02 0.94490448620E+01 0.84832627893E+01 0.80605358409E+01 0.80606124942E+01
 0.84832785727E+01 0.94487073041E+01 0.12440153107E+02 0.19035440671E+02 0.29742605914E+02
 0.43677663812E+02 0.58602331420E+02 0.71353380359E+02 0.78743747769E+02 0.78743290050E+02
 0.91299503151E+02 0.78736620960E+02 0.61549223387E+02 0.43676872146E+02 0.28384487051E+02
 0.17553000858E+02 0.11494840391E+02 0.91055406537E+01 0.83931823230E+01 0.81557951736E+01
 0.83933294902E+01 0.91054731156E+01 0.11494673765E+02 0.17553461823E+02 0.28385746552E+02
 0.43677662894E+02 0.61547907087E+02 0.78733323110E+02 0.91296613548E+02 0.95921818637E+02
 0.10588327691E+03 0.95915645908E+02 0.78737064198E+02 0.58603659855E+02 0.39637993797E+02
 0.24718309799E+02 0.15076663333E+02 0.10325571390E+02 0.87731469184E+01 0.83000876161E+01
 0.83001808410E+01 0.87732453158E+01 0.10325542724E+02 0.15076874079E+02 0.24719056303E+02
 0.39638499117E+02 0.58602334096E+02 0.78733326104E+02 0.95911278837E+02 0.10588131877E+03
 0.83461956770E+02 0.79427585335E+02 0.68459787486E+02 0.53453378796E+02 0.37883184364E+02
 0.24659581033E+02 0.15449389020E+02 0.10459303611E+02 0.85759548480E+01 0.79476962567E+01
 0.77254116350E+01 0.79477171049E+01 0.85759745576E+01 0.10459306789E+02 0.15449385588E+02
 0.24659590512E+02 0.37883208038E+02 0.53453397766E+02 0.68459788296E+02 0.79427577157E+02
 0.79428953248E+02 0.79427582201E+02 0.71924520135E+02 0.58978758356E+02 0.43821877449E+02
 0.29662666463E+02 0.18775480059E+02 0.12064429585E+02 0.90218626792E+01 0.80517262212E+01
 0.76338597316E+01 0.76337833800E+01 0.80516525994E+01 0.90219319689E+01 0.12064386878E+02
 0.18775063952E+02 0.29662367568E+02 0.43822806681E+02 0.58981359225E+02 0.71927570765E+02
 0.68461822108E+02 0.71946834458E+02 0.68459782025E+02 0.58978756942E+02 0.46010920287E+02
 0.32597845982E+02 0.21311758842E+02 0.13609191720E+02 0.95913535440E+01 0.81374313905E+01
 0.75715648632E+01 0.73671334720E+01 0.75713878300E+01 0.81374260427E+01 0.95915060375E+01
 0.13608947422E+02 0.21310901342E+02 0.32597236765E+02 0.46011773359E+02 0.58981047949E+02
 0.53452475262E+02 0.59038283322E+02 0.59038580251E+02 0.53453374047E+02 0.43821874471E+02
 0.32597845470E+02 0.22259960406E+02 0.14557286798E+02 0.10084345716E+02 0.82263935724E+01
 0.75344172633E+01 0.71712881778E+01 0.71711978302E+01 0.75343299332E+01 0.82265714123E+01
 0.10084659306E+02 0.14557223140E+02 0.22259148941E+02 0.32596471903E+02 0.43820508087E+02
 0.37880308389E+02 0.43929813207E+02 0.46158931149E+02 0.43932084482E+02 0.37883180891E+02
 0.29662666250E+02 0.21311764503E+02 0.14557290640E+02 0.10279764010E+02 0.82934836761E+01
 0.75158001593E+01 0.70497029927E+01 0.68881848577E+01 0.70496857508E+01 0.75158005877E+01
 0.82937249221E+01 0.10280472367E+02 0.14558145644E+02 0.21311767179E+02 0.29660991478E+02
 0.24659275417E+02 0.29825236482E+02 0.32850086121E+02 0.32850848828E+02 0.29826607125E+02
 0.24659583559E+02 0.18775488301E+02 0.13609201028E+02 0.10084346883E+02 0.82934826265E+01
 0.75102774445E+01 0.69934014471E+01 0.67266131262E+01 0.67266829783E+01 0.69933796744E+01
 0.75099750021E+01 0.82934098274E+01 0.10085266715E+02 0.13610949883E+02 0.18776755137E+02
 0.15451419400E+02 0.18983928063E+02 0.21661883128E+02 0.22659983684E+02 0.21661045218E+02
 0.18982265730E+02 0.15449396883E+02 0.12064439603E+02 0.95913570738E+01 0.82263915269E+01
 0.75158008412E+01 0.69934012163E+01 0.66750051088E+01 0.65703503429E+01 0.66751746838E+01
 0.69931739594E+01 0.75149347509E+01 0.82255395285E+01 0.95915060375E+01 0.12065872348E+02
 0.10459235945E+02 0.12293514052E+02 0.14022469180E+02 0.15071897195E+02 0.15070994843E+02
 0.14020505830E+02 0.12292051400E+02 0.10459310737E+02 0.90218682765E+01 0.81374301898E+01
 0.75344158869E+01 0.70497013417E+01 0.67266075664E+01 0.65703482091E+01 0.65705305666E+01
 0.67269272291E+01 0.70496149069E+01 0.75334782731E+01 0.81358095206E+01 0.90204850350E+01
 0.85737690040E+01 0.92472341118E+01 0.10020995170E+02 0.10655409263E+02 0.10900912078E+02
 0.10654811183E+02 0.10021000011E+02 0.92486722218E+01 0.85759593459E+01 0.80517258609E+01
 0.75715594744E+01 0.71712836519E+01 0.68881779837E+01 0.67266784103E+01 0.66751768500E+01
 0.67269282209E+01 0.68888789534E+01 0.71721203343E+01 0.75715595712E+01 0.80502765094E+01
 0.79476273925E+01 0.82668058896E+01 0.85542073507E+01 0.88025067061E+01 0.89579855207E+01
 0.89582891766E+01 0.88035161303E+01 0.85558089370E+01 0.82681729768E+01 0.79476945559E+01
 0.76338517807E+01 0.73671265158E+01 0.71711939395E+01 0.70496824733E+01 0.69933815488E+01
 0.69931760647E+01 0.70496132804E+01 0.71721209695E+01 0.73689105504E+01 0.76352491824E+01
 0.77274454474E+01 0.78448073340E+01 0.79752214507E+01 0.80975919218E+01 0.81861188144E+01
 0.82188963314E+01 0.81869582279E+01 0.80984264136E+01 0.79750632190E+01 0.78433626066E+01
 0.77254042292E+01 0.76337765677E+01 0.75713877332E+01 0.75343305436E+01 0.75158008412E+01
 0.75099768491E+01 0.75149343225E+01 0.75334802598E+01 0.75715648632E+01 0.76352503210E+01
 0.79476250054E+01 0.78448068479E+01 0.77668982647E+01 0.77267206276E+01 0.77181439308E+01
 0.77221930187E+01 0.77223907367E+01 0.77182041152E+01 0.77258071839E+01 0.77651520540E+01
 0.78434483573E+01 0.79477130170E+01 0.80516546096E+01 0.81374305971E+01 0.82265721579E+01
 0.82937264699E+01 0.82934124248E+01 0.82255423196E+01 0.81358152757E+01 0.80502788799E+01
 0.85737673533E+01 0.82668051598E+01 0.79752220494E+01 0.77267190734E+01 0.75556478588E+01
 0.74638005450E+01 0.74360515543E+01 0.74635611837E+01 0.75549540053E+01 0.77258784352E+01
 0.79752169013E+01 0.82682626892E+01 0.85759774048E+01 0.90219391204E+01 0.95915107561E+01
 0.10084661978E+02 0.10280476165E+02 0.10085268220E+02 0.95915072263E+01 0.90204865892E+01
 0.10459237425E+02 0.92472344396E+01 0.85542068625E+01 0.80975877942E+01 0.77181393469E+01
 0.74638001274E+01 0.73417006272E+01 0.73415300865E+01 0.74634949971E+01 0.77182091798E+01
 0.80984781008E+01 0.85557854112E+01 0.92486060353E+01 0.10459315394E+02 0.12064396409E+02
 0.13608952120E+02 0.14557224453E+02 0.14558143116E+02 0.13610945273E+02 0.12065871862E+02
 0.15451422833E+02 0.12293515943E+02 0.10020993352E+02 0.88025019179E+01 0.81861131899E+01
 0.77221919109E+01 0.74360535488E+01 0.73415309017E+01 0.74358978720E+01 0.77224230243E+01
 0.81869582279E+01 0.88033228790E+01 0.10020828270E+02 0.12292084095E+02 0.15449396883E+02
 0.18775069668E+02 0.21310898666E+02 0.22259141440E+02 0.21311758842E+02 0.18776752610E+02
 0.24659277647E+02 0.18983931227E+02 0.14022469014E+02 0.10655406974E+02 0.89579822111E+01
 0.82188943991E+01 0.77223917582E+01 0.74635629278E+01 0.74634971588E+01 0.77224251537E+01
 0.82192142170E+01 0.89580755027E+01 0.10654507797E+02 0.14020738373E+02 0.18982678496E+02
 0.24659595268E+02 0.29662362863E+02 0.32597226352E+02 0.32596462002E+02 0.29660986987E+02
 0.37880308000E+02 0.29825241032E+02 0.21661888325E+02 0.15071900140E+02 0.10900911339E+02
 0.89582855973E+01 0.81869557419E+01 0.77182055335E+01 0.75549589890E+01 0.77182151821E+01
 0.81869613665E+01 0.89580752331E+01 0.10900241267E+02 0.15071065687E+02 0.21661887770E+02
 0.29826922219E+02 0.37883204176E+02 0.43822796975E+02 0.46011762839E+02 0.43820501359E+02
 0.53452473699E+02 0.43929819824E+02 0.32850097107E+02 0.22659991822E+02 0.15070995044E+02
 0.10654805264E+02 0.88035105532E+01 0.80984267039E+01 0.77258139770E+01 0.77258867825E+01
 0.80984825188E+01 0.88033220901E+01 0.10654504167E+02 0.15071062943E+02 0.22660779400E+02
 0.32851438830E+02 0.43931179386E+02 0.53453391455E+02 0.58981349404E+02 0.58981039542E+02
 0.68461821298E+02 0.59038291736E+02 0.46158944241E+02 0.32850859036E+02 0.21661045773E+02
 0.14020498602E+02 0.10020993352E+02 0.85558077017E+01 0.79750683671E+01 0.77651599876E+01
 0.79752214507E+01 0.85557846641E+01 0.10020823429E+02 0.14020731310E+02 0.21661883128E+02
 0.32851438052E+02 0.46158065312E+02 0.59035990721E+02 0.68459782025E+02 0.71927563251E+02
 0.79428953321E+02 0.71946842095E+02 0.59038590777E+02 0.43932092906E+02 0.29826609018E+02
 0.18982259856E+02 0.12292044419E+02 0.92486686117E+01 0.82681731453E+01 0.78433676111E+01
 0.78434538479E+01 0.82682635875E+01 0.92486020973E+01 0.12292075222E+02 0.18982669457E+02
 0.29826919562E+02 0.43931181192E+02 0.59035992832E+02 0.71943779106E+02 0.79427574096E+02
 0.55847023679E+02 0.53138648374E+02 0.45784551238E+02 0.35773785635E+02 0.25535809978E+02
 0.17114715424E+02 0.11597906293E+02 0.88995831453E+01 0.79168454764E+01 0.74017480157E+01
 0.72193827417E+01 0.74017589759E+01 0.79168540590E+01 0.88995813230E+01 0.11597902700E+02
 0.17114723455E+02 0.25535828849E+02 0.35773800446E+02 0.45784552087E+02 0.53138642370E+02
 0.53139444049E+02 0.53138645944E+02 0.48091301717E+02 0.39411633558E+02 0.29351622072E+02
 0.20173754271E+02 0.13442279226E+02 0.96282510882E+01 0.80791757751E+01 0.74364519541E+01