   2   2   0   0
  0.8356725E+01  0.2236800E-09  0.2236800E-09  0.3857280E-09  0.5000000E-15
  1.000000000000000E-004
  CAR 
 unknown system                          
     81.25284075     -4.56154726  301      9.36667858      1.00000000
     -4.562  0.0000E+00  0.0000E+00
     -4.275  0.0000E+00  0.0000E+00
     -3.989  0.0000E+00  0.0000E+00
     -3.703  0.0000E+00  0.0000E+00
     -3.417  0.0000E+00  0.0000E+00
     -3.131  0.0000E+00  0.0000E+00
     -2.845  0.0000E+00  0.0000E+00
     -2.559  0.0000E+00  0.0000E+00
     -2.273 -0.7157E-30 -0.2047E-30
     -1.987 -0.7887E-21 -0.2256E-21
     -1.701 -0.1344E-13 -0.3844E-14
     -1.415 -0.3644E-08 -0.1042E-08
     -1.129 -0.1454E-04 -0.4160E-05
     -0.843 -0.4006E-03 -0.1187E-03
     -0.557  0.8487E-02  0.2309E-02
     -0.271  0.4005E-01  0.1377E-01
      0.015  0.8740E-01  0.3877E-01
      0.301  0.5608E-01  0.5481E-01
      0.587  0.1164E+00  0.8810E-01
      0.873  0.1601E+00  0.1339E+00
      1.159  0.1580E+00  0.1791E+00
      1.445  0.1038E+00  0.2088E+00
      1.732  0.1475E+00  0.2510E+00
      2.018  0.3303E+00  0.3455E+00
      2.304  0.2448E+00  0.4155E+00
      2.590  0.3234E+00  0.5080E+00
      2.876  0.1901E+00  0.5624E+00
      3.162  0.9592E+00  0.8367E+00
      3.448  0.1930E+01  0.1389E+01
      3.734  0.1730E+01  0.1884E+01
      4.020  0.2501E+01  0.2599E+01
      4.306  0.2178E+01  0.3222E+01
      4.592  0.2396E+01  0.3908E+01
      4.878  0.1762E+01  0.4412E+01
      5.164  0.2470E+01  0.5118E+01
      5.450  0.2513E+01  0.5837E+01
      5.736  0.2483E+01  0.6547E+01
      6.022  0.2270E+01  0.7197E+01
      6.308  0.1650E+01  0.7668E+01
      6.594  0.2030E+01  0.8249E+01
      6.880  0.2974E+01  0.9100E+01
      7.166  0.2982E+01  0.9953E+01
      7.452  0.3090E+01  0.1084E+02
      7.739  0.3028E+01  0.1170E+02
      8.025  0.3404E+01  0.1268E+02
      8.311  0.2939E+01  0.1352E+02
      8.597  0.2272E+01  0.1417E+02
      8.883  0.2143E+01  0.1478E+02
      9.169  0.2676E+01  0.1555E+02
      9.455  0.2184E+01  0.1617E+02
      9.741  0.1633E+01  0.1664E+02
     10.027  0.2961E+01  0.1748E+02
     10.313  0.3807E+01  0.1857E+02
     10.599  0.3846E+01  0.1967E+02
     10.885  0.3774E+01  0.2075E+02
     11.171  0.1575E+01  0.2120E+02
     11.457  0.1662E+00  0.2125E+02
     11.743  0.1366E+00  0.2129E+02
     12.029  0.7577E+00  0.2151E+02
     12.315  0.6709E+00  0.2170E+02
     12.601  0.5674E+00  0.2186E+02
     12.887  0.3186E+00  0.2195E+02
     13.173  0.6509E+00  0.2214E+02
     13.459  0.3121E+00  0.2223E+02
     13.746  0.2415E+00  0.2230E+02
     14.032  0.2395E+00  0.2237E+02
     14.318  0.7314E+00  0.2257E+02
     14.604  0.5445E+00  0.2273E+02
     14.890  0.3128E+00  0.2282E+02
     15.176  0.2652E+00  0.2290E+02
     15.462  0.3557E+00  0.2300E+02
     15.748  0.4349E+00  0.2312E+02
     16.034  0.3319E+00  0.2322E+02
     16.320  0.2780E+00  0.2330E+02
     16.606  0.2824E+00  0.2338E+02
     16.892  0.2718E+00  0.2345E+02
     17.178  0.3337E+00  0.2355E+02
     17.464  0.2787E+00  0.2363E+02
     17.750  0.4238E+00  0.2375E+02
     18.036  0.3850E+00  0.2386E+02
     18.322  0.1064E+00  0.2389E+02
     18.608  0.7849E-01  0.2391E+02
     18.894  0.1277E+00  0.2395E+02
     19.180  0.1151E+00  0.2398E+02
     19.466  0.1676E+00  0.2403E+02
     19.753  0.2488E+00  0.2410E+02
     20.039  0.2168E+00  0.2416E+02
     20.325  0.3802E+00  0.2427E+02
     20.611  0.3188E+00  0.2436E+02
     20.897  0.4384E+00  0.2449E+02
     21.183  0.5443E+00  0.2465E+02
     21.469  0.8846E+00  0.2490E+02
     21.755  0.7758E+00  0.2512E+02
     22.041  0.4895E+00  0.2526E+02
     22.327  0.4126E+00  0.2538E+02
     22.613  0.7818E+00  0.2560E+02
     22.899  0.4538E+00  0.2573E+02
     23.185  0.8113E+00  0.2596E+02
     23.471  0.7053E+00  0.2617E+02
     23.757  0.4680E+00  0.2630E+02
     24.043  0.7256E+00  0.2651E+02
     24.329  0.7063E+00  0.2671E+02
     24.615  0.6550E+00  0.2690E+02
     24.901  0.6155E+00  0.2707E+02
     25.187  0.5262E+00  0.2722E+02
     25.473  0.7947E+00  0.2745E+02
     25.760  0.4946E+00  0.2759E+02
     26.046  0.4357E+00  0.2772E+02
     26.332  0.6061E+00  0.2789E+02
     26.618  0.5206E+00  0.2804E+02
     26.904  0.6798E+00  0.2823E+02
     27.190  0.4896E+00  0.2837E+02
     27.476  0.7665E+00  0.2859E+02
     27.762  0.4854E+00  0.2873E+02
     28.048  0.7548E+00  0.2895E+02
     28.334  0.1214E+01  0.2929E+02
     28.620  0.3895E+00  0.2941E+02
     28.906  0.8520E+00  0.2965E+02
     29.192  0.1226E+01  0.3000E+02
     29.478  0.4379E+00  0.3013E+02
     29.764  0.5913E+00  0.3030E+02
     30.050  0.9242E+00  0.3056E+02
     30.336  0.7862E+00  0.3078E+02
     30.622  0.8836E+00  0.3104E+02
     30.908  0.1294E+01  0.3141E+02
     31.194  0.6604E+00  0.3160E+02
     31.480  0.6880E+00  0.3179E+02
     31.767  0.1098E+01  0.3211E+02
     32.053  0.6567E+00  0.3229E+02
     32.339  0.6205E+00  0.3247E+02
     32.625  0.1050E+01  0.3277E+02
     32.911  0.9226E+00  0.3304E+02
     33.197  0.5204E+00  0.3319E+02
     33.483  0.1124E+01  0.3351E+02
     33.769  0.1070E+01  0.3381E+02
     34.055  0.7083E+00  0.3402E+02
     34.341  0.7351E+00  0.3423E+02
     34.627  0.4442E+00  0.3435E+02
     34.913  0.5994E+00  0.3452E+02
     35.199  0.6058E+00  0.3470E+02
     35.485  0.9051E+00  0.3496E+02
     35.771  0.8821E+00  0.3521E+02
     36.057  0.4886E+00  0.3535E+02
     36.343  0.6111E+00  0.3552E+02
     36.629  0.7101E+00  0.3573E+02
     36.915  0.6640E+00  0.3592E+02
     37.201  0.4055E+00  0.3603E+02
     37.488  0.3933E+00  0.3614E+02
     37.774  0.3872E+00  0.3626E+02
     38.060  0.8793E+00  0.3651E+02
     38.346  0.5282E+00  0.3666E+02
     38.632  0.6893E+00  0.3686E+02
     38.918  0.1030E+01  0.3715E+02
     39.204  0.7815E+00  0.3737E+02
     39.490  0.9976E+00  0.3766E+02
     39.776  0.5925E+00  0.3783E+02
     40.062  0.6211E+00  0.3801E+02
     40.348  0.7982E+00  0.3823E+02
     40.634  0.9900E+00  0.3852E+02
     40.920  0.1013E+01  0.3881E+02
     41.206  0.8231E+00  0.3904E+02
     41.492  0.8780E+00  0.3929E+02
     41.778  0.6572E+00  0.3948E+02
     42.064  0.5136E+00  0.3963E+02
     42.350  0.8636E+00  0.3988E+02
     42.636  0.1029E+01  0.4017E+02
     42.922  0.7995E+00  0.4040E+02
     43.208  0.1034E+01  0.4069E+02
     43.495  0.6078E+00  0.4087E+02
     43.781  0.6083E+00  0.4104E+02
     44.067  0.7073E+00  0.4124E+02
     44.353  0.7425E+00  0.4146E+02
     44.639  0.9950E+00  0.4174E+02
     44.925  0.6269E+00  0.4192E+02
     45.211  0.8719E+00  0.4217E+02
     45.497  0.5136E+00  0.4232E+02
     45.783  0.8706E+00  0.4257E+02
     46.069  0.5443E+00  0.4272E+02
     46.355  0.1104E+01  0.4304E+02
     46.641  0.1090E+01  0.4335E+02
     46.927  0.7983E+00  0.4358E+02
     47.213  0.6460E+00  0.4376E+02
     47.499  0.4235E+00  0.4388E+02
     47.785  0.6947E+00  0.4408E+02
     48.071  0.4857E+00  0.4422E+02
     48.357  0.7646E+00  0.4444E+02
     48.643  0.1019E+01  0.4473E+02
     48.929  0.1157E+01  0.4506E+02
     49.215  0.1101E+01  0.4538E+02
     49.502  0.1117E+01  0.4570E+02
     49.788  0.1077E+01  0.4601E+02
     50.074  0.6301E+00  0.4619E+02
     50.360  0.7265E+00  0.4639E+02
     50.646  0.1519E+01  0.4683E+02
     50.932  0.9339E+00  0.4709E+02
     51.218  0.9324E+00  0.4736E+02
     51.504  0.8980E+00  0.4762E+02
     51.790  0.1125E+01  0.4794E+02
     52.076  0.1124E+01  0.4826E+02
     52.362  0.8743E+00  0.4851E+02
     52.648  0.1057E+01  0.4881E+02
     52.934  0.4541E+00  0.4894E+02
     53.220  0.5881E+00  0.4911E+02
     53.506  0.9651E+00  0.4939E+02
     53.792  0.7214E+00  0.4959E+02
     54.078  0.5048E+00  0.4974E+02
     54.364  0.6087E+00  0.4991E+02
     54.650  0.9374E+00  0.5018E+02
     54.936  0.9992E+00  0.5047E+02
     55.222  0.1370E+01  0.5086E+02
     55.509  0.6449E+00  0.5104E+02
     55.795  0.9564E+00  0.5132E+02
     56.081  0.1270E+01  0.5168E+02
     56.367  0.1015E+01  0.5197E+02
     56.653  0.9411E+00  0.5224E+02
     56.939  0.9528E+00  0.5251E+02
     57.225  0.6543E+00  0.5270E+02
     57.511  0.8519E+00  0.5294E+02
     57.797  0.9584E+00  0.5322E+02
     58.083  0.1466E+01  0.5364E+02
     58.369  0.1300E+01  0.5401E+02
     58.655  0.1162E+01  0.5434E+02
     58.941  0.1221E+01  0.5469E+02
     59.227  0.1160E+01  0.5502E+02
     59.513  0.9723E+00  0.5530E+02
     59.799  0.1108E+01  0.5562E+02
     60.085  0.1531E+01  0.5606E+02
     60.371  0.9820E+00  0.5634E+02
     60.657  0.8929E+00  0.5659E+02
     60.943  0.1579E+01  0.5704E+02
     61.229  0.1273E+01  0.5741E+02
     61.516  0.1442E+01  0.5782E+02
     61.802  0.1330E+01  0.5820E+02
     62.088  0.1517E+01  0.5863E+02
     62.374  0.1482E+01  0.5906E+02
     62.660  0.1873E+01  0.5959E+02
     62.946  0.1892E+01  0.6014E+02
     63.232  0.1779E+01  0.6064E+02
     63.518  0.1981E+01  0.6121E+02
     63.804  0.2512E+01  0.6193E+02
     64.090  0.1861E+01  0.6246E+02
     64.376  0.2439E+01  0.6316E+02
     64.662  0.3531E+01  0.6417E+02
     64.948  0.2726E+01  0.6495E+02
     65.234  0.2009E+01  0.6552E+02
     65.520  0.1975E+01  0.6609E+02
     65.806  0.1605E+01  0.6655E+02
     66.092  0.1653E+01  0.6702E+02
     66.378  0.1374E+01  0.6741E+02
     66.664  0.1116E+01  0.6773E+02
     66.950  0.1707E+01  0.6822E+02
     67.236  0.1289E+01  0.6859E+02
     67.523  0.1433E+01  0.6900E+02
     67.809  0.1263E+01  0.6936E+02
     68.095  0.1096E+01  0.6968E+02
     68.381  0.1547E+01  0.7012E+02
     68.667  0.1079E+01  0.7043E+02
     68.953  0.1007E+01  0.7071E+02
     69.239  0.1510E+01  0.7115E+02
     69.525  0.1105E+01  0.7146E+02
     69.811  0.8910E+00  0.7172E+02
     70.097  0.1192E+01  0.7206E+02
     70.383  0.1487E+01  0.7248E+02
     70.669  0.1177E+01  0.7282E+02
     70.955  0.1208E+01  0.7317E+02
     71.241  0.1291E+01  0.7354E+02
     71.527  0.1531E+01  0.7397E+02
     71.813  0.1718E+01  0.7447E+02
     72.099  0.1323E+01  0.7484E+02
     72.385  0.1057E+01  0.7515E+02
     72.671  0.8023E+00  0.7538E+02
     72.957  0.9381E+00  0.7564E+02
     73.243  0.1450E+01  0.7606E+02
     73.530  0.1221E+01  0.7641E+02
     73.816  0.1494E+01  0.7684E+02
     74.102  0.1206E+01  0.7718E+02
     74.388  0.8672E+00  0.7743E+02
     74.674  0.1016E+01  0.7772E+02
     74.960  0.1064E+01  0.7802E+02
     75.246  0.1018E+01  0.7831E+02
     75.532  0.1260E+01  0.7867E+02
     75.818  0.1064E+01  0.7898E+02
     76.104  0.4415E+00  0.7911E+02
     76.390  0.1287E+01  0.7947E+02
     76.676  0.6980E+00  0.7967E+02
     76.962  0.7485E+00  0.7989E+02
     77.248  0.3459E+00  0.7999E+02
     77.534  0.4892E-01  0.8000E+02
     77.820 -0.1495E-02  0.8000E+02
     78.106 -0.1451E-03  0.8000E+02
     78.392 -0.4180E-07  0.8000E+02
     78.678 -0.1595E-12  0.8000E+02
     78.964  0.0000E+00  0.8000E+02
     79.251  0.0000E+00  0.8000E+02
     79.537  0.0000E+00  0.8000E+02
     79.823  0.0000E+00  0.8000E+02
     80.109  0.0000E+00  0.8000E+02
     80.395  0.0000E+00  0.8000E+02
     80.681  0.0000E+00  0.8000E+02
     80.967  0.0000E+00  0.8000E+02
     81.253  0.0000E+00  0.8000E+02
