    2    2    1    1
  0.8356725E+01  0.2236800E-09  0.2236800E-09  0.3857280E-09  0.5000000E-15
  1.000000000000000E-004
  CAR 
 unknown system                          
     16     96     40
 
  0.0000000E+00  0.0000000E+00  0.0000000E+00  0.7513148E-03
    1       -0.660893   1.000000
    2        3.186711   1.000000
    3        6.642871   1.000000
    4        7.266264   1.000000
    5        7.266280   1.000000
    6        7.726790   1.000000
    7        7.726807   1.000000
    8        8.836280   1.000572
    9        8.836290   1.000572
   10        8.849325   1.000779
   11       10.370703  -0.000000
   12       10.370714  -0.000000
   13       19.126722   0.000000
   14       34.212752   0.000000
   15       35.638527   0.000000
   16       37.908264   0.000000
   17       41.735094   0.000000
   18       41.735117   0.000000
   19       42.391917   0.000000
   20       42.391941   0.000000
   21       44.603058   0.000000
   22       44.603068   0.000000
   23       44.996375   0.000000
   24       45.764149   0.000000
   25       49.729455   0.000000
   26       49.729464   0.000000
   27       51.354061   0.000000
   28       54.722180   0.000000
   29       54.722239   0.000000
   30       56.116054   0.000000
   31       56.116102   0.000000
   32       60.069617   0.000000
   33       65.688719   0.000000
   34       66.895871   0.000000
   35       66.895895   0.000000
   36       67.851368   0.000000
   37       68.439295   0.000000
   38       71.561771   0.000000
   39       71.561808   0.000000
   40       75.741871   0.000000
 
  0.9090909E-01  0.2850551E-17  0.0000000E+00  0.4507889E-02
    1       -0.278432   1.000000
    2        3.472341   1.000000
    3        6.574966   1.000000
    4        7.255063   1.000000
    5        7.511686   1.000000
    6        7.583448   1.000000
    7        7.639278   1.000000
    8        7.951845   1.000000
    9        8.668078   1.000005
   10        8.679117   1.000007
   11       10.424530  -0.000000
   12       11.841193  -0.000000
   13       19.124384   0.000000
   14       33.378348   0.000000
   15       35.973972   0.000000
   16       36.604613   0.000000
   17       38.516718   0.000000
   18       40.270216   0.000000
   19       40.473436   0.000000
   20       44.251466   0.000000
   21       44.578845   0.000000
   22       45.542420   0.000000
   23       46.245300   0.000000
   24       46.408263   0.000000
   25       50.619994   0.000000
   26       50.715975   0.000000
   27       51.860546   0.000000
   28       52.030996   0.000000
   29       55.251829   0.000000
   30       58.005547   0.000000
   31       58.398014   0.000000
   32       61.068667   0.000000
   33       65.483058   0.000000
   34       65.665523   0.000000
   35       66.160078   0.000000
   36       67.496438   0.000000
   37       67.680103   0.000000
   38       71.634267   0.000000
   39       73.658902   0.000000
   40       75.560133   0.000000
 
  0.1818182E+00 -0.8243298E-17  0.0000000E+00  0.4507889E-02
    1        0.785643   1.000000
    2        4.120387   1.000000
    3        6.186102   1.000000
    4        6.228014   1.000000
    5        7.065501   1.000000
    6        7.830904   1.000000
    7        8.208793   1.000000
    8        8.242323   1.000000
    9        8.315309   1.000000
   10        8.587835   1.000000
   11       10.519407  -0.000000
   12       14.075473  -0.000000
   13       19.172003   0.000000
   14       30.049941   0.000000
   15       35.294575   0.000000
   16       35.344654   0.000000
   17       35.702971   0.000000
   18       36.783440   0.000000
   19       41.530876   0.000000
   20       43.529725   0.000000
   21       43.650781   0.000000
   22       44.062133   0.000000
   23       47.058180   0.000000
   24       48.897601   0.000000
   25       51.191843   0.000000
   26       51.703243   0.000000
   27       53.315902   0.000000
   28       55.747017   0.000000
   29       59.219202   0.000000
   30       60.214992   0.000000
   31       61.042543   0.000000
   32       62.753668   0.000000
   33       64.137931   0.000000
   34       64.687423   0.000000
   35       64.942756   0.000000
   36       65.910884   0.000000
   37       69.143634   0.000000
   38       72.178541   0.000000
   39       74.765023   0.000000
   40       75.516879   0.000000
 
  0.2727273E+00  0.8485041E-17  0.0000000E+00  0.4507889E-02
    1        2.218918   1.000000
    2        4.337822   1.000000
    3        5.030341   1.000000
    4        6.176254   1.000000
    5        6.891212   1.000000
    6        7.713054   1.000000
    7        7.906325   1.000000
    8        8.825611   1.000441
    9        9.201493   0.996386
   10        9.481262   0.092508
   11       10.583326  -0.000000
   12       16.509349   0.000000
   13       19.281404   0.000000
   14       25.978623   0.000000
   15       31.935876   0.000000
   16       32.590241   0.000000
   17       33.920432   0.000000
   18       36.453455   0.000000
   19       40.461767   0.000000
   20       43.183352   0.000000
   21       44.050733   0.000000
   22       44.065893   0.000000
   23       44.684715   0.000000
   24       48.916676   0.000000
   25       54.571971   0.000000
   26       56.272144   0.000000
   27       56.983810   0.000000
   28       59.086719   0.000000
   29       60.192970   0.000000
   30       60.725024   0.000000
   31       62.830905   0.000000
   32       63.404261   0.000000
   33       64.238605   0.000000
   34       64.432235   0.000000
   35       65.216317   0.000000
   36       68.523450   0.000000
   37       69.043324   0.000000
   38       72.740162   0.000000
   39       74.780315   0.000000
   40       74.848072   0.000000
 
  0.3636364E+00 -0.2542196E-17  0.0000000E+00  0.4507889E-02
    1        3.294010   1.000000
    2        3.992007   1.000000
    3        4.235366   1.000000
    4        6.531469   1.000000
    5        7.252814   1.000000
    6        7.356142   1.000000
    7        7.571964   1.000000
    8       10.204360  -0.000000
    9       10.387832  -0.000000
   10       10.405383  -0.000000
   11       10.606005  -0.000000
   12       18.807822   0.000000
   13       19.032323   0.000000
   14       23.153029   0.000000
   15       28.564076   0.000000
   16       30.446341   0.000000
   17       31.328056   0.000000
   18       35.440743   0.000000
   19       39.159686   0.000000
   20       42.440161   0.000000
   21       42.974565   0.000000
   22       45.258444   0.000000
   23       46.272363   0.000000
   24       49.111582   0.000000
   25       57.247469   0.000000
   26       58.126928   0.000000
   27       58.264347   0.000000
   28       61.483959   0.000000
   29       61.970311   0.000000
   30       62.033760   0.000000
   31       63.426099   0.000000
   32       64.307113   0.000000
   33       65.184511   0.000000
   34       65.812193   0.000000
   35       66.459205   0.000000
   36       68.274886   0.000000
   37       72.963408   0.000000
   38       73.580738   0.000000
   39       74.117969   0.000000
   40       74.749849   0.000000
 
  0.4545455E+00 -0.1199292E-16  0.0000000E+00  0.4507889E-02
    1        3.444738   1.000000
    2        3.831495   1.000000
    3        3.866585   1.000000
    4        6.989661   1.000000
    5        7.228046   1.000000
    6        7.384957   1.000000
    7        7.667485   1.000000
    8       10.610391  -0.000000
    9       10.829202  -0.000000
   10       11.005141  -0.000000
   11       12.455615  -0.000000
   12       16.530052   0.000000
   13       21.363407   0.000000
   14       23.234320   0.000000
   15       25.861816   0.000000
   16       28.683934   0.000000
   17       29.232804   0.000000
   18       34.721789   0.000000
   19       38.724307   0.000000
   20       41.144213   0.000000
   21       42.840392   0.000000
   22       46.265655   0.000000
   23       48.483127   0.000000
   24       49.256533   0.000000
   25       53.972114   0.000000
   26       59.716281   0.000000
   27       59.871322   0.000000
   28       62.460080   0.000000
   29       63.040688   0.000000
   30       63.855037   0.000000
   31       64.530291   0.000000
   32       64.881311   0.000000
   33       66.441370   0.000000
   34       68.767258   0.000000
   35       68.827362   0.000000
   36       71.367920   0.000000
   37       71.951185   0.000000
   38       72.043305   0.000000
   39       74.769442   0.000000
   40       74.837101   0.000000
 
  0.9090909E-01  0.9090909E-01  0.0000000E+00  0.4507889E-02
    1        0.449469   1.000000
    2        3.966528   1.000000
    3        6.281370   1.000000
    4        6.576006   1.000000
    5        7.313233   1.000000
    6        7.431883   1.000000
    7        8.022841   1.000000
    8        8.127911   1.000000
    9        8.452285   1.000000
   10        8.666511   1.000004
   11       10.457517  -0.000000
   12       13.462437  -0.000000
   13       19.157893   0.000000
   14       31.612078   0.000000
   15       33.528211   0.000000
   16       36.391791   0.000000
   17       37.223763   0.000000
   18       39.165720   0.000000
   19       39.462367   0.000000
   20       42.116918   0.000000
   21       43.965978   0.000000
   22       47.579432   0.000000
   23       48.022185   0.000000
   24       49.053806   0.000000
   25       49.597008   0.000000
   26       50.236595   0.000000
   27       50.517395   0.000000
   28       56.019860   0.000000
   29       58.721620   0.000000
   30       59.645926   0.000000
   31       59.893016   0.000000
   32       62.349840   0.000000
   33       63.470266   0.000000
   34       65.084993   0.000000
   35       66.146551   0.000000
   36       67.086072   0.000000
   37       67.190866   0.000000
   38       72.587656   0.000000
   39       74.587790   0.000000
   40       75.230676   0.000000
 
  0.1818182E+00  0.9090909E-01  0.0000000E+00  0.9015778E-02
    1        1.740135   1.000000
    2        4.551267   1.000000
    3        5.456842   1.000000
    4        5.863097   1.000000
    5        6.983454   1.000000
    6        7.585440   1.000000
    7        8.004977   1.000000
    8        8.344252   1.000000
    9        8.935911   1.004714
   10        9.385095   0.422437
   11       10.481106  -0.000000
   12       15.666263   0.000000
   13       19.294649   0.000000
   14       28.034972   0.000000
   15       30.901995   0.000000
   16       33.688892   0.000000
   17       36.137174   0.000000
   18       37.039803   0.000000
   19       40.510199   0.000000
   20       41.464643   0.000000
   21       42.611113   0.000000
   22       47.162770   0.000000
   23       47.785758   0.000000
   24       48.797274   0.000000
   25       51.737351   0.000000
   26       52.426096   0.000000
   27       54.451615   0.000000
   28       59.687115   0.000000
   29       60.895186   0.000000
   30       61.292300   0.000000
   31       61.971081   0.000000
   32       63.106463   0.000000
   33       63.520536   0.000000
   34       64.720208   0.000000
   35       66.035953   0.000000
   36       66.514213   0.000000
   37       68.123346   0.000000
   38       73.155130   0.000000
   39       74.351453   0.000000
   40       74.758081   0.000000
 
  0.2727273E+00  0.9090909E-01  0.0000000E+00  0.9015778E-02
    1        3.124968   1.000000
    2        4.385094   1.000000
    3        4.582551   1.000000
    4        6.023046   1.000000
    5        7.098953   1.000000
    6        7.172678   1.000000
    7        7.864730   1.000000
    8        8.984375   1.010528
    9        9.946665  -0.000162
   10       10.489819  -0.000000
   11       10.606209  -0.000000
   12       18.107541   0.000000
   13       19.449434   0.000000
   14       24.282338   0.000000
   15       28.985637   0.000000
   16       30.294917   0.000000
   17       33.867180   0.000000
   18       34.888422   0.000000
   19       40.137031   0.000000
   20       41.423994   0.000000
   21       42.741589   0.000000
   22       47.002343   0.000000
   23       47.161583   0.000000
   24       49.833213   0.000000
   25       54.008613   0.000000
   26       56.438130   0.000000
   27       58.358560   0.000000
   28       59.104187   0.000000
   29       60.055739   0.000000
   30       62.764831   0.000000
   31       62.845528   0.000000
   32       64.627927   0.000000
   33       65.246905   0.000000
   34       66.150655   0.000000
   35       66.449968   0.000000
   36       67.489374   0.000000
   37       71.996097   0.000000
   38       72.961286   0.000000
   39       72.968375   0.000000
   40       75.276784   0.000000
 
  0.3636364E+00  0.9090909E-01  0.0000000E+00  0.9015778E-02
    1        3.713795   1.000000
    2        4.038097   1.000000
    3        4.092466   1.000000
    4        6.644438   1.000000
    5        6.965556   1.000000
    6        7.424067   1.000000
    7        7.545447   1.000000
    8       10.127422  -0.000001
    9       10.483562  -0.000000
   10       10.663224  -0.000000
   11       12.134270  -0.000000
   12       18.129356   0.000000
   13       20.614204   0.000000
   14       23.002870   0.000000
   15       27.263451   0.000000
   16       27.476689   0.000000
   17       30.586454   0.000000
   18       33.854164   0.000000
   19       39.151123   0.000000
   20       40.843149   0.000000
   21       43.758442   0.000000
   22       47.474460   0.000000
   23       48.465911   0.000000
   24       49.617460   0.000000
   25       55.865900   0.000000
   26       56.727240   0.000000
   27       59.193401   0.000000
   28       60.471743   0.000000
   29       62.366314   0.000000
   30       63.128595   0.000000
   31       63.698959   0.000000
   32       64.633407   0.000000
   33       65.212890   0.000000
   34       68.156717   0.000000
   35       69.869512   0.000000
   36       69.949505   0.000000
   37       70.667723   0.000000
   38       73.897450   0.000000
   39       74.918767   0.000000
   40       75.557392   0.000000
 
  0.4545455E+00  0.9090909E-01  0.0000000E+00  0.4507889E-02
    1        3.655687   1.000000
    2        3.854041   1.000000
    3        4.091081   1.000000
    4        6.939537   1.000000
    5        7.104460   1.000000
    6        7.215516   1.000000
    7        7.702700   1.000000
    8       10.479450  -0.000000
    9       10.769276  -0.000000
   10       10.790698  -0.000000
   11       13.558917  -0.000000
   12       16.215220   0.000000
   13       22.292368   0.000000
   14       23.673480   0.000000
   15       25.426110   0.000000
   16       26.679097   0.000000
   17       28.987579   0.000000
   18       33.477707   0.000000
   19       38.716287   0.000000
   20       40.669566   0.000000
   21       43.994266   0.000000
   22       48.413912   0.000000
   23       48.475265   0.000000
   24       50.258260   0.000000
   25       53.722547   0.000000
   26       58.583750   0.000000
   27       59.481862   0.000000
   28       61.355523   0.000000
   29       62.778964   0.000000
   30       63.425422   0.000000
   31       64.816080   0.000000
   32       64.892029   0.000000
   33       65.897422   0.000000
   34       67.464815   0.000000
   35       71.254051   0.000000
   36       72.210084   0.000000
   37       72.514394   0.000000
   38       72.576595   0.000000
   39       73.959099   0.000000
   40       76.334561   0.000000
 
  0.1818182E+00  0.1818182E+00  0.0000000E+00  0.4507889E-02
    1        3.104780   1.000000
    2        4.785785   1.000000
    3        5.042724   1.000000
    4        5.284405   1.000000
    5        7.016577   1.000000
    6        7.086755   1.000000
    7        8.072933   1.000000
    8        8.321084   1.000000
    9        9.919916  -0.000325
   10       10.366932  -0.000000
   11       10.685496  -0.000000
   12       17.821040   0.000000
   13       19.697410   0.000000
   14       25.832805   0.000000
   15       26.973740   0.000000
   16       31.603472   0.000000
   17       33.811225   0.000000
   18       36.388884   0.000000
   19       37.270580   0.000000
   20       42.338065   0.000000
   21       43.871245   0.000000
   22       48.774184   0.000000
   23       48.783869   0.000000
   24       50.697774   0.000000
   25       51.531344   0.000000
   26       53.690783   0.000000
   27       55.376393   0.000000
   28       60.392194   0.000000
   29       61.164676   0.000000
   30       61.951500   0.000000
   31       62.337785   0.000000
   32       64.764491   0.000000
   33       64.931380   0.000000
   34       66.170496   0.000000
   35       67.540623   0.000000
   36       69.002132   0.000000
   37       69.332877   0.000000
   38       72.686849   0.000000
   39       72.837830   0.000000
   40       76.033470   0.000000
 
  0.2727273E+00  0.1818182E+00  0.0000000E+00  0.9015778E-02
    1        4.275476   1.000000
    2        4.308860   1.000000
    3        4.657830   1.000000
    4        5.636300   1.000000
    5        6.719905   1.000000
    6        7.443342   1.000000
    7        7.574561   1.000000
    8        9.040177   1.021570
    9       10.265804  -0.000000
   10       10.600581  -0.000000
   11       12.292024  -0.000000
   12       19.932047   0.000000
   13       20.263986   0.000000
   14       23.010561   0.000000
   15       25.134920   0.000000
   16       29.113332   0.000000
   17       31.941699   0.000000
   18       32.845258   0.000000
   19       35.913129   0.000000
   20       44.413123   0.000000
   21       44.479232   0.000000
   22       48.654232   0.000000
   23       50.467150   0.000000
   24       51.787544   0.000000
   25       53.247399   0.000000
   26       54.894509   0.000000
   27       56.630974   0.000000
   28       58.383339   0.000000
   29       61.111579   0.000000
   30       62.730372   0.000000
   31       63.906473   0.000000
   32       64.537099   0.000000
   33       65.265111   0.000000
   34       67.636487   0.000000
   35       69.329645   0.000000
   36       69.981711   0.000000
   37       71.995173   0.000000
   38       73.256699   0.000000
   39       75.127724   0.000000
   40       76.556510   0.000000
 
  0.3636364E+00  0.1818182E+00  0.0000000E+00  0.9015778E-02
    1        4.066558   1.000000
    2        4.302461   1.000000
    3        4.628386   1.000000
    4        6.325787   1.000000
    5        6.748228   1.000000
    6        7.070520   1.000000
    7        7.778097   1.000000
    8        9.928515  -0.000261
    9       10.209493  -0.000000
   10       10.655040  -0.000000
   11       14.165007  -0.000000
   12       17.758046   0.000000
   13       22.724900   0.000000
   14       23.273035   0.000000
   15       24.378528   0.000000
   16       26.481861   0.000000
   17       29.820040   0.000000
   18       31.142109   0.000000
   19       35.225817   0.000000
   20       44.374412   0.000000
   21       46.245204   0.000000
   22       48.953880   0.000000
   23       50.606507   0.000000
   24       51.551334   0.000000
   25       55.618653   0.000000
   26       55.804863   0.000000
   27       57.582244   0.000000
   28       58.044747   0.000000
   29       61.792129   0.000000
   30       62.536811   0.000000
   31       63.508343   0.000000
   32       65.096498   0.000000
   33       65.396573   0.000000
   34       66.327442   0.000000
   35       70.125609   0.000000
   36       71.780262   0.000000
   37       73.525612   0.000000
   38       73.930254   0.000000
   39       75.467403   0.000000
   40       76.637935   0.000000
 
  0.2727273E+00  0.2727273E+00  0.0000000E+00  0.4507889E-02
    1        4.215317   1.000000
    2        4.885291   1.000000
    3        5.248970   1.000000
    4        5.378520   1.000000
    5        6.535668   1.000000
    6        7.100446   1.000000
    7        7.836630   1.000000
    8        9.381577   0.437153
    9       10.071654  -0.000004
   10       10.622164  -0.000000
   11       14.338515  -0.000000
   12       20.064909   0.000000
   13       20.579003   0.000000
   14       22.776165   0.000000
   15       24.410356   0.000000
   16       28.264626   0.000000
   17       29.021848   0.000000
   18       31.580391   0.000000
   19       32.547656   0.000000
   20       46.192980   0.000000
   21       47.225038   0.000000
   22       51.123539   0.000000
   23       52.139932   0.000000
   24       53.012212   0.000000
   25       53.316410   0.000000
   26       53.370666   0.000000
   27       56.577293   0.000000
   28       59.021425   0.000000
   29       59.204621   0.000000
   30       61.692541   0.000000
   31       63.075313   0.000000
   32       65.303400   0.000000
   33       65.922668   0.000000
   34       66.177139   0.000000
   35       70.515220   0.000000
   36       71.765037   0.000000
   37       71.796500   0.000000
   38       73.894113   0.000000
   39       76.233428   0.000000
   40       76.929013   0.000000
 
  0.3636364E+00  0.2727273E+00  0.0000000E+00  0.4507889E-02
    1        4.205408   1.000000
    2        4.990127   1.000000
    3        5.145165   1.000000
    4        5.752357   1.000000
    5        6.625204   1.000000
    6        6.741280   1.000000
    7        8.026112   1.000000
    8        9.855385  -0.001485
    9        9.997480  -0.000038
   10       10.240929  -0.000000
   11       16.230198   0.000000
   12       17.941142   0.000000
   13       20.187831   0.000000
   14       24.955044   0.000000
   15       25.381056   0.000000
   16       26.336261   0.000000
   17       28.335408   0.000000
   18       29.900233   0.000000
   19       31.895504   0.000000
   20       46.546455   0.000000
   21       49.469905   0.000000
   22       51.329079   0.000000
   23       51.414251   0.000000
   24       52.586202   0.000000
   25       53.973318   0.000000
   26       54.780489   0.000000
   27       57.911008   0.000000
   28       58.119866   0.000000
   29       58.522819   0.000000
   30       61.775800   0.000000
   31       62.540502   0.000000
   32       63.129100   0.000000
   33       65.649583   0.000000
   34       66.312780   0.000000
   35       69.906241   0.000000
   36       71.825520   0.000000
   37       74.524006   0.000000
   38       74.899097   0.000000
   39       75.397154   0.000000
   40       75.546281   0.000000
 
  0.0000000E+00  0.0000000E+00  0.9090909E-01  0.1502630E-02
    1       -0.563589   1.000000
    2        3.178287   1.000000
    3        6.610963   1.000000
    4        7.250264   1.000000
    5        7.250279   1.000000
    6        7.699166   1.000000
    7        7.699184   1.000000
    8        8.586242   1.000000
    9        8.891158   1.001966
   10        8.891168   1.001966
   11       10.360450  -0.000000
   12       10.360461  -0.000000
   13       19.536439   0.000000
   14       33.925593   0.000000
   15       35.522344   0.000000
   16       37.691453   0.000000
   17       41.740872   0.000000
   18       41.740895   0.000000
   19       42.384804   0.000000
   20       42.384828   0.000000
   21       44.605826   0.000000
   22       44.605837   0.000000
   23       45.145296   0.000000
   24       46.097275   0.000000
   25       49.300714   0.000000
   26       49.300725   0.000000
   27       51.732739   0.000000
   28       54.916539   0.000000
   29       54.916596   0.000000
   30       56.460764   0.000000
   31       56.460809   0.000000
   32       59.754783   0.000000
   33       65.948607   0.000000
   34       65.961945   0.000000
   35       66.784862   0.000000
   36       66.784887   0.000000
   37       70.289517   0.000000
   38       70.816789   0.000000
   39       70.816827   0.000000
   40       74.416333   0.000000
 
  0.9090909E-01  0.2850551E-17  0.9090909E-01  0.9015778E-02
    1       -0.184013   1.000000
    2        3.468999   1.000000
    3        6.568175   1.000000
    4        7.195442   1.000000
    5        7.348556   1.000000
    6        7.489700   1.000000
    7        7.731322   1.000000
    8        7.921541   1.000000
    9        8.732711   1.000035
   10        8.747908   1.000055
   11       10.409378  -0.000000
   12       11.658355  -0.000000
   13       19.566958   0.000000
   14       33.300829   0.000000
   15       35.562120   0.000000
   16       36.572499   0.000000
   17       38.586499   0.000000
   18       39.596545   0.000000
   19       41.191927   0.000000
   20       43.981754   0.000000
   21       44.362551   0.000000
   22       45.637637   0.000000
   23       46.226262   0.000000
   24       46.936504   0.000000
   25       50.297082   0.000000
   26       50.588108   0.000000
   27       52.331700   0.000000
   28       52.504408   0.000000
   29       55.186075   0.000000
   30       58.239826   0.000000
   31       58.641337   0.000000
   32       60.773813   0.000000
   33       64.423282   0.000000
   34       65.722612   0.000000
   35       66.002986   0.000000
   36       67.160137   0.000000
   37       69.079794   0.000000
   38       70.992217   0.000000
   39       72.609075   0.000000
   40       74.245130   0.000000
 
  0.1818182E+00 -0.8243298E-17  0.9090909E-01  0.9015778E-02
    1        0.867834   1.000000
    2        4.133041   1.000000
    3        6.071697   1.000000
    4        6.257315   1.000000
    5        7.017779   1.000000
    6        7.708170   1.000000
    7        8.098135   1.000000
    8        8.420561   1.000000
    9        8.424397   1.000000
   10        8.609744   1.000001
   11       10.494511  -0.000000
   12       13.693033  -0.000000
   13       19.736256   0.000000
   14       30.101293   0.000000
   15       34.685508   0.000000
   16       35.447791   0.000000
   17       36.085901   0.000000
   18       36.421950   0.000000
   19       41.468062   0.000000
   20       42.909379   0.000000
   21       43.176967   0.000000
   22       44.898967   0.000000
   23       47.308644   0.000000
   24       49.483877   0.000000
   25       51.477324   0.000000
   26       51.706442   0.000000
   27       53.076555   0.000000
   28       55.838237   0.000000
   29       58.661695   0.000000
   30       60.634375   0.000000
   31       61.247586   0.000000
   32       62.200427   0.000000
   33       63.371867   0.000000
   34       64.510695   0.000000
   35       65.236760   0.000000
   36       66.776579   0.000000
   37       69.078847   0.000000
   38       71.688055   0.000000
   39       73.685880   0.000000
   40       74.270833   0.000000
 
  0.2727273E+00  0.8485041E-17  0.9090909E-01  0.9015778E-02
    1        2.264316   1.000000
    2        4.359600   1.000000
    3        4.999339   1.000000
    4        6.179578   1.000000
    5        6.821098   1.000000
    6        7.765381   1.000000
    7        7.934006   1.000000
    8        8.864651   1.001107
    9        9.216443   0.976482
   10        9.456733   0.158425
   11       10.551304  -0.000000
   12       15.773674   0.000000
   13       20.138004   0.000000
   14       26.048525   0.000000
   15       31.528619   0.000000
   16       32.714872   0.000000
   17       34.168672   0.000000
   18       36.367591   0.000000
   19       40.306601   0.000000
   20       42.245361   0.000000
   21       42.843116   0.000000
   22       45.105598   0.000000
   23       45.588721   0.000000
   24       49.799624   0.000000
   25       54.693662   0.000000
   26       56.122090   0.000000
   27       56.576666   0.000000
   28       57.424448   0.000000
   29       60.777004   0.000000
   30       61.657410   0.000000
   31       63.080196   0.000000
   32       63.244709   0.000000
   33       63.705676   0.000000
   34       64.396679   0.000000
   35       65.764510   0.000000
   36       68.219012   0.000000
   37       69.094443   0.000000
   38       72.370285   0.000000
   39       73.322877   0.000000
   40       75.648016   0.000000
 
  0.3636364E+00 -0.2542196E-17  0.9090909E-01  0.9015778E-02
    1        3.244300   1.000000
    2        3.936102   1.000000
    3        4.406764   1.000000
    4        6.214820   1.000000
    5        7.359667   1.000000
    6        7.618717   1.000000
    7        7.633542   1.000000
    8       10.210656  -0.000000
    9       10.307193  -0.000000
   10       10.354692  -0.000000
   11       10.613911  -0.000000
   12       17.348063   0.000000
   13       20.463460   0.000000
   14       23.293540   0.000000
   15       28.221810   0.000000
   16       30.594449   0.000000
   17       31.684031   0.000000
   18       35.455682   0.000000
   19       39.129433   0.000000
   20       41.043340   0.000000
   21       43.937748   0.000000
   22       44.358162   0.000000
   23       46.651135   0.000000
   24       50.251896   0.000000
   25       55.761357   0.000000
   26       58.041266   0.000000
   27       59.441315   0.000000
   28       60.229070   0.000000
   29       61.563000   0.000000
   30       62.962906   0.000000
   31       63.588821   0.000000
   32       64.516678   0.000000
   33       65.489670   0.000000
   34       65.901803   0.000000
   35       66.419121   0.000000
   36       68.212147   0.000000
   37       72.368588   0.000000
   38       73.093148   0.000000
   39       73.621783   0.000000
   40       75.425313   0.000000
 
  0.4545455E+00 -0.1199292E-16  0.9090909E-01  0.9015778E-02
    1        3.408722   1.000000
    2        3.543992   1.000000
    3        4.272602   1.000000
    4        6.320433   1.000000
    5        7.437796   1.000000
    6        7.635431   1.000000
    7        8.022782   1.000000
    8       10.518082  -0.000000
    9       10.838691  -0.000000
   10       11.008595  -0.000000
   11       12.338982  -0.000000
   12       16.299917   0.000000
   13       21.258050   0.000000
   14       23.226284   0.000000
   15       26.047501   0.000000
   16       29.034167   0.000000
   17       29.392673   0.000000
   18       34.766418   0.000000
   19       38.702339   0.000000
   20       40.109106   0.000000
   21       43.867214   0.000000