       N       E                     dE             d eps       ncg     rms          rms(c)
DAV:   1     0.602374645472E+02    0.60237E+02   -0.23083E+03  9624   0.335E+02
DAV:   2    -0.139808687872E+02   -0.74218E+02   -0.63291E+02  7880   0.987E+01
DAV:   3    -0.178763934333E+02   -0.38955E+01   -0.37477E+01  9600   0.235E+01
DAV:   4    -0.178883261425E+02   -0.11933E-01   -0.11929E-01  8536   0.135E+00
DAV:   5    -0.178883322942E+02   -0.61517E-05   -0.61524E-05  9320   0.294E-02    0.216E+01
DAV:   6    -0.154407387685E+02    0.24476E+01   -0.11561E+00 11312   0.200E+01    0.220E+00
DAV:   7    -0.153329786388E+02    0.10776E+00   -0.38492E-02  9296   0.227E+00    0.192E+00
DAV:   8    -0.152892961367E+02    0.43683E-01   -0.23319E-03 10848   0.289E-01    0.454E-01
DAV:   9    -0.152867954503E+02    0.25007E-02   -0.43134E-04 10120   0.121E-01    0.919E-02
DAV:  10    -0.152866842399E+02    0.11121E-03   -0.11983E-05  8832   0.181E-02    0.240E-02
DAV:  11    -0.152866517976E+02    0.32442E-04   -0.55655E-07  8760   0.446E-03    0.155E-03
DAV:  12    -0.152866514032E+02    0.39442E-06   -0.62196E-08  6224   0.112E-03
   1 F= -.15286651E+02 E0= -.15286711E+02  d E =0.178182E-03
