 vasp.6.2.0 18Jan21 (build Mar 17 2021 09:06:54) complex                        
  
 executed on             LinuxIFC date 2021.09.09  11:58:02
 serial version


--------------------------------------------------------------------------------------------------------


 INCAR:
   ENCUT = 280.000000
   SIGMA = 0.200000
   EDIFF = 1.00e-06
   GGA = PE
   PREC = normal
   IBRION = 1
   ICHARG = 1
   ISIF = 2
   ISMEAR = 1
   KPAR = 1
   NBANDS = 40
   NSW = 0
   NCORE = 1
   LCHARG = .TRUE.

 POTCAR:    PAW_PBE Fe 06Sep2000                  
 POTCAR:    PAW_PBE Fe 06Sep2000                  
   SHA256 =  cd5a22d9368cc8b5cc476bea79732366149640da08ac9009b0e1b7fc627eea28 Fe/POTCAR             
   COPYR  = (c) Copyright 06Sep2000 Georg Kresse                                                    
   COPYR  = This file is part of the software VASP. Any use, copying, and all other rights are regul
   COPYR  = If you do not have a valid VASP license, you may not use, copy or distribute this file. 
   VRHFIN =Fe:  d7 s1                                                                               
   LEXCH  = PE                                                                                      
   EATOM  =   594.3153 eV,   43.6809 Ry                                                             
                                                                                                    
   TITEL  = PAW_PBE Fe 06Sep2000                                                                    
   LULTRA =        F    use ultrasoft PP ?                                                          
   IUNSCR =        1    unscreen: 0-lin 1-nonlin 2-no                                               
   RPACOR =    2.000    partial core radius                                                         
   POMASS =   55.847; ZVAL   =    8.000    mass and valenz                                          
   RCORE  =    2.300    outmost cutoff radius                                                       
   RWIGS  =    2.460; RWIGS  =    1.302    wigner-seitz radius (au A)                               
   ENMAX  =  267.882; ENMIN  =  200.911 eV                                                          
   RCLOC  =    1.701    cutoff for local pot                                                        
   LCOR   =        T    correct aug charges                                                         
   LPAW   =        T    paw PP                                                                      
   EAUG   =  511.368                                                                                
   DEXC   =    0.000                                                                                
   RMAX   =    2.356    core radius for proj-oper                                                   
   RAUG   =    1.300    factor for augmentation sphere                                              
   RDEP   =    2.442    radius for radial grids                                                     
   RDEPT  =    1.890    core radius for aug-charge                                                  
                                                                                                    
   Atomic configuration                                                                             
    9 entries                                                                                       
     n  l   j            E        occ.                                                              
     1  0  0.50     -6993.8440   2.0000                                                             
     2  0  0.50      -814.6047   2.0000                                                             
     2  1  1.50      -693.3689   6.0000                                                             
     3  0  0.50       -89.4732   2.0000                                                             
     3  1  1.50       -55.6373   6.0000                                                             
     3  2  2.50        -3.8151   7.0000                                                             
     4  0  0.50        -4.2551   1.0000                                                             
     4  1  1.50        -3.4015   0.0000                                                             
     4  3  2.50        -1.3606   0.0000                                                             
   Description                                                                                      
     l       E           TYP  RCUT    TYP  RCUT                                                     
     2     -3.8151135     23  2.300                                                                 
     2     -5.1756961     23  2.300                                                                 
     0     -4.2550963     23  2.300                                                                 
     0      7.2035603     23  2.300                                                                 
     1     -2.7211652     23  2.300                                                                 
     1     18.4316424     23  2.300                                                                 
  local pseudopotential read in
  partial core-charges read in
  partial kinetic energy density read in
  atomic valenz-charges read in
  non local Contribution for L=           2  read in
    real space projection operators read in
  non local Contribution for L=           2  read in
    real space projection operators read in
  non local Contribution for L=           0  read in
    real space projection operators read in
  non local Contribution for L=           0  read in
    real space projection operators read in
  non local Contribution for L=           1  read in
    real space projection operators read in
  non local Contribution for L=           1  read in
    real space projection operators read in
    PAW grid and wavefunctions read in
 
   number of l-projection  operators is LMAX  =           6
   number of lm-projection operators is LMMAX =          18
 
  PAW_PBE Fe 06Sep2000                  :
 energy of atom  1       EATOM= -594.3153
 kinetic energy error for atom=    0.0278 (will be added to EATOM!!)
 
 
 POSCAR: Fe
  positions in cartesian coordinates
  No initial velocities read in
 exchange correlation table for  LEXCH =        8
   RHO(1)=    0.500       N(1)  =     2000
   RHO(2)=  100.500       N(2)  =     4000
 


--------------------------------------------------------------------------------------------------------


 ion  position               nearest neighbor table
   1  0.000  0.000  0.000-   2 2.32   2 2.32   2 2.32   2 2.32   2 2.32   2 2.32
   2  0.333  0.667  0.500-   1 2.32   1 2.32   1 2.32   1 2.32   1 2.32   1 2.32
 
  LATTYP: Found a hexagonal cell.
 ALAT       =     2.2368000000
 C/A-ratio  =     1.7244635193
  
  Lattice vectors:
  
 A1 = (   2.2368000000,   0.0000000000,   0.0000000000)
 A2 = (  -1.1184000000,   1.9371256232,   0.0000000000)
 A3 = (   0.0000000000,   0.0000000000,   3.8572800000)


Analysis of symmetry for initial positions (statically):
=====================================================================
 Subroutine PRICEL returns:
 Original cell was already a primitive cell.
 

 Routine SETGRP: Setting up the symmetry group for a 
 hexagonal supercell.


 Subroutine GETGRP returns: Found 24 space group operations
 (whereof 12 operations were pure point group operations)
 out of a pool of 24 trial point group operations.


The static configuration has the point symmetry D_3h.
 The point group associated with its full space group is D_6h.


Analysis of symmetry for dynamics (positions and initial velocities):
=====================================================================
 Subroutine PRICEL returns:
 Original cell was already a primitive cell.
 

 Routine SETGRP: Setting up the symmetry group for a 
 hexagonal supercell.


 Subroutine GETGRP returns: Found 24 space group operations
 (whereof 12 operations were pure point group operations)
 out of a pool of 24 trial point group operations.


The dynamic configuration has the point symmetry D_3h.
 The point group associated with its full space group is D_6h.


 Subroutine INISYM returns: Found 24 space group operations
 (whereof 12 operations are pure point group operations),
 and found     1 'primitive' translations


----------------------------------------------------------------------------------------

                                     Primitive cell                                     

  volume of cell :      16.7134

  direct lattice vectors                    reciprocal lattice vectors
     2.236800000  0.000000000  0.000000000     0.447067239  0.258114391  0.000000000
    -1.118400000  1.937125623  0.000000000     0.000000000  0.516228781  0.000000000
     0.000000000  0.000000000  3.857280000     0.000000000  0.000000000  0.259250041

  length of vectors
     2.236800000  2.236800000  3.857280000     0.516228781  0.516228781  0.259250041

  position of ions in fractional coordinates (direct lattice)
     0.000000000  0.000000000  0.000000000
     0.333333333  0.666666667  0.500000000

  ion indices of the primitive-cell ions
   primitive index   ion index
                 1           1
                 2           2

----------------------------------------------------------------------------------------

 
 
 KPOINTS: KPOINTS created by Atomic Simulation Env

Automatic generation of k-mesh.
 Grid dimensions read from file:
 generate k-points for:   11   11   11

 Generating k-lattice:

  Cartesian coordinates                     Fractional coordinates (reciprocal lattice)
     0.040642476  0.023464945  0.000000000     0.090909091 -0.000000000  0.000000000
     0.000000000  0.046929889  0.000000000     0.000000000  0.090909091  0.000000000
     0.000000000  0.000000000  0.023568186     0.000000000  0.000000000  0.090909091

  Length of vectors
     0.046929889  0.046929889  0.023568186

  Shift w.r.t. Gamma in fractional coordinates (k-lattice)
     0.000000000  0.000000000  0.000000000

 
 Subroutine IBZKPT returns following result:
 ===========================================
 
 Found     96 irreducible k-points:
 
 Following reciprocal coordinates:
            Coordinates               Weight
  0.000000  0.000000  0.000000      1.000000
  0.090909  0.000000  0.000000      6.000000
  0.181818 -0.000000  0.000000      6.000000
  0.272727  0.000000  0.000000      6.000000
  0.363636 -0.000000  0.000000      6.000000
  0.454545 -0.000000  0.000000      6.000000
  0.090909  0.090909  0.000000      6.000000
  0.181818  0.090909  0.000000     12.000000
  0.272727  0.090909  0.000000     12.000000
  0.363636  0.090909  0.000000     12.000000
  0.454545  0.090909  0.000000      6.000000
  0.181818  0.181818  0.000000      6.000000
  0.272727  0.181818  0.000000     12.000000
  0.363636  0.181818  0.000000     12.000000
  0.272727  0.272727  0.000000      6.000000
  0.363636  0.272727  0.000000      6.000000
  0.000000  0.000000  0.090909      2.000000
  0.090909  0.000000  0.090909     12.000000
  0.181818 -0.000000  0.090909     12.000000
  0.272727  0.000000  0.090909     12.000000
  0.363636 -0.000000  0.090909     12.000000
  0.454545 -0.000000  0.090909     12.000000
  0.090909  0.090909  0.090909     12.000000
  0.181818  0.090909  0.090909     24.000000
  0.272727  0.090909  0.090909     24.000000
  0.363636  0.090909  0.090909     24.000000
  0.454545  0.090909  0.090909     12.000000
  0.181818  0.181818  0.090909     12.000000
  0.272727  0.181818  0.090909     24.000000
  0.363636  0.181818  0.090909     24.000000
  0.272727  0.272727  0.090909     12.000000
  0.363636  0.272727  0.090909     12.000000
  0.000000  0.000000  0.181818      2.000000
  0.090909  0.000000  0.181818     12.000000
  0.181818 -0.000000  0.181818     12.000000
  0.272727  0.000000  0.181818     12.000000
  0.363636 -0.000000  0.181818     12.000000
  0.454545 -0.000000  0.181818     12.000000
  0.090909  0.090909  0.181818     12.000000
  0.181818  0.090909  0.181818     24.000000
  0.272727  0.090909  0.181818     24.000000
  0.363636  0.090909  0.181818     24.000000
  0.454545  0.090909  0.181818     12.000000
  0.181818  0.181818  0.181818     12.000000
  0.272727  0.181818  0.181818     24.000000
  0.363636  0.181818  0.181818     24.000000
  0.272727  0.272727  0.181818     12.000000
  0.363636  0.272727  0.181818     12.000000
  0.000000  0.000000  0.272727      2.000000
  0.090909  0.000000  0.272727     12.000000
  0.181818 -0.000000  0.272727     12.000000
  0.272727  0.000000  0.272727     12.000000
  0.363636 -0.000000  0.272727     12.000000
  0.454545 -0.000000  0.272727     12.000000
  0.090909  0.090909  0.272727     12.000000
  0.181818  0.090909  0.272727     24.000000
  0.272727  0.090909  0.272727     24.000000
  0.363636  0.090909  0.272727     24.000000
  0.454545  0.090909  0.272727     12.000000
  0.181818  0.181818  0.272727     12.000000
  0.272727  0.181818  0.272727     24.000000
  0.363636  0.181818  0.272727     24.000000
  0.272727  0.272727  0.272727     12.000000
  0.363636  0.272727  0.272727     12.000000
  0.000000  0.000000  0.363636      2.000000
  0.090909  0.000000  0.363636     12.000000
  0.181818 -0.000000  0.363636     12.000000
  0.272727  0.000000  0.363636     12.000000
  0.363636 -0.000000  0.363636     12.000000
  0.454545 -0.000000  0.363636     12.000000
  0.090909  0.090909  0.363636     12.000000
  0.181818  0.090909  0.363636     24.000000
  0.272727  0.090909  0.363636     24.000000
  0.363636  0.090909  0.363636     24.000000
  0.454545  0.090909  0.363636     12.000000
  0.181818  0.181818  0.363636     12.000000
  0.272727  0.181818  0.363636     24.000000
  0.363636  0.181818  0.363636     24.000000
  0.272727  0.272727  0.363636     12.000000
  0.363636  0.272727  0.363636     12.000000
  0.000000  0.000000  0.454545      2.000000
  0.090909  0.000000  0.454545     12.000000
  0.181818 -0.000000  0.454545     12.000000
  0.272727  0.000000  0.454545     12.000000
  0.363636 -0.000000  0.454545     12.000000
  0.454545 -0.000000  0.454545     12.000000
  0.090909  0.090909  0.454545     12.000000
  0.181818  0.090909  0.454545     24.000000
  0.272727  0.090909  0.454545     24.000000
  0.363636  0.090909  0.454545     24.000000
  0.454545  0.090909  0.454545     12.000000
  0.181818  0.181818  0.454545     12.000000
  0.272727  0.181818  0.454545     24.000000
  0.363636  0.181818  0.454545     24.000000
  0.272727  0.272727  0.454545     12.000000
  0.363636  0.272727  0.454545     12.000000
 
 Following cartesian coordinates:
            Coordinates               Weight
  0.000000  0.000000  0.000000      1.000000
  0.040642  0.023465  0.000000      6.000000
  0.081285  0.046930  0.000000      6.000000
  0.121927  0.070395  0.000000      6.000000
  0.162570  0.093860  0.000000      6.000000
  0.203212  0.117325  0.000000      6.000000
  0.040642  0.070395  0.000000      6.000000
  0.081285  0.093860  0.000000     12.000000
  0.121927  0.117325  0.000000     12.000000
  0.162570  0.140790  0.000000     12.000000
  0.203212  0.164255  0.000000      6.000000
  0.081285  0.140790  0.000000      6.000000
  0.121927  0.164255  0.000000     12.000000
  0.162570  0.187720  0.000000     12.000000
  0.121927  0.211185  0.000000      6.000000
  0.162570  0.234649  0.000000      6.000000
  0.000000  0.000000  0.023568      2.000000
  0.040642  0.023465  0.023568     12.000000
  0.081285  0.046930  0.023568     12.000000
  0.121927  0.070395  0.023568     12.000000
  0.162570  0.093860  0.023568     12.000000
  0.203212  0.117325  0.023568     12.000000
  0.040642  0.070395  0.023568     12.000000
  0.081285  0.093860  0.023568     24.000000
  0.121927  0.117325  0.023568     24.000000
  0.162570  0.140790  0.023568     24.000000
  0.203212  0.164255  0.023568     12.000000
  0.081285  0.140790  0.023568     12.000000
  0.121927  0.164255  0.023568     24.000000
  0.162570  0.187720  0.023568     24.000000
  0.121927  0.211185  0.023568     12.000000
  0.162570  0.234649  0.023568     12.000000
  0.000000  0.000000  0.047136      2.000000
  0.040642  0.023465  0.047136     12.000000
  0.081285  0.046930  0.047136     12.000000
  0.121927  0.070395  0.047136     12.000000
  0.162570  0.093860  0.047136     12.000000
  0.203212  0.117325  0.047136     12.000000
  0.040642  0.070395  0.047136     12.000000
  0.081285  0.093860  0.047136     24.000000
  0.121927  0.117325  0.047136     24.000000
  0.162570  0.140790  0.047136     24.000000
  0.203212  0.164255  0.047136     12.000000
  0.081285  0.140790  0.047136     12.000000
  0.121927  0.164255  0.047136     24.000000
  0.162570  0.187720  0.047136     24.000000
  0.121927  0.211185  0.047136     12.000000
  0.162570  0.234649  0.047136     12.000000
  0.000000  0.000000  0.070705      2.000000
  0.040642  0.023465  0.070705     12.000000
  0.081285  0.046930  0.070705     12.000000
  0.121927  0.070395  0.070705     12.000000
  0.162570  0.093860  0.070705     12.000000
  0.203212  0.117325  0.070705     12.000000
  0.040642  0.070395  0.070705     12.000000
  0.081285  0.093860  0.070705     24.000000
  0.121927  0.117325  0.070705     24.000000
  0.162570  0.140790  0.070705     24.000000
  0.203212  0.164255  0.070705     12.000000
  0.081285  0.140790  0.070705     12.000000
  0.121927  0.164255  0.070705     24.000000
  0.162570  0.187720  0.070705     24.000000
  0.121927  0.211185  0.070705     12.000000
  0.162570  0.234649  0.070705     12.000000
  0.000000  0.000000  0.094273      2.000000
  0.040642  0.023465  0.094273     12.000000
  0.081285  0.046930  0.094273     12.000000
  0.121927  0.070395  0.094273     12.000000
  0.162570  0.093860  0.094273     12.000000
  0.203212  0.117325  0.094273     12.000000
  0.040642  0.070395  0.094273     12.000000
  0.081285  0.093860  0.094273     24.000000
  0.121927  0.117325  0.094273     24.000000
  0.162570  0.140790  0.094273     24.000000
  0.203212  0.164255  0.094273     12.000000
  0.081285  0.140790  0.094273     12.000000
  0.121927  0.164255  0.094273     24.000000
  0.162570  0.187720  0.094273     24.000000
  0.121927  0.211185  0.094273     12.000000
  0.162570  0.234649  0.094273     12.000000
  0.000000  0.000000  0.117841      2.000000
  0.040642  0.023465  0.117841     12.000000
  0.081285  0.046930  0.117841     12.000000
  0.121927  0.070395  0.117841     12.000000
  0.162570  0.093860  0.117841     12.000000
  0.203212  0.117325  0.117841     12.000000
  0.040642  0.070395  0.117841     12.000000
  0.081285  0.093860  0.117841     24.000000
  0.121927  0.117325  0.117841     24.000000
  0.162570  0.140790  0.117841     24.000000
  0.203212  0.164255  0.117841     12.000000
  0.081285  0.140790  0.117841     12.000000
  0.121927  0.164255  0.117841     24.000000
  0.162570  0.187720  0.117841     24.000000
  0.121927  0.211185  0.117841     12.000000
  0.162570  0.234649  0.117841     12.000000
 


--------------------------------------------------------------------------------------------------------




 Dimension of arrays:
   k-points           NKPTS =     96   k-points in BZ     NKDIM =     96   number of bands    NBANDS=     40
   number of dos      NEDOS =    301   number of ions     NIONS =      2
   non local maximal  LDIM  =      6   non local SUM 2l+1 LMDIM =     18
   total plane-waves  NPLWV =   1600
   max r-space proj   IRMAX =      1   max aug-charges    IRDMAX=   3609
   dimension x,y,z NGX =    10 NGY =   10 NGZ =   16
   dimension x,y,z NGXF=    20 NGYF=   20 NGZF=   32
   support grid    NGXF=    20 NGYF=   20 NGZF=   32
   ions per type =               2
   NGX,Y,Z   is equivalent  to a cutoff of   7.43,  7.43,  6.90 a.u.
   NGXF,Y,Z  is equivalent  to a cutoff of  14.86, 14.86, 13.79 a.u.

 SYSTEM =  unknown system                          
 POSCAR =  Fe                                      

 Startparameter for this run:
   NWRITE =      2    write-flag & timer
   PREC   = normal    normal or accurate (medium, high low for compatibility)
   ISTART =      0    job   : 0-new  1-cont  2-samecut
   ICHARG =      1    charge: 1-file 2-atom 10-const
   ISPIN  =      1    spin polarized calculation?
   LNONCOLLINEAR =      F non collinear calculations
   LSORBIT =      F    spin-orbit coupling
   INIWAV =      1    electr: 0-lowe 1-rand  2-diag
   LASPH  =      F    aspherical Exc in radial PAW
   METAGGA=      F    non-selfconsistent MetaGGA calc.

 Electronic Relaxation 1
   ENCUT  =  280.0 eV  20.58 Ry    4.54 a.u.   3.05  3.05  5.26*2*pi/ulx,y,z
   ENINI  =  280.0     initial cutoff
   ENAUG  =  511.4 eV  augmentation charge cutoff
   NELM   =     60;   NELMIN=  2; NELMDL= -5     # of ELM steps 
   EDIFF  = 0.1E-05   stopping-criterion for ELM
   LREAL  =      F    real-space projection
   NLSPLINE    = F    spline interpolate recip. space projectors
   LCOMPAT=      F    compatible to vasp.4.4
   GGA_COMPAT  = T    GGA compatible to vasp.4.4-vasp.4.6
   LMAXPAW     = -100 max onsite density
   LMAXMIX     =    2 max onsite mixed and CHGCAR
   VOSKOWN=      0    Vosko Wilk Nusair interpolation
   ROPT   =    0.00000
 Ionic relaxation
   EDIFFG = 0.1E-04   stopping-criterion for IOM
   NSW    =      0    number of steps for IOM
   NBLOCK =      1;   KBLOCK =      1    inner block; outer block 
   IBRION =     -1    ionic relax: 0-MD 1-quasi-New 2-CG
   NFREE  =      0    steps in history (QN), initial steepest desc. (CG)
   ISIF   =      2    stress and relaxation
   IWAVPR =      0    prediction:  0-non 1-charg 2-wave 3-comb
   ISYM   =      2    0-nonsym 1-usesym 2-fastsym
   LCORR  =      T    Harris-Foulkes like correction to forces

   POTIM  = 0.5000    time-step for ionic-motion
   TEIN   =    0.0    initial temperature
   TEBEG  =    0.0;   TEEND  =   0.0 temperature during run
   SMASS  =  -3.00    Nose mass-parameter (am)
   estimated Nose-frequenzy (Omega)   =  0.10E-29 period in steps = 0.13E+47 mass=  -0.114E-27a.u.
   SCALEE = 1.0000    scale energy and forces
   NPACO  =    256;   APACO  = 16.0  distance and # of slots for P.C.
   PSTRESS=    0.0 pullay stress

  Mass of Ions in am
   POMASS =  55.85
  Ionic Valenz
   ZVAL   =   8.00
  Atomic Wigner-Seitz radii
   RWIGS  =  -1.00
  virtual crystal weights 
   VCA    =   1.00
   NELECT =      16.0000    total number of electrons
   NUPDOWN=      -1.0000    fix difference up-down

 DOS related values:
   EMIN   =  10.00;   EMAX   =-10.00  energy-range for DOS
   EFERMI =   0.00
   ISMEAR =     1;   SIGMA  =   0.20  broadening in eV -4-tet -1-fermi 0-gaus

 Electronic relaxation 2 (details)
   IALGO  =     38    algorithm
   LDIAG  =      T    sub-space diagonalisation (order eigenvalues)
   LSUBROT=      F    optimize rotation matrix (better conditioning)
   TURBO    =      0    0=normal 1=particle mesh
   IRESTART =      0    0=no restart 2=restart with 2 vectors
   NREBOOT  =      0    no. of reboots
   NMIN     =      0    reboot dimension
   EREF     =   0.00    reference energy to select bands
   IMIX   =      4    mixing-type and parameters
     AMIX     =   0.40;   BMIX     =  1.00
     AMIX_MAG =   1.60;   BMIX_MAG =  1.00
     AMIN     =   0.10
     WC   =   100.;   INIMIX=   1;  MIXPRE=   1;  MAXMIX= -45

 Intra band minimization:
   WEIMIN = 0.0000     energy-eigenvalue tresh-hold
   EBREAK =  0.62E-08  absolut break condition
   DEPER  =   0.30     relativ break condition  

   TIME   =   0.40     timestep for ELM

  volume/ion in A,a.u.               =       8.36        56.39
  Fermi-wavevector in a.u.,A,eV,Ry     =   1.613465  3.049006 35.419614  2.603268
  Thomas-Fermi vector in A             =   2.708530
 
 Write flags
   LWAVE        =      T    write WAVECAR
   LDOWNSAMPLE  =      F    k-point downsampling of WAVECAR
   LCHARG       =      T    write CHGCAR
   LVTOT        =      F    write LOCPOT, total local potential
   LVHAR        =      F    write LOCPOT, Hartree potential only
   LELF         =      F    write electronic localiz. function (ELF)
   LORBIT       =      0    0 simple, 1 ext, 2 COOP (PROOUT), +10 PAW based schemes


 Dipole corrections
   LMONO  =      F    monopole corrections only (constant potential shift)
   LDIPOL =      F    correct potential (dipole corrections)
   IDIPOL =      0    1-x, 2-y, 3-z, 4-all directions 
   EPSILON=  1.0000000 bulk dielectric constant

 Exchange correlation treatment:
   GGA     =    PE    GGA type
   LEXCH   =     8    internal setting for exchange type
   VOSKOWN=      0    Vosko Wilk Nusair interpolation
   LHFCALC =     F    Hartree Fock is set to
   LHFONE  =     F    Hartree Fock one center treatment
   AEXX    =    0.0000 exact exchange contribution

 Linear response parameters
   LEPSILON=     F    determine dielectric tensor
   LRPA    =     F    only Hartree local field effects (RPA)
   LNABLA  =     F    use nabla operator in PAW spheres
   LVEL    =     F    velocity operator in full k-point grid
   LINTERFAST=   F  fast interpolation
   KINTER  =     0    interpolate to denser k-point grid
   CSHIFT  =0.1000    complex shift for real part using Kramers Kronig
   OMEGAMAX=  -1.0    maximum frequency
   DEG_THRESHOLD= 0.2000000E-02 threshold for treating states as degnerate
   RTIME   =   -0.100 relaxation time in fs
  (WPLASMAI=    0.000 imaginary part of plasma frequency in eV, 0.658/RTIME)
   DFIELD  = 0.0000000 0.0000000 0.0000000 field for delta impulse in time
 
 Orbital magnetization related:
   ORBITALMAG=     F  switch on orbital magnetization
   LCHIMAG   =     F  perturbation theory with respect to B field
   DQ        =  0.001000  dq finite difference perturbation B field
   LLRAUG    =     F  two centre corrections for induced B field



--------------------------------------------------------------------------------------------------------


 Static calculation
 charge density and potential will be updated during run
 non-spin polarized calculation
 Variant of blocked Davidson
 Davidson routine will perform the subspace rotation
 perform sub-space diagonalisation
    after iterative eigenvector-optimisation
 modified Broyden-mixing scheme, WC =      100.0
 initial mixing is a Kerker type mixing with AMIX =  0.4000 and BMIX =      1.0000
 Hartree-type preconditioning will be used
 using additional bands           32
 reciprocal scheme for non local part
 use partial core corrections
 calculate Harris-corrections to forces 
   (improved forces if not selfconsistent)
 use gradient corrections 
 use of overlap-Matrix (Vanderbilt PP)
 Methfessel and Paxton  Order N= 1 SIGMA  =   0.20


--------------------------------------------------------------------------------------------------------


  energy-cutoff  :      280.00
  volume of cell :       16.71
      direct lattice vectors                 reciprocal lattice vectors
     2.236800000  0.000000000  0.000000000     0.447067239  0.258114391  0.000000000
    -1.118400000  1.937125623  0.000000000     0.000000000  0.516228781  0.000000000
     0.000000000  0.000000000  3.857280000     0.000000000  0.000000000  0.259250041

  length of vectors
     2.236800000  2.236800000  3.857280000     0.516228781  0.516228781  0.259250041


 
 k-points in units of 2pi/SCALE and weight: KPOINTS created by Atomic Simulation Env
   0.00000000  0.00000000  0.00000000       0.001
   0.04064248  0.02346494  0.00000000       0.005
   0.08128495  0.04692989  0.00000000       0.005
   0.12192743  0.07039483  0.00000000       0.005
   0.16256991  0.09385978  0.00000000       0.005
   0.20321238  0.11732472  0.00000000       0.005
   0.04064248  0.07039483  0.00000000       0.005
   0.08128495  0.09385978  0.00000000       0.009
   0.12192743  0.11732472  0.00000000       0.009
   0.16256991  0.14078967  0.00000000       0.009
   0.20321238  0.16425461  0.00000000       0.005
   0.08128495  0.14078967  0.00000000       0.005
   0.12192743  0.16425461  0.00000000       0.009
   0.16256991  0.18771956  0.00000000       0.009
   0.12192743  0.21118450  0.00000000       0.005
   0.16256991  0.23464945  0.00000000       0.005
   0.00000000  0.00000000  0.02356819       0.002
   0.04064248  0.02346494  0.02356819       0.009
   0.08128495  0.04692989  0.02356819       0.009
   0.12192743  0.07039483  0.02356819       0.009
   0.16256991  0.09385978  0.02356819       0.009
   0.20321238  0.11732472  0.02356819       0.009
   0.04064248  0.07039483  0.02356819       0.009
   0.08128495  0.09385978  0.02356819       0.018
   0.12192743  0.11732472  0.02356819       0.018
   0.16256991  0.14078967  0.02356819       0.018
   0.20321238  0.16425461  0.02356819       0.009
   0.08128495  0.14078967  0.02356819       0.009
   0.12192743  0.16425461  0.02356819       0.018
   0.16256991  0.18771956  0.02356819       0.018
   0.12192743  0.21118450  0.02356819       0.009
   0.16256991  0.23464945  0.02356819       0.009
   0.00000000  0.00000000  0.04713637       0.002
   0.04064248  0.02346494  0.04713637       0.009
   0.08128495  0.04692989  0.04713637       0.009
   0.12192743  0.07039483  0.04713637       0.009
   0.16256991  0.09385978  0.04713637       0.009
   0.20321238  0.11732472  0.04713637       0.009
   0.04064248  0.07039483  0.04713637       0.009
   0.08128495  0.09385978  0.04713637       0.018
   0.12192743  0.11732472  0.04713637       0.018
   0.16256991  0.14078967  0.04713637       0.018
   0.20321238  0.16425461  0.04713637       0.009
   0.08128495  0.14078967  0.04713637       0.009
   0.12192743  0.16425461  0.04713637       0.018
   0.16256991  0.18771956  0.04713637       0.018
   0.12192743  0.21118450  0.04713637       0.009
   0.16256991  0.23464945  0.04713637       0.009
   0.00000000  0.00000000  0.07070456       0.002
   0.04064248  0.02346494  0.07070456       0.009
   0.08128495  0.04692989  0.07070456       0.009
   0.12192743  0.07039483  0.07070456       0.009
   0.16256991  0.09385978  0.07070456       0.009
   0.20321238  0.11732472  0.07070456       0.009
   0.04064248  0.07039483  0.07070456       0.009
   0.08128495  0.09385978  0.07070456       0.018
   0.12192743  0.11732472  0.07070456       0.018
   0.16256991  0.14078967  0.07070456       0.018
   0.20321238  0.16425461  0.07070456       0.009
   0.08128495  0.14078967  0.07070456       0.009
   0.12192743  0.16425461  0.07070456       0.018
   0.16256991  0.18771956  0.07070456       0.018
   0.12192743  0.21118450  0.07070456       0.009
   0.16256991  0.23464945  0.07070456       0.009
   0.00000000  0.00000000  0.09427274       0.002
   0.04064248  0.02346494  0.09427274       0.009
   0.08128495  0.04692989  0.09427274       0.009
   0.12192743  0.07039483  0.09427274       0.009
   0.16256991  0.09385978  0.09427274       0.009
   0.20321238  0.11732472  0.09427274       0.009
   0.04064248  0.07039483  0.09427274       0.009
   0.08128495  0.09385978  0.09427274       0.018
   0.12192743  0.11732472  0.09427274       0.018
   0.16256991  0.14078967  0.09427274       0.018
   0.20321238  0.16425461  0.09427274       0.009
   0.08128495  0.14078967  0.09427274       0.009
   0.12192743  0.16425461  0.09427274       0.018
   0.16256991  0.18771956  0.09427274       0.018
   0.12192743  0.21118450  0.09427274       0.009
   0.16256991  0.23464945  0.09427274       0.009
   0.00000000  0.00000000  0.11784093       0.002
   0.04064248  0.02346494  0.11784093       0.009
   0.08128495  0.04692989  0.11784093       0.009
   0.12192743  0.07039483  0.11784093       0.009
   0.16256991  0.09385978  0.11784093       0.009
   0.20321238  0.11732472  0.11784093       0.009
   0.04064248  0.07039483  0.11784093       0.009
   0.08128495  0.09385978  0.11784093       0.018
   0.12192743  0.11732472  0.11784093       0.018
   0.16256991  0.14078967  0.11784093       0.018
   0.20321238  0.16425461  0.11784093       0.009
   0.08128495  0.14078967  0.11784093       0.009
   0.12192743  0.16425461  0.11784093       0.018
   0.16256991  0.18771956  0.11784093       0.018
   0.12192743  0.21118450  0.11784093       0.009
   0.16256991  0.23464945  0.11784093       0.009
 
 k-points in reciprocal lattice and weights: KPOINTS created by Atomic Simulation Env
   0.00000000  0.00000000  0.00000000       0.001
   0.09090909  0.00000000  0.00000000       0.005
   0.18181818 -0.00000000  0.00000000       0.005
   0.27272727  0.00000000  0.00000000       0.005
   0.36363636 -0.00000000  0.00000000       0.005
   0.45454545 -0.00000000  0.00000000       0.005
   0.09090909  0.09090909  0.00000000       0.005
   0.18181818  0.09090909  0.00000000       0.009
   0.27272727  0.09090909  0.00000000       0.009
   0.36363636  0.09090909  0.00000000       0.009
   0.45454545  0.09090909  0.00000000       0.005
   0.18181818  0.18181818  0.00000000       0.005
   0.27272727  0.18181818  0.00000000       0.009
   0.36363636  0.18181818  0.00000000       0.009
   0.27272727  0.27272727  0.00000000       0.005
   0.36363636  0.27272727  0.00000000       0.005
   0.00000000  0.00000000  0.09090909       0.002
   0.09090909  0.00000000  0.09090909       0.009
   0.18181818 -0.00000000  0.09090909       0.009
   0.27272727  0.00000000  0.09090909       0.009
   0.36363636 -0.00000000  0.09090909       0.009
   0.45454545 -0.00000000  0.09090909       0.009
   0.09090909  0.09090909  0.09090909       0.009
   0.18181818  0.09090909  0.09090909       0.018
   0.27272727  0.09090909  0.09090909       0.018
   0.36363636  0.09090909  0.09090909       0.018
   0.45454545  0.09090909  0.09090909       0.009
   0.18181818  0.18181818  0.09090909       0.009
   0.27272727  0.18181818  0.09090909       0.018
   0.36363636  0.18181818  0.09090909       0.018
   0.27272727  0.27272727  0.09090909       0.009
   0.36363636  0.27272727  0.09090909       0.009
   0.00000000  0.00000000  0.18181818       0.002
   0.09090909  0.00000000  0.18181818       0.009
   0.18181818 -0.00000000  0.18181818       0.009
   0.27272727  0.00000000  0.18181818       0.009
   0.36363636 -0.00000000  0.18181818       0.009
   0.45454545 -0.00000000  0.18181818       0.009
   0.09090909  0.09090909  0.18181818       0.009
   0.18181818  0.09090909  0.18181818       0.018
   0.27272727  0.09090909  0.18181818       0.018
   0.36363636  0.09090909  0.18181818       0.018
   0.45454545  0.09090909  0.18181818       0.009
   0.18181818  0.18181818  0.18181818       0.009
   0.27272727  0.18181818  0.18181818       0.018
   0.36363636  0.18181818  0.18181818       0.018
   0.27272727  0.27272727  0.18181818       0.009
   0.36363636  0.27272727  0.18181818       0.009
   0.00000000  0.00000000  0.27272727       0.002
   0.09090909  0.00000000  0.27272727       0.009
   0.18181818 -0.00000000  0.27272727       0.009
   0.27272727  0.00000000  0.27272727       0.009
   0.36363636 -0.00000000  0.27272727       0.009
   0.45454545 -0.00000000  0.27272727       0.009
   0.09090909  0.09090909  0.27272727       0.009
   0.18181818  0.09090909  0.27272727       0.018
   0.27272727  0.09090909  0.27272727       0.018
   0.36363636  0.09090909  0.27272727       0.018
   0.45454545  0.09090909  0.27272727       0.009
   0.18181818  0.18181818  0.27272727       0.009
   0.27272727  0.18181818  0.27272727       0.018
   0.36363636  0.18181818  0.27272727       0.018
   0.27272727  0.27272727  0.27272727       0.009
   0.36363636  0.27272727  0.27272727       0.009
   0.00000000  0.00000000  0.36363636       0.002
   0.09090909  0.00000000  0.36363636       0.009
   0.18181818 -0.00000000  0.36363636       0.009
   0.27272727  0.00000000  0.36363636       0.009
   0.36363636 -0.00000000  0.36363636       0.009
   0.45454545 -0.00000000  0.36363636       0.009
   0.09090909  0.09090909  0.36363636       0.009
   0.18181818  0.09090909  0.36363636       0.018
   0.27272727  0.09090909  0.36363636       0.018
   0.36363636  0.09090909  0.36363636       0.018
   0.45454545  0.09090909  0.36363636       0.009
   0.18181818  0.18181818  0.36363636       0.009
   0.27272727  0.18181818  0.36363636       0.018
   0.36363636  0.18181818  0.36363636       0.018
   0.27272727  0.27272727  0.36363636       0.009
   0.36363636  0.27272727  0.36363636       0.009
   0.00000000  0.00000000  0.45454545       0.002
   0.09090909  0.00000000  0.45454545       0.009
   0.18181818 -0.00000000  0.45454545       0.009
   0.27272727  0.00000000  0.45454545       0.009
   0.36363636 -0.00000000  0.45454545       0.009
   0.45454545 -0.00000000  0.45454545       0.009
   0.09090909  0.09090909  0.45454545       0.009
   0.18181818  0.09090909  0.45454545       0.018
   0.27272727  0.09090909  0.45454545       0.018
   0.36363636  0.09090909  0.45454545       0.018
   0.45454545  0.09090909  0.45454545       0.009
   0.18181818  0.18181818  0.45454545       0.009
   0.27272727  0.18181818  0.45454545       0.018
   0.36363636  0.18181818  0.45454545       0.018
   0.27272727  0.27272727  0.45454545       0.009
   0.36363636  0.27272727  0.45454545       0.009
 
 position of ions in fractional coordinates (direct lattice) 
   0.00000000  0.00000000  0.00000000
   0.33333333  0.66666667  0.50000000
 
 position of ions in cartesian coordinates  (Angst):
   0.00000000  0.00000000  0.00000000
   0.00000000  1.29141708  1.92864000
 


--------------------------------------------------------------------------------------------------------


 k-point   1 :   0.0000 0.0000 0.0000  plane waves:     149
 k-point   2 :   0.0909 0.0000 0.0000  plane waves:     167
 k-point   3 :   0.1818-0.0000 0.0000  plane waves:     167
 k-point   4 :   0.2727 0.0000 0.0000  plane waves:     171
 k-point   5 :   0.3636-0.0000 0.0000  plane waves:     174
 k-point   6 :   0.4545-0.0000 0.0000  plane waves:     174
 k-point   7 :   0.0909 0.0909 0.0000  plane waves:     169
 k-point   8 :   0.1818 0.0909 0.0000  plane waves:     173
 k-point   9 :   0.2727 0.0909 0.0000  plane waves:     178
 k-point  10 :   0.3636 0.0909 0.0000  plane waves:     181
 k-point  11 :   0.4545 0.0909 0.0000  plane waves:     177
 k-point  12 :   0.1818 0.1818 0.0000  plane waves:     177
 k-point  13 :   0.2727 0.1818 0.0000  plane waves:     186
 k-point  14 :   0.3636 0.1818 0.0000  plane waves:     186
 k-point  15 :   0.2727 0.2727 0.0000  plane waves:     185
 k-point  16 :   0.3636 0.2727 0.0000  plane waves:     189
 k-point  17 :   0.0000 0.0000 0.0909  plane waves:     155
 k-point  18 :   0.0909 0.0000 0.0909  plane waves:     170
 k-point  19 :   0.1818-0.0000 0.0909  plane waves:     171
 k-point  20 :   0.2727 0.0000 0.0909  plane waves:     175
 k-point  21 :   0.3636-0.0000 0.0909  plane waves:     178
 k-point  22 :   0.4545-0.0000 0.0909  plane waves:     179
 k-point  23 :   0.0909 0.0909 0.0909  plane waves:     173
 k-point  24 :   0.1818 0.0909 0.0909  plane waves:     174
 k-point  25 :   0.2727 0.0909 0.0909  plane waves:     174
 k-point  26 :   0.3636 0.0909 0.0909  plane waves:     181
 k-point  27 :   0.4545 0.0909 0.0909  plane waves:     177
 k-point  28 :   0.1818 0.1818 0.0909  plane waves:     179
 k-point  29 :   0.2727 0.1818 0.0909  plane waves:     182
 k-point  30 :   0.3636 0.1818 0.0909  plane waves:     181
 k-point  31 :   0.2727 0.2727 0.0909  plane waves:     189
 k-point  32 :   0.3636 0.2727 0.0909  plane waves:     189
 k-point  33 :   0.0000 0.0000 0.1818  plane waves:     161
 k-point  34 :   0.0909 0.0000 0.1818  plane waves:     172
 k-point  35 :   0.1818-0.0000 0.1818  plane waves:     174
 k-point  36 :   0.2727 0.0000 0.1818  plane waves:     177
 k-point  37 :   0.3636-0.0000 0.1818  plane waves:     180
 k-point  38 :   0.4545-0.0000 0.1818  plane waves:     182
 k-point  39 :   0.0909 0.0909 0.1818  plane waves:     173
 k-point  40 :   0.1818 0.0909 0.1818  plane waves:     175
 k-point  41 :   0.2727 0.0909 0.1818  plane waves:     176
 k-point  42 :   0.3636 0.0909 0.1818  plane waves:     177
 k-point  43 :   0.4545 0.0909 0.1818  plane waves:     177
 k-point  44 :   0.1818 0.1818 0.1818  plane waves:     181
 k-point  45 :   0.2727 0.1818 0.1818  plane waves:     179
 k-point  46 :   0.3636 0.1818 0.1818  plane waves:     181
 k-point  47 :   0.2727 0.2727 0.1818  plane waves:     183
 k-point  48 :   0.3636 0.2727 0.1818  plane waves:     186
 k-point  49 :   0.0000 0.0000 0.2727  plane waves:     160
 k-point  50 :   0.0909 0.0000 0.2727  plane waves:     171
 k-point  51 :   0.1818-0.0000 0.2727  plane waves:     173
 k-point  52 :   0.2727 0.0000 0.2727  plane waves:     176
 k-point  53 :   0.3636-0.0000 0.2727  plane waves:     181
 k-point  54 :   0.4545-0.0000 0.2727  plane waves:     180
 k-point  55 :   0.0909 0.0909 0.2727  plane waves:     177
 k-point  56 :   0.1818 0.0909 0.2727  plane waves:     176
 k-point  57 :   0.2727 0.0909 0.2727  plane waves:     178
 k-point  58 :   0.3636 0.0909 0.2727  plane waves:     177
 k-point  59 :   0.4545 0.0909 0.2727  plane waves:     179
 k-point  60 :   0.1818 0.1818 0.2727  plane waves:     178
 k-point  61 :   0.2727 0.1818 0.2727  plane waves:     178
 k-point  62 :   0.3636 0.1818 0.2727  plane waves:     178
 k-point  63 :   0.2727 0.2727 0.2727  plane waves:     183
 k-point  64 :   0.3636 0.2727 0.2727  plane waves:     181
 k-point  65 :   0.0000 0.0000 0.3636  plane waves:     160
 k-point  66 :   0.0909 0.0000 0.3636  plane waves:     168
 k-point  67 :   0.1818-0.0000 0.3636  plane waves:     178
 k-point  68 :   0.2727 0.0000 0.3636  plane waves:     177
 k-point  69 :   0.3636-0.0000 0.3636  plane waves:     178
 k-point  70 :   0.4545-0.0000 0.3636  plane waves:     182
 k-point  71 :   0.0909 0.0909 0.3636  plane waves:     178
 k-point  72 :   0.1818 0.0909 0.3636  plane waves:     178
 k-point  73 :   0.2727 0.0909 0.3636  plane waves:     176
 k-point  74 :   0.3636 0.0909 0.3636  plane waves:     178
 k-point  75 :   0.4545 0.0909 0.3636  plane waves:     181
 k-point  76 :   0.1818 0.1818 0.3636  plane waves:     179
 k-point  77 :   0.2727 0.1818 0.3636  plane waves:     177
 k-point  78 :   0.3636 0.1818 0.3636  plane waves:     181
 k-point  79 :   0.2727 0.2727 0.3636  plane waves:     179
 k-point  80 :   0.3636 0.2727 0.3636  plane waves:     182
 k-point  81 :   0.0000 0.0000 0.4545  plane waves:     154
 k-point  82 :   0.0909 0.0000 0.4545  plane waves:     168
 k-point  83 :   0.1818-0.0000 0.4545  plane waves:     180
 k-point  84 :   0.2727 0.0000 0.4545  plane waves:     178
 k-point  85 :   0.3636-0.0000 0.4545  plane waves:     177
 k-point  86 :   0.4545-0.0000 0.4545  plane waves:     182
 k-point  87 :   0.0909 0.0909 0.4545  plane waves:     174
 k-point  88 :   0.1818 0.0909 0.4545  plane waves:     178
 k-point  89 :   0.2727 0.0909 0.4545  plane waves:     177
 k-point  90 :   0.3636 0.0909 0.4545  plane waves:     181
 k-point  91 :   0.4545 0.0909 0.4545  plane waves:     182
 k-point  92 :   0.1818 0.1818 0.4545  plane waves:     178
 k-point  93 :   0.2727 0.1818 0.4545  plane waves:     178
 k-point  94 :   0.3636 0.1818 0.4545  plane waves:     180
 k-point  95 :   0.2727 0.2727 0.4545  plane waves:     176
 k-point  96 :   0.3636 0.2727 0.4545  plane waves:     180

 maximum number of plane-waves:       189
 maximum index in each direction: 
   IXMAX=    2   IYMAX=    3   IZMAX=    5
   IXMIN=   -3   IYMIN=   -3   IZMIN=   -5


 total amount of memory used by VASP MPI-rank0    47194. kBytes
=======================================================================

   base      :      30000. kBytes
   nonl-proj :       2618. kBytes
   grid      :        721. kBytes
   one-center:         31. kBytes
   wavefun   :      13824. kBytes
 
     INWAV:  cpu time    0.0000: real time    0.0000
 Broyden mixing: mesh for mixing (old mesh)
   NGX =  5   NGY =  5   NGZ = 11
  (NGX  = 20   NGY  = 20   NGZ  = 32)
  gives a total of    275 points

 initial charge density was supplied:
 charge density of overlapping atoms calculated
 number of electron      16.0000000 magnetization 
 keeping initial charge density in first step


--------------------------------------------------------------------------------------------------------


 Maximum index for augmentation-charges         3365 (set IRDMAX)


--------------------------------------------------------------------------------------------------------


 First call to EWALD:  gamma=   0.693
 Maximum number of real-space cells 3x 3x 2
 Maximum number of reciprocal cells 2x 2x 4

    FEWALD:  cpu time    0.0008: real time    0.0008


--------------------------------------- Iteration      1(   1)  ---------------------------------------


    POTLOK:  cpu time    0.0030: real time    0.0030
    SETDIJ:  cpu time    0.0021: real time    0.0022
     EDDAV:  cpu time    0.7793: real time    0.7980
       DOS:  cpu time    0.0051: real time    0.0051
    --------------------------------------------
      LOOP:  cpu time    0.7896: real time    0.8083

 eigenvalue-minimisations  :  9624
 total energy-change (2. order) : 0.6023746E+02  (-0.2308342E+03)
 number of electron      16.0000000 magnetization 
 augmentation part       16.0000000 magnetization 

 Free energy of the ion-electron system (eV)
  ---------------------------------------------------
  alpha Z        PSCENC =       165.40876046
  Ewald energy   TEWEN  =     -1311.08539290
  -Hartree energ DENC   =      -178.31825951
  -exchange      EXHF   =         0.00000000
  -V(xc)+E(xc)   XCENC  =         9.83905266
  PAW double counting   =      1109.69170683    -1125.09647265
  entropy T*S    EENTRO =        -0.00079700
  eigenvalues    EBANDS =       201.22395855
  atomic energy  EATOM  =      1188.57490811
  Solvation  Ediel_sol  =         0.00000000
  ---------------------------------------------------
  free energy    TOTEN  =        60.23746455 eV

  energy without entropy =       60.23826155  energy(sigma->0) =       60.23773022


--------------------------------------------------------------------------------------------------------




--------------------------------------- Iteration      1(   2)  ---------------------------------------


     EDDAV:  cpu time    0.6195: real time    0.6195
       DOS:  cpu time    0.0060: real time    0.0060
    --------------------------------------------
      LOOP:  cpu time    0.6254: real time    0.6255

 eigenvalue-minimisations  :  7880
 total energy-change (2. order) :-0.7421833E+02  (-0.6329086E+02)
 number of electron      16.0000000 magnetization 
 augmentation part       16.0000000 magnetization 

 Free energy of the ion-electron system (eV)
  ---------------------------------------------------
  alpha Z        PSCENC =       165.40876046
  Ewald energy   TEWEN  =     -1311.08539290
  -Hartree energ DENC   =      -178.31825951
  -exchange      EXHF   =         0.00000000
  -V(xc)+E(xc)   XCENC  =         9.83905266
  PAW double counting   =      1109.69170683    -1125.09647265
  entropy T*S    EENTRO =         0.00196289
  eigenvalues    EBANDS =       127.00286532
  atomic energy  EATOM  =      1188.57490811
  Solvation  Ediel_sol  =         0.00000000
  ---------------------------------------------------
  free energy    TOTEN  =       -13.98086879 eV

  energy without entropy =      -13.98283168  energy(sigma->0) =      -13.98152308


--------------------------------------------------------------------------------------------------------




--------------------------------------- Iteration      1(   3)  ---------------------------------------


     EDDAV:  cpu time    0.7283: real time    0.7283
       DOS:  cpu time    0.0064: real time    0.0064
    --------------------------------------------
      LOOP:  cpu time    0.7347: real time    0.7348

 eigenvalue-minimisations  :  9600
 total energy-change (2. order) :-0.3895525E+01  (-0.3747652E+01)
 number of electron      16.0000000 magnetization 
 augmentation part       16.0000000 magnetization 

 Free energy of the ion-electron system (eV)
  ---------------------------------------------------
  alpha Z        PSCENC =       165.40876046
  Ewald energy   TEWEN  =     -1311.08539290
  -Hartree energ DENC   =      -178.31825951
  -exchange      EXHF   =         0.00000000
  -V(xc)+E(xc)   XCENC  =         9.83905266
  PAW double counting   =      1109.69170683    -1125.09647265
  entropy T*S    EENTRO =         0.00029650
  eigenvalues    EBANDS =       123.10900707
  atomic energy  EATOM  =      1188.57490811
  Solvation  Ediel_sol  =         0.00000000
  ---------------------------------------------------
  free energy    TOTEN  =       -17.87639343 eV

  energy without entropy =      -17.87668993  energy(sigma->0) =      -17.87649227


--------------------------------------------------------------------------------------------------------




--------------------------------------- Iteration      1(   4)  ---------------------------------------


     EDDAV:  cpu time    0.6529: real time    0.6529
       DOS:  cpu time    0.0064: real time    0.0064
    --------------------------------------------
      LOOP:  cpu time    0.6593: real time    0.6593

 eigenvalue-minimisations  :  8536
 total energy-change (2. order) :-0.1193271E-01  (-0.1192876E-01)
 number of electron      16.0000000 magnetization 
 augmentation part       16.0000000 magnetization 

 Free energy of the ion-electron system (eV)
  ---------------------------------------------------
  alpha Z        PSCENC =       165.40876046
  Ewald energy   TEWEN  =     -1311.08539290
  -Hartree energ DENC   =      -178.31825951
  -exchange      EXHF   =         0.00000000
  -V(xc)+E(xc)   XCENC  =         9.83905266
  PAW double counting   =      1109.69170683    -1125.09647265
  entropy T*S    EENTRO =         0.00027278
  eigenvalues    EBANDS =       123.09709807
  atomic energy  EATOM  =      1188.57490811
  Solvation  Ediel_sol  =         0.00000000
  ---------------------------------------------------
  free energy    TOTEN  =       -17.88832614 eV

  energy without entropy =      -17.88859893  energy(sigma->0) =      -17.88841707


--------------------------------------------------------------------------------------------------------




--------------------------------------- Iteration      1(   5)  ---------------------------------------


     EDDAV:  cpu time    0.6972: real time    0.6972
       DOS:  cpu time    0.0058: real time    0.0058
    CHARGE:  cpu time    0.0176: real time    0.0176
    MIXING:  cpu time    0.0001: real time    0.0001
    --------------------------------------------
      LOOP:  cpu time    0.7206: real time    0.7206

 eigenvalue-minimisations  :  9320
 total energy-change (2. order) :-0.6151688E-05  (-0.6152434E-05)
 number of electron      16.0000112 magnetization 
 augmentation part        7.2583822 magnetization 

 Broyden mixing:
  rms(total) = 0.21571E+01    rms(broyden)= 0.21571E+01
  rms(prec ) = 0.31092E+01
  weight for this iteration     100.00

 Free energy of the ion-electron system (eV)
  ---------------------------------------------------
  alpha Z        PSCENC =       165.40876046
  Ewald energy   TEWEN  =     -1311.08539290
  -Hartree energ DENC   =      -178.31825951
  -exchange      EXHF   =         0.00000000
  -V(xc)+E(xc)   XCENC  =         9.83905266
  PAW double counting   =      1109.69170683    -1125.09647265
  entropy T*S    EENTRO =         0.00027276
  eigenvalues    EBANDS =       123.09709195
  atomic energy  EATOM  =      1188.57490811
  Solvation  Ediel_sol  =         0.00000000
  ---------------------------------------------------
  free energy    TOTEN  =       -17.88833229 eV

  energy without entropy =      -17.88860505  energy(sigma->0) =      -17.88842321


--------------------------------------------------------------------------------------------------------




--------------------------------------- Iteration      1(   6)  ---------------------------------------


    POTLOK:  cpu time    0.0029: real time    0.0029
    SETDIJ:  cpu time    0.0022: real time    0.0022
     EDDAV:  cpu time    0.8266: real time    0.8266
       DOS:  cpu time    0.0064: real time    0.0064
    CHARGE:  cpu time    0.0171: real time    0.0171
    MIXING:  cpu time    0.0002: real time    0.0002
    --------------------------------------------
      LOOP:  cpu time    0.8553: real time    0.8554

 eigenvalue-minimisations  : 11312
 total energy-change (2. order) : 0.2447594E+01  (-0.1156137E+00)
 number of electron      16.0000130 magnetization 
 augmentation part        8.2660504 magnetization 

 Broyden mixing:
  rms(total) = 0.22032E+00    rms(broyden)= 0.22018E+00
  rms(prec ) = 0.23685E+00
  weight for this iteration     100.00

 eigenvalues of (default mixing * dielectric matrix)
  average eigenvalue GAMMA=   1.0906
  1.0906

 Free energy of the ion-electron system (eV)
  ---------------------------------------------------
  alpha Z        PSCENC =       165.40876046
  Ewald energy   TEWEN  =     -1311.08539290
  -Hartree energ DENC   =      -149.96538098
  -exchange      EXHF   =         0.00000000
  -V(xc)+E(xc)   XCENC  =         8.43598057
  PAW double counting   =      1386.83122272    -1399.95399181
  entropy T*S    EENTRO =         0.00023747
  eigenvalues    EBANDS =        96.31291760
  atomic energy  EATOM  =      1188.57490811
  Solvation  Ediel_sol  =         0.00000000
  ---------------------------------------------------
  free energy    TOTEN  =       -15.44073877 eV

  energy without entropy =      -15.44097624  energy(sigma->0) =      -15.44081793


--------------------------------------------------------------------------------------------------------




--------------------------------------- Iteration      1(   7)  ---------------------------------------


    POTLOK:  cpu time    0.0029: real time    0.0029
    SETDIJ:  cpu time    0.0022: real time    0.0021
     EDDAV:  cpu time    0.6933: real time    0.6934
       DOS:  cpu time    0.0059: real time    0.0059
    CHARGE:  cpu time    0.0171: real time    0.0171
    MIXING:  cpu time    0.0002: real time    0.0002
    --------------------------------------------
      LOOP:  cpu time    0.7216: real time    0.7216

 eigenvalue-minimisations  :  9296
 total energy-change (2. order) : 0.1077601E+00  (-0.3849231E-02)
 number of electron      16.0000128 magnetization 
 augmentation part        8.1757422 magnetization 

 Broyden mixing:
  rms(total) = 0.19155E+00    rms(broyden)= 0.19155E+00
  rms(prec ) = 0.24594E+00
  weight for this iteration     100.00

 eigenvalues of (default mixing * dielectric matrix)
  average eigenvalue GAMMA=   1.3824
  0.8916  1.8731

 Free energy of the ion-electron system (eV)
  ---------------------------------------------------
  alpha Z        PSCENC =       165.40876046
  Ewald energy   TEWEN  =     -1311.08539290
  -Hartree energ DENC   =      -149.47749278
  -exchange      EXHF   =         0.00000000
  -V(xc)+E(xc)   XCENC  =         8.43913397
  PAW double counting   =      1530.79032164    -1547.29790885
  entropy T*S    EENTRO =         0.00016068
  eigenvalues    EBANDS =        99.31453102
  atomic energy  EATOM  =      1188.57490811
  Solvation  Ediel_sol  =         0.00000000
  ---------------------------------------------------
  free energy    TOTEN  =       -15.33297864 eV

  energy without entropy =      -15.33313932  energy(sigma->0) =      -15.33303220


--------------------------------------------------------------------------------------------------------




--------------------------------------- Iteration      1(   8)  ---------------------------------------


    POTLOK:  cpu time    0.0028: real time    0.0028
    SETDIJ:  cpu time    0.0021: real time    0.0021
     EDDAV:  cpu time    0.7971: real time    0.7971
       DOS:  cpu time    0.0062: real time    0.0062
    CHARGE:  cpu time    0.0170: real time    0.0170
    MIXING:  cpu time    0.0002: real time    0.0002
    --------------------------------------------
      LOOP:  cpu time    0.8253: real time    0.8253

 eigenvalue-minimisations  : 10848
 total energy-change (2. order) : 0.4368250E-01  (-0.2331923E-03)
 number of electron      16.0000129 magnetization 
 augmentation part        8.1974877 magnetization 

 Broyden mixing:
  rms(total) = 0.45406E-01    rms(broyden)= 0.45398E-01
  rms(prec ) = 0.55072E-01
  weight for this iteration     100.00

 eigenvalues of (default mixing * dielectric matrix)
  average eigenvalue GAMMA=   1.5940
  2.7584  1.1294  0.8943

 Free energy of the ion-electron system (eV)
  ---------------------------------------------------
  alpha Z        PSCENC =       165.40876046
  Ewald energy   TEWEN  =     -1311.08539290
  -Hartree energ DENC   =      -146.54271885
  -exchange      EXHF   =         0.00000000
  -V(xc)+E(xc)   XCENC  =         8.31894914
  PAW double counting   =      1697.18545088    -1716.33546293
  entropy T*S    EENTRO =         0.00018463
  eigenvalues    EBANDS =        99.18602532
  atomic energy  EATOM  =      1188.57490811
  Solvation  Ediel_sol  =         0.00000000
  ---------------------------------------------------
  free energy    TOTEN  =       -15.28929614 eV

  energy without entropy =      -15.28948077  energy(sigma->0) =      -15.28935768


--------------------------------------------------------------------------------------------------------




--------------------------------------- Iteration      1(   9)  ---------------------------------------


    POTLOK:  cpu time    0.0030: real time    0.0030
    SETDIJ:  cpu time    0.0021: real time    0.0021
     EDDAV:  cpu time    0.7471: real time    0.7471
       DOS:  cpu time    0.0064: real time    0.0064
    CHARGE:  cpu time    0.0171: real time    0.0171
    MIXING:  cpu time    0.0002: real time    0.0002
    --------------------------------------------
      LOOP:  cpu time    0.7758: real time    0.7758

 eigenvalue-minimisations  : 10120
 total energy-change (2. order) : 0.2500686E-02  (-0.4313422E-04)
 number of electron      16.0000129 magnetization 
 augmentation part        8.2020598 magnetization 

 Broyden mixing:
  rms(total) = 0.91933E-02    rms(broyden)= 0.91886E-02
  rms(prec ) = 0.12867E-01
  weight for this iteration     100.00

 eigenvalues of (default mixing * dielectric matrix)
  average eigenvalue GAMMA=   1.6569
  2.7224  2.0142  0.9060  0.9849

 Free energy of the ion-electron system (eV)
  ---------------------------------------------------
  alpha Z        PSCENC =       165.40876046
  Ewald energy   TEWEN  =     -1311.08539290
  -Hartree energ DENC   =      -145.52736647
  -exchange      EXHF   =         0.00000000
  -V(xc)+E(xc)   XCENC  =         8.27982881
  PAW double counting   =      1770.64013219    -1790.82270535
  entropy T*S    EENTRO =         0.00017833
  eigenvalues    EBANDS =        99.24486136
  atomic energy  EATOM  =      1188.57490811
  Solvation  Ediel_sol  =         0.00000000
  ---------------------------------------------------
  free energy    TOTEN  =       -15.28679545 eV

  energy without entropy =      -15.28697378  energy(sigma->0) =      -15.28685489


--------------------------------------------------------------------------------------------------------




--------------------------------------- Iteration      1(  10)  ---------------------------------------


    POTLOK:  cpu time    0.0028: real time    0.0028
    SETDIJ:  cpu time    0.0021: real time    0.0021
     EDDAV:  cpu time    0.6603: real time    0.6603
       DOS:  cpu time    0.0066: real time    0.0066
    CHARGE:  cpu time    0.0175: real time    0.0175
    MIXING:  cpu time    0.0002: real time    0.0002
    --------------------------------------------
      LOOP:  cpu time    0.6895: real time    0.6895

 eigenvalue-minimisations  :  8832
 total energy-change (2. order) : 0.1112104E-03  (-0.1198306E-05)
 number of electron      16.0000129 magnetization 
 augmentation part        8.2013408 magnetization 

 Broyden mixing:
  rms(total) = 0.24032E-02    rms(broyden)= 0.24028E-02
  rms(prec ) = 0.34219E-02
  weight for this iteration     100.00

 eigenvalues of (default mixing * dielectric matrix)
  average eigenvalue GAMMA=   1.6816
  2.6627  2.4576  0.9030  1.0045  1.3804

 Free energy of the ion-electron system (eV)
  ---------------------------------------------------
  alpha Z        PSCENC =       165.40876046
  Ewald energy   TEWEN  =     -1311.08539290
  -Hartree energ DENC   =      -145.70346596
  -exchange      EXHF   =         0.00000000
  -V(xc)+E(xc)   XCENC  =         8.28823076
  PAW double counting   =      1767.12314557    -1787.12677405
  entropy T*S    EENTRO =         0.00017764
  eigenvalues    EBANDS =        99.23372613
  atomic energy  EATOM  =      1188.57490811
  Solvation  Ediel_sol  =         0.00000000
  ---------------------------------------------------
  free energy    TOTEN  =       -15.28668424 eV

  energy without entropy =      -15.28686188  energy(sigma->0) =      -15.28674345


--------------------------------------------------------------------------------------------------------




--------------------------------------- Iteration      1(  11)  ---------------------------------------


    POTLOK:  cpu time    0.0028: real time    0.0028
    SETDIJ:  cpu time    0.0022: real time    0.0022
     EDDAV:  cpu time    0.6695: real time    0.6695
       DOS:  cpu time    0.0062: real time    0.0062
    CHARGE:  cpu time    0.0171: real time    0.0171
    MIXING:  cpu time    0.0002: real time    0.0002
    --------------------------------------------
      LOOP:  cpu time    0.6981: real time    0.6981

 eigenvalue-minimisations  :  8760
 total energy-change (2. order) : 0.3244223E-04  (-0.5565518E-07)
 number of electron      16.0000129 magnetization 
 augmentation part        8.2011948 magnetization 

 Broyden mixing:
  rms(total) = 0.15547E-03    rms(broyden)= 0.15534E-03
  rms(prec ) = 0.31178E-03
  weight for this iteration     100.00

 eigenvalues of (default mixing * dielectric matrix)
  average eigenvalue GAMMA=   1.5990
  2.5769  2.5769  0.9045  1.0167  1.0167  1.5019

 Free energy of the ion-electron system (eV)
  ---------------------------------------------------
  alpha Z        PSCENC =       165.40876046
  Ewald energy   TEWEN  =     -1311.08539290
  -Hartree energ DENC   =      -145.76557308
  -exchange      EXHF   =         0.00000000
  -V(xc)+E(xc)   XCENC  =         8.29105026
  PAW double counting   =      1765.37952166    -1785.31679300
  entropy T*S    EENTRO =         0.00017808
  eigenvalues    EBANDS =        99.22668861
  atomic energy  EATOM  =      1188.57490811
  Solvation  Ediel_sol  =         0.00000000
  ---------------------------------------------------
  free energy    TOTEN  =       -15.28665180 eV

  energy without entropy =      -15.28682988  energy(sigma->0) =      -15.28671116


--------------------------------------------------------------------------------------------------------




--------------------------------------- Iteration      1(  12)  ---------------------------------------


    POTLOK:  cpu time    0.0029: real time    0.0029
    SETDIJ:  cpu time    0.0021: real time    0.0021
     EDDAV:  cpu time    0.5298: real time    0.5298
       DOS:  cpu time    0.0064: real time    0.0064
    --------------------------------------------
      LOOP:  cpu time    0.5412: real time    0.5412

 eigenvalue-minimisations  :  6224
 total energy-change (2. order) : 0.3944174E-06  (-0.6219609E-08)
 number of electron      16.0000129 magnetization 
 augmentation part        8.2011948 magnetization 

 Free energy of the ion-electron system (eV)
  ---------------------------------------------------
  alpha Z        PSCENC =       165.40876046
  Ewald energy   TEWEN  =     -1311.08539290
  -Hartree energ DENC   =      -145.77311332
  -exchange      EXHF   =         0.00000000
  -V(xc)+E(xc)   XCENC  =         8.29138049
  PAW double counting   =      1765.21056818    -1785.14116862
  entropy T*S    EENTRO =         0.00017818
  eigenvalues    EBANDS =        99.22722802
  atomic energy  EATOM  =      1188.57490811
  Solvation  Ediel_sol  =         0.00000000
  ---------------------------------------------------
  free energy    TOTEN  =       -15.28665140 eV

  energy without entropy =      -15.28682959  energy(sigma->0) =      -15.28671080


--------------------------------------------------------------------------------------------------------




 average (electrostatic) potential at core
  the test charge radii are     1.0103
  (the norm of the test charge is              1.0000)
       1 -40.3909       2 -40.3910
 
 
 
 E-fermi :   9.3667     XC(G=0): -14.9912     alpha+bet :-18.5485

 Fermi energy:         9.3666785826

 k-point     1 :       0.0000    0.0000    0.0000
  band No.  band energies     occupation 
      1      -0.6609      2.00000
      2       3.1867      2.00000
      3       6.6429      2.00000
      4       7.2663      2.00000
      5       7.2663      2.00000
      6       7.7268      2.00000
      7       7.7268      2.00000
      8       8.8363      2.00114
      9       8.8363      2.00114
     10       8.8493      2.00156
     11      10.3707     -0.00000
     12      10.3707     -0.00000
     13      19.1267      0.00000
     14      34.2128      0.00000
     15      35.6385      0.00000
     16      37.9083      0.00000
     17      41.7351      0.00000
     18      41.7351      0.00000
     19      42.3919      0.00000
     20      42.3919      0.00000
     21      44.6031      0.00000
     22      44.6031      0.00000
     23      44.9964      0.00000
     24      45.7641      0.00000
     25      49.7295      0.00000
     26      49.7295      0.00000
     27      51.3541      0.00000
     28      54.7222      0.00000
     29      54.7222      0.00000
     30      56.1161      0.00000
     31      56.1161      0.00000
     32      60.0696      0.00000
     33      65.6887      0.00000
     34      66.8959      0.00000
     35      66.8959      0.00000
     36      67.8514      0.00000
     37      68.4393      0.00000
     38      71.5618      0.00000
     39      71.5618      0.00000
     40      75.7419      0.00000

 k-point     2 :       0.0909    0.0000    0.0000
  band No.  band energies     occupation 
      1      -0.2784      2.00000
      2       3.4723      2.00000
      3       6.5750      2.00000
      4       7.2551      2.00000
      5       7.5117      2.00000
      6       7.5834      2.00000
      7       7.6393      2.00000
      8       7.9518      2.00000
      9       8.6681      2.00001
     10       8.6791      2.00001
     11      10.4245     -0.00000
     12      11.8412     -0.00000
     13      19.1244      0.00000
     14      33.3783      0.00000
     15      35.9740      0.00000
     16      36.6046      0.00000
     17      38.5167      0.00000
     18      40.2702      0.00000
     19      40.4734      0.00000
     20      44.2515      0.00000
     21      44.5788      0.00000
     22      45.5424      0.00000
     23      46.2453      0.00000
     24      46.4083      0.00000
     25      50.6200      0.00000
     26      50.7160      0.00000
     27      51.8605      0.00000
     28      52.0310      0.00000
     29      55.2518      0.00000
     30      58.0055      0.00000
     31      58.3980      0.00000
     32      61.0687      0.00000
     33      65.4831      0.00000
     34      65.6655      0.00000
     35      66.1601      0.00000
     36      67.4964      0.00000
     37      67.6801      0.00000
     38      71.6343      0.00000
     39      73.6589      0.00000
     40      75.5601      0.00000

 k-point     3 :       0.1818   -0.0000    0.0000
  band No.  band energies     occupation 
      1       0.7856      2.00000
      2       4.1204      2.00000
      3       6.1861      2.00000
      4       6.2280      2.00000
      5       7.0655      2.00000
      6       7.8309      2.00000
      7       8.2088      2.00000
      8       8.2423      2.00000
      9       8.3153      2.00000
     10       8.5878      2.00000
     11      10.5194     -0.00000
     12      14.0755     -0.00000
     13      19.1720      0.00000
     14      30.0499      0.00000
     15      35.2946      0.00000
     16      35.3447      0.00000
     17      35.7030      0.00000
     18      36.7834      0.00000
     19      41.5309      0.00000
     20      43.5297      0.00000
     21      43.6508      0.00000
     22      44.0621      0.00000
     23      47.0582      0.00000
     24      48.8976      0.00000
     25      51.1918      0.00000
     26      51.7032      0.00000
     27      53.3159      0.00000
     28      55.7470      0.00000
     29      59.2192      0.00000
     30      60.2150      0.00000
     31      61.0425      0.00000
     32      62.7537      0.00000
     33      64.1379      0.00000
     34      64.6874      0.00000
     35      64.9428      0.00000
     36      65.9109      0.00000
     37      69.1436      0.00000
     38      72.1785      0.00000
     39      74.7650      0.00000
     40      75.5169      0.00000

 k-point     4 :       0.2727    0.0000    0.0000
  band No.  band energies     occupation 
      1       2.2189      2.00000
      2       4.3378      2.00000
      3       5.0303      2.00000
      4       6.1763      2.00000
      5       6.8912      2.00000
      6       7.7131      2.00000
      7       7.9063      2.00000
      8       8.8256      2.00088
      9       9.2015      1.99277
     10       9.4813      0.18502
     11      10.5833     -0.00000
     12      16.5093      0.00000
     13      19.2814      0.00000
     14      25.9786      0.00000
     15      31.9359      0.00000
     16      32.5902      0.00000
     17      33.9204      0.00000
     18      36.4535      0.00000
     19      40.4618      0.00000
     20      43.1834      0.00000
     21      44.0507      0.00000
     22      44.0659      0.00000
     23      44.6847      0.00000
     24      48.9167      0.00000
     25      54.5720      0.00000
     26      56.2721      0.00000
     27      56.9838      0.00000
     28      59.0867      0.00000
     29      60.1930      0.00000
     30      60.7250      0.00000
     31      62.8309      0.00000
     32      63.4043      0.00000
     33      64.2386      0.00000
     34      64.4322      0.00000
     35      65.2163      0.00000
     36      68.5234      0.00000
     37      69.0433      0.00000
     38      72.7402      0.00000
     39      74.7803      0.00000
     40      74.8481      0.00000

 k-point     5 :       0.3636   -0.0000    0.0000
  band No.  band energies     occupation 
      1       3.2940      2.00000
      2       3.9920      2.00000
      3       4.2354      2.00000
      4       6.5315      2.00000
      5       7.2528      2.00000
      6       7.3561      2.00000
      7       7.5720      2.00000
      8      10.2044     -0.00000
      9      10.3878     -0.00000
     10      10.4054     -0.00000
     11      10.6060     -0.00000
     12      18.8078      0.00000
     13      19.0323      0.00000
     14      23.1530      0.00000
     15      28.5641      0.00000
     16      30.4463      0.00000
     17      31.3281      0.00000
     18      35.4407      0.00000
     19      39.1597      0.00000
     20      42.4402      0.00000
     21      42.9746      0.00000
     22      45.2584      0.00000
     23      46.2724      0.00000
     24      49.1116      0.00000
     25      57.2475      0.00000
     26      58.1269      0.00000
     27      58.2643      0.00000
     28      61.4840      0.00000
     29      61.9703      0.00000
     30      62.0338      0.00000
     31      63.4261      0.00000
     32      64.3071      0.00000
     33      65.1845      0.00000
     34      65.8122      0.00000
     35      66.4592      0.00000
     36      68.2749      0.00000
     37      72.9634      0.00000
     38      73.5807      0.00000
     39      74.1180      0.00000
     40      74.7498      0.00000

 k-point     6 :       0.4545   -0.0000    0.0000
  band No.  band energies     occupation 
      1       3.4447      2.00000
      2       3.8315      2.00000
      3       3.8666      2.00000
      4       6.9897      2.00000
      5       7.2280      2.00000
      6       7.3850      2.00000
      7       7.6675      2.00000
      8      10.6104     -0.00000
      9      10.8292     -0.00000
     10      11.0051     -0.00000
     11      12.4556     -0.00000
     12      16.5301      0.00000
     13      21.3634      0.00000
     14      23.2343      0.00000
     15      25.8618      0.00000
     16      28.6839      0.00000
     17      29.2328      0.00000
     18      34.7218      0.00000
     19      38.7243      0.00000
     20      41.1442      0.00000
     21      42.8404      0.00000
     22      46.2657      0.00000
     23      48.4831      0.00000
     24      49.2565      0.00000
     25      53.9721      0.00000
     26      59.7163      0.00000
     27      59.8713      0.00000
     28      62.4601      0.00000
     29      63.0407      0.00000
     30      63.8550      0.00000
     31      64.5303      0.00000
     32      64.8813      0.00000
     33      66.4414      0.00000
     34      68.7673      0.00000
     35      68.8274      0.00000
     36      71.3679      0.00000
     37      71.9512      0.00000
     38      72.0433      0.00000
     39      74.7694      0.00000
     40      74.8371      0.00000

 k-point     7 :       0.0909    0.0909    0.0000
  band No.  band energies     occupation 
      1       0.4495      2.00000
      2       3.9665      2.00000
      3       6.2814      2.00000
      4       6.5760      2.00000
      5       7.3132      2.00000
      6       7.4319      2.00000
      7       8.0228      2.00000
      8       8.1279      2.00000
      9       8.4523      2.00000
     10       8.6665      2.00001
     11      10.4575     -0.00000
     12      13.4624     -0.00000
     13      19.1579      0.00000
     14      31.6121      0.00000
     15      33.5282      0.00000
     16      36.3918      0.00000
     17      37.2238      0.00000
     18      39.1657      0.00000
     19      39.4624      0.00000
     20      42.1169      0.00000
     21      43.9660      0.00000
     22      47.5794      0.00000
     23      48.0222      0.00000
     24      49.0538      0.00000
     25      49.5970      0.00000
     26      50.2366      0.00000
     27      50.5174      0.00000
     28      56.0199      0.00000
     29      58.7216      0.00000
     30      59.6459      0.00000
     31      59.8930      0.00000
     32      62.3498      0.00000
     33      63.4703      0.00000
     34      65.0850      0.00000
     35      66.1466      0.00000
     36      67.0861      0.00000
     37      67.1909      0.00000
     38      72.5877      0.00000
     39      74.5878      0.00000
     40      75.2307      0.00000

 k-point     8 :       0.1818    0.0909    0.0000
  band No.  band energies     occupation 
      1       1.7401      2.00000
      2       4.5513      2.00000
      3       5.4568      2.00000
      4       5.8631      2.00000
      5       6.9835      2.00000
      6       7.5854      2.00000
      7       8.0050      2.00000
      8       8.3443      2.00000
      9       8.9359      2.00943
     10       9.3851      0.84487
     11      10.4811     -0.00000
     12      15.6663      0.00000
     13      19.2946      0.00000
     14      28.0350      0.00000
     15      30.9020      0.00000
     16      33.6889      0.00000
     17      36.1372      0.00000
     18      37.0398      0.00000
     19      40.5102      0.00000
     20      41.4646      0.00000
     21      42.6111      0.00000
     22      47.1628      0.00000
     23      47.7858      0.00000
     24      48.7973      0.00000
     25      51.7374      0.00000
     26      52.4261      0.00000
     27      54.4516      0.00000
     28      59.6871      0.00000
     29      60.8952      0.00000
     30      61.2923      0.00000
     31      61.9711      0.00000
     32      63.1065      0.00000
     33      63.5205      0.00000
     34      64.7202      0.00000
     35      66.0360      0.00000
     36      66.5142      0.00000
     37      68.1233      0.00000
     38      73.1551      0.00000
     39      74.3515      0.00000
     40      74.7581      0.00000

 k-point     9 :       0.2727    0.0909    0.0000
  band No.  band energies     occupation 
      1       3.1250      2.00000
      2       4.3851      2.00000
      3       4.5826      2.00000
      4       6.0230      2.00000
      5       7.0990      2.00000
      6       7.1727      2.00000
      7       7.8647      2.00000
      8       8.9844      2.02106
      9       9.9467     -0.00032
     10      10.4898     -0.00000
     11      10.6062     -0.00000
     12      18.1075      0.00000
     13      19.4494      0.00000
     14      24.2823      0.00000
     15      28.9856      0.00000
     16      30.2949      0.00000
     17      33.8672      0.00000
     18      34.8884      0.00000
     19      40.1370      0.00000
     20      41.4240      0.00000
     21      42.7416      0.00000
     22      47.0023      0.00000
     23      47.1616      0.00000
     24      49.8332      0.00000
     25      54.0086      0.00000
     26      56.4381      0.00000
     27      58.3586      0.00000
     28      59.1042      0.00000
     29      60.0557      0.00000
     30      62.7648      0.00000
     31      62.8455      0.00000
     32      64.6279      0.00000
     33      65.2469      0.00000
     34      66.1507      0.00000
     35      66.4500      0.00000
     36      67.4894      0.00000
     37      71.9961      0.00000
     38      72.9613      0.00000
     39      72.9684      0.00000
     40      75.2768      0.00000

 k-point    10 :       0.3636    0.0909    0.0000
  band No.  band energies     occupation 
      1       3.7138      2.00000
      2       4.0381      2.00000
      3       4.0925      2.00000
      4       6.6444      2.00000
      5       6.9656      2.00000
      6       7.4241      2.00000
      7       7.5454      2.00000
      8      10.1274     -0.00000
      9      10.4836     -0.00000
     10      10.6632     -0.00000
     11      12.1343     -0.00000
     12      18.1294      0.00000
     13      20.6142      0.00000
     14      23.0029      0.00000
     15      27.2635      0.00000
     16      27.4767      0.00000
     17      30.5865      0.00000
     18      33.8542      0.00000
     19      39.1511      0.00000
     20      40.8431      0.00000
     21      43.7584      0.00000
     22      47.4745      0.00000
     23      48.4659      0.00000
     24      49.6175      0.00000
     25      55.8659      0.00000
     26      56.7272      0.00000
     27      59.1934      0.00000
     28      60.4717      0.00000
     29      62.3663      0.00000
     30      63.1286      0.00000
     31      63.6990      0.00000
     32      64.6334      0.00000
     33      65.2129      0.00000
     34      68.1567      0.00000
     35      69.8695      0.00000
     36      69.9495      0.00000
     37      70.6677      0.00000
     38      73.8974      0.00000
     39      74.9188      0.00000
     40      75.5574      0.00000

 k-point    11 :       0.4545    0.0909    0.0000
  band No.  band energies     occupation 
      1       3.6557      2.00000
      2       3.8540      2.00000
      3       4.0911      2.00000
      4       6.9395      2.00000
      5       7.1045      2.00000
      6       7.2155      2.00000
      7       7.7027      2.00000
      8      10.4795     -0.00000
      9      10.7693     -0.00000
     10      10.7907     -0.00000
     11      13.5589     -0.00000
     12      16.2152      0.00000
     13      22.2924      0.00000
     14      23.6735      0.00000
     15      25.4261      0.00000
     16      26.6791      0.00000
     17      28.9876      0.00000
     18      33.4777      0.00000
     19      38.7163      0.00000
[...]
     17      31.3467      0.00000
     18      32.5429      0.00000
     19      38.0288      0.00000
     20      38.6692      0.00000
     21      43.2158      0.00000
     22      43.8901      0.00000
     23      48.8408      0.00000
     24      49.9205      0.00000
     25      56.0779      0.00000
     26      57.8638      0.00000
     27      60.0729      0.00000
     28      60.7998      0.00000
     29      63.1260      0.00000
     30      63.9193      0.00000
     31      64.4795      0.00000
     32      64.6433      0.00000
     33      66.9708      0.00000
     34      67.5701      0.00000
     35      70.0085      0.00000
     36      70.6259      0.00000
     37      70.9451      0.00000
     38      73.0320      0.00000
     39      75.2962      0.00000
     40      75.7619      0.00000

 k-point    91 :       0.4545    0.0909    0.4545
  band No.  band energies     occupation 
      1       3.3147      2.00000
      2       3.5111      2.00000
      3       5.0073      2.00000
      4       5.1608      2.00000
      5       7.9408      2.00000
      6       8.4844      2.00000
      7       9.3549      1.09967
      8       9.7436     -0.02280
      9      10.6335     -0.00000
     10      10.6345     -0.00000
     11      13.3766     -0.00000
     12      13.9919     -0.00000
     13      21.1490      0.00000
     14      21.2037      0.00000
     15      29.6713      0.00000
     16      30.3870      0.00000
     17      31.9665      0.00000
     18      32.4694      0.00000
     19      37.8597      0.00000
     20      37.9634      0.00000
     21      42.4851      0.00000
     22      42.6910      0.00000
     23      49.0464      0.00000
     24      50.1628      0.00000
     25      56.4451      0.00000
     26      58.2962      0.00000
     27      62.4280      0.00000
     28      62.9299      0.00000
     29      63.0541      0.00000
     30      63.4203      0.00000
     31      63.9809      0.00000
     32      64.4185      0.00000
     33      68.4654      0.00000
     34      69.0809      0.00000
     35      70.0456      0.00000
     36      71.0029      0.00000
     37      72.9058      0.00000
     38      73.3572      0.00000
     39      75.9719      0.00000
     40      76.2002      0.00000

 k-point    92 :       0.1818    0.1818    0.4545
  band No.  band energies     occupation 
      1       3.7395      2.00000
      2       3.9692      2.00000
      3       5.8354      2.00000
      4       5.8632      2.00000
      5       6.4355      2.00000
      6       6.4871      2.00000
      7       8.3629      2.00000
      8       8.6879      2.00002
      9      10.3660     -0.00000
     10      10.5073     -0.00000
     11      11.1731     -0.00000
     12      11.8769     -0.00000
     13      27.4781      0.00000
     14      27.9461      0.00000
     15      28.1911      0.00000
     16      29.5251      0.00000
     17      30.0411      0.00000
     18      31.5849      0.00000
     19      42.0881      0.00000
     20      43.2320      0.00000
     21      44.0434      0.00000
     22      45.3026      0.00000
     23      47.7639      0.00000
     24      47.8987      0.00000
     25      54.9036      0.00000
     26      55.4859      0.00000
     27      58.7451      0.00000
     28      59.1683      0.00000
     29      61.6047      0.00000
     30      62.9680      0.00000
     31      63.4145      0.00000
     32      63.8165      0.00000
     33      64.3560      0.00000
     34      64.3738      0.00000
     35      66.4623      0.00000
     36      66.7799      0.00000
     37      71.0547      0.00000
     38      73.2117      0.00000
     39      73.3833      0.00000
     40      73.7673      0.00000

 k-point    93 :       0.2727    0.1818    0.4545
  band No.  band energies     occupation 
      1       3.9151      2.00000
      2       4.0420      2.00000
      3       5.5310      2.00000
      4       5.8068      2.00000
      5       6.8260      2.00000
      6       7.0575      2.00000
      7       8.3034      2.00000
      8       8.6079      2.00000
      9      10.5025     -0.00000
     10      10.8236     -0.00000
     11      12.9773     -0.00000
     12      13.6131     -0.00000
     13      24.2084      0.00000
     14      24.8346      0.00000
     15      27.2352      0.00000
     16      28.0595      0.00000
     17      30.6807      0.00000
     18      32.6094      0.00000
     19      40.0779      0.00000
     20      41.5865      0.00000
     21      43.2620      0.00000
     22      44.7937      0.00000
     23      48.1106      0.00000
     24      48.6988      0.00000
     25      56.2792      0.00000
     26      56.8244      0.00000
     27      60.0342      0.00000
     28      61.6017      0.00000
     29      63.5006      0.00000
     30      64.2892      0.00000
     31      64.4407      0.00000
     32      64.7038      0.00000
     33      66.0482      0.00000
     34      66.3473      0.00000
     35      67.6186      0.00000
     36      68.2016      0.00000
     37      71.3184      0.00000
     38      73.7125      0.00000
     39      74.4843      0.00000
     40      75.2179      0.00000

 k-point    94 :       0.3636    0.1818    0.4545
  band No.  band energies     occupation 
      1       3.8691      2.00000
      2       4.0761      2.00000
      3       5.3533      2.00000
      4       5.6214      2.00000
      5       6.9440      2.00000
      6       7.3950      2.00000
      7       8.7667      2.00019
      8       8.9190      2.00687
      9      10.4512     -0.00000
     10      10.6755     -0.00000
     11      14.9110      0.00000
     12      15.4188      0.00000
     13      21.5291      0.00000
     14      21.9271      0.00000
     15      26.5306      0.00000
     16      27.3529      0.00000
     17      32.2885      0.00000
     18      33.5460      0.00000
     19      38.6512      0.00000
     20      39.7801      0.00000
     21      41.9719      0.00000
     22      43.6531      0.00000
     23      49.1715      0.00000
     24      49.6437      0.00000
     25      59.1384      0.00000
     26      59.6346      0.00000
     27      60.5883      0.00000
     28      62.2020      0.00000
     29      62.9027      0.00000
     30      63.3249      0.00000
     31      64.2194      0.00000
     32      64.6845      0.00000
     33      67.0178      0.00000
     34      67.4057      0.00000
     35      69.7184      0.00000
     36      70.5943      0.00000
     37      72.2882      0.00000
     38      73.2209      0.00000
     39      73.9944      0.00000
     40      75.3207      0.00000

 k-point    95 :       0.2727    0.2727    0.4545
  band No.  band energies     occupation 
      1       4.3451      2.00000
      2       4.4436      2.00000
      3       5.6322      2.00000
      4       5.9014      2.00000
      5       6.4467      2.00000
      6       6.7335      2.00000
      7       8.2233      2.00000
      8       8.4790      2.00000
      9      10.4712     -0.00000
     10      10.7119     -0.00000
     11      15.4666      0.00000
     12      16.0616      0.00000
     13      22.4130      0.00000
     14      22.9294      0.00000
     15      24.7744      0.00000
     16      25.2522      0.00000
     17      32.5520      0.00000
     18      34.3596      0.00000
     19      38.5898      0.00000
     20      40.2284      0.00000
     21      41.7690      0.00000
     22      43.1320      0.00000
     23      50.9915      0.00000
     24      51.4455      0.00000
     25      56.6080      0.00000
     26      56.6255      0.00000
     27      62.8278      0.00000
     28      63.1709      0.00000
     29      63.3493      0.00000
     30      64.1034      0.00000
     31      64.7167      0.00000
     32      64.7586      0.00000
     33      65.8582      0.00000
     34      66.9167      0.00000
     35      70.0234      0.00000
     36      70.4687      0.00000
     37      71.7356      0.00000
     38      71.8392      0.00000
     39      72.6359      0.00000
     40      74.5382      0.00000

 k-point    96 :       0.3636    0.2727    0.4545
  band No.  band energies     occupation 
      1       4.5892      2.00000
      2       4.7691      2.00000
      3       5.4985      2.00000
      4       5.5805      2.00000
      5       6.5046      2.00000
      6       6.6548      2.00000
      7       8.3137      2.00000
      8       8.5056      2.00000
      9      10.4321     -0.00000
     10      10.5221     -0.00000
     11      17.4743      0.00000
     12      17.6464      0.00000
     13      20.6316      0.00000
     14      21.0571      0.00000
     15      24.1144      0.00000
     16      24.5705      0.00000
     17      34.2215      0.00000
     18      35.3373      0.00000
     19      37.8381      0.00000
     20      37.9337      0.00000
     21      41.5876      0.00000
     22      42.5072      0.00000
     23      52.4660      0.00000
     24      53.1524      0.00000
     25      57.1813      0.00000
     26      57.5993      0.00000
     27      61.2539      0.00000
     28      61.5895      0.00000
     29      64.0994      0.00000
     30      64.6025      0.00000
     31      64.8594      0.00000
     32      64.8684      0.00000
     33      66.4228      0.00000
     34      66.9423      0.00000
     35      68.5521      0.00000
     36      69.5952      0.00000
     37      71.9447      0.00000
     38      74.3682      0.00000
     39      74.8499      0.00000
     40      75.6521      0.00000


--------------------------------------------------------------------------------------------------------


 soft charge-density along one line, spin component           1
         0         1         2         3         4         5         6         7         8         9
x     7.7988    0.0000    0.0544   -0.0942   -0.0486   -0.0842    0.0224    0.0000    0.0008   -0.0014
x     0.0000    0.0000
y     7.7988    0.0000    0.0544    0.0942   -0.0486    0.0842    0.0224   -0.0000    0.0008    0.0014
y     0.0000    0.0000
z     7.7988    0.0000    0.0000   -0.0000    0.2163    0.0000    0.0000   -0.0000   -0.1235    0.0000
z     0.0000    0.0000    0.0238   -0.0000    0.0000    0.0000    0.0000    0.0000
 total charge-density along one line
x    16.0000    0.0000    1.3712   -2.3751    0.2367    0.4100   -0.0021   -0.0000    0.0023   -0.0040
x    -0.0006   -0.0009    0.0009   -0.0000   -0.0001    0.0002    0.0001    0.0001   -0.0002    0.0000
x     0.0000    0.0000
y    16.0000    0.0000    1.3712    2.3751    0.2367   -0.4100   -0.0021    0.0000    0.0023    0.0040
y    -0.0006    0.0009    0.0009    0.0000   -0.0001   -0.0002    0.0001   -0.0001   -0.0002   -0.0000
y     0.0000   -0.0000
z    16.0000    0.0000    0.0000    0.0000    5.4665    0.0000   -0.0000   -0.0000    0.9923    0.0000
z    -0.0000   -0.0000    0.0009   -0.0000   -0.0000    0.0000    0.0072   -0.0000   -0.0000    0.0000
z    -0.0024   -0.0000   -0.0000   -0.0000    0.0011    0.0000   -0.0000   -0.0000   -0.0006    0.0000
z     0.0000   -0.0000    0.0005    0.0000
 
 pseudopotential strength for first ion, spin component:           1
 -2.997  -0.000  -0.000  -0.000  -0.000  -3.602  -0.000  -0.000
 -0.000  -2.981   0.000  -0.000   0.000  -0.000  -3.586   0.000
 -0.000   0.000  -2.992  -0.000  -0.000  -0.000   0.000  -3.597
 -0.000  -0.000  -0.000  -2.981  -0.000  -0.000  -0.000  -0.000
 -0.000   0.000  -0.000  -0.000  -2.997  -0.000   0.000  -0.000
 -3.602  -0.000  -0.000  -0.000  -0.000  -4.163  -0.000  -0.000
 -0.000  -3.586   0.000  -0.000   0.000  -0.000  -4.147   0.000
 -0.000   0.000  -3.597  -0.000  -0.000  -0.000   0.000  -4.158
 -0.000  -0.000  -0.000  -3.586  -0.000  -0.000  -0.000  -0.000
 -0.000   0.000  -0.000  -0.000  -3.602  -0.000   0.000  -0.000
  0.000   0.000   0.000   0.000  -0.000   0.000   0.000  -0.000
  0.000   0.000   0.001   0.000  -0.000   0.000   0.000   0.000
 -0.000   0.000  -0.000  -0.000  -0.002  -0.000   0.000  -0.000
 -0.000  -0.000   0.000   0.000  -0.000  -0.000  -0.000   0.000
 -0.002  -0.000   0.000   0.000  -0.000  -0.002  -0.000   0.000
 -0.000   0.000  -0.000  -0.000  -0.002  -0.000   0.000  -0.000
 -0.000  -0.000   0.000   0.000  -0.000  -0.000  -0.000   0.000
 -0.002  -0.000   0.000   0.000  -0.000  -0.002  -0.000   0.000
 total augmentation occupancy for first ion, spin component:           1
  2.132  -0.000   0.000   0.000   0.000  -1.889   0.000  -0.000   0.000   0.000  -0.000  -0.000   0.000   0.000   0.044  -0.000
 -0.000   2.521   0.000  -0.000   0.000   0.000  -2.074  -0.000   0.000   0.000  -0.000   0.000   0.000   0.000   0.000  -0.000
  0.000   0.000   1.747   0.000  -0.000  -0.000  -0.000  -1.584  -0.000   0.000   0.003  -0.006  -0.000   0.000   0.000   0.000
  0.000  -0.000   0.000   2.521   0.000   0.000   0.000   0.000  -2.074   0.000   0.000  -0.000   0.000  -0.000   0.000   0.000
  0.000   0.000  -0.000  -0.000   2.132   0.000   0.000   0.000   0.000  -1.889  -0.000   0.000   0.044  -0.000  -0.000  -0.001
 -1.889   0.000  -0.000   0.000   0.000   3.037   0.000   0.000   0.000   0.000   0.000  -0.000  -0.000   0.000  -0.061   0.000
  0.000  -2.074   0.000   0.000   0.000   0.000   2.988  -0.000  -0.000   0.000  -0.000   0.000  -0.000  -0.000   0.000   0.000
 -0.000   0.000  -1.584  -0.000   0.000   0.000   0.000   2.799  -0.000  -0.000  -0.055  -0.001   0.000   0.000  -0.000  -0.000
  0.000   0.000   0.000  -2.074   0.000  -0.000  -0.000  -0.000   2.988   0.000  -0.000   0.000   0.000  -0.000   0.000   0.000
  0.000   0.000   0.000   0.000  -1.889   0.000   0.000  -0.000   0.000   3.037   0.000  -0.000  -0.061   0.000   0.000   0.001
 -0.000  -0.000   0.003   0.000  -0.000   0.000   0.000  -0.055  -0.000   0.000   3.324  -0.406   0.000   0.000   0.000   0.000
 -0.000  -0.000  -0.006  -0.000   0.000  -0.000  -0.000  -0.001   0.000  -0.000  -0.406   0.056  -0.000   0.000   0.000  -0.000
  0.000   0.000  -0.000   0.000   0.044  -0.000   0.000   0.000   0.000  -0.061   0.000   0.000   0.465   0.000  -0.000  -0.034
 -0.000   0.000   0.000  -0.000   0.000  -0.000  -0.000   0.000  -0.000  -0.000   0.000   0.000   0.000   0.453  -0.000  -0.000
  0.044  -0.000   0.000  -0.000  -0.000  -0.061   0.000  -0.000  -0.000   0.000   0.000   0.000  -0.000   0.000   0.465   0.000
 -0.000   0.000   0.000   0.000  -0.001   0.000   0.000  -0.000   0.000   0.001  -0.000   0.000  -0.034   0.000   0.000   0.003
  0.000  -0.000   0.000  -0.000  -0.000   0.000  -0.000   0.000   0.000  -0.000   0.000   0.000   0.000  -0.038  -0.000   0.000
 -0.001   0.000  -0.000  -0.000   0.000   0.001  -0.000  -0.000  -0.000  -0.000   0.000  -0.000   0.000   0.000  -0.034  -0.000


------------------------ aborting loop because EDIFF is reached ----------------------------------------


    CHARGE:  cpu time    0.0173: real time    0.0173
    FORLOC:  cpu time    0.0002: real time    0.0002
    FORNL :  cpu time    0.0809: real time    0.0809
    STRESS:  cpu time    0.1260: real time    0.1260
    FORCOR:  cpu time    0.0030: real time    0.0030
    FORHAR:  cpu time    0.0006: real time    0.0006
    MIXING:  cpu time    0.0002: real time    0.0002

  FORCE on cell =-STRESS in cart. coord.  units (eV):
  Direction    XX          YY          ZZ          XY          YZ          ZX
  --------------------------------------------------------------------------------------
  Alpha Z   165.40876   165.40876   165.40876
  Ewald    -426.30595  -426.30595  -458.47407     0.00000    -0.00000    -0.00000
  Hartree    52.10107    52.10107    41.56890    -0.00000    -0.00000    -0.00000
  E(xc)     -80.91572   -80.91573   -80.69039     0.00006     0.00000    -0.00000
  Local     116.99409   116.99417   156.81561    -0.00048     0.00000     0.00000
  n-local   -47.34110   -47.16019   -49.56664    -5.56655     1.55981     1.07539
  augment    74.45539    74.45523    74.90690     0.00047     0.00000    -0.00000
  Kinetic   160.40257   154.15964   154.74650     1.01297    -1.04802     0.08837
  Fock        0.00000     0.00000     0.00000     0.00000     0.00000     0.00000
  -------------------------------------------------------------------------------------
  Total      11.76806    11.76806     4.71557    -0.00000    -0.00000     0.00000
  in kB    1128.10450  1128.10450   452.04148    -0.00000    -0.00000     0.00000
  external pressure =      902.75 kB  Pullay stress =        0.00 kB


 VOLUME and BASIS-vectors are now :
 -----------------------------------------------------------------------------
  energy-cutoff  :      280.00
  volume of cell :       16.71
      direct lattice vectors                 reciprocal lattice vectors
     2.236800000  0.000000000  0.000000000     0.447067239  0.258114391  0.000000000
    -1.118400000  1.937125623  0.000000000     0.000000000  0.516228781  0.000000000
     0.000000000  0.000000000  3.857280000     0.000000000  0.000000000  0.259250041

  length of vectors
     2.236800000  2.236800000  3.857280000     0.516228781  0.516228781  0.259250041


 FORCES acting on ions
    electron-ion (+dipol)            ewald-force                    non-local-force                 convergence-correction
 -----------------------------------------------------------------------------------------------
   0.144E-05 -.655E-06 0.473E-14   0.749E-12 -.432E-12 -.244E-13   0.180E-16 -.252E-16 0.144E-18   -.341E-07 0.197E-07 -.200E-14
   0.808E-06 0.289E-05 0.532E-13   -.748E-12 0.435E-12 0.243E-13   -.122E-16 0.250E-16 0.159E-18   0.341E-07 -.197E-07 0.236E-13
 -----------------------------------------------------------------------------------------------
   0.225E-05 0.223E-05 0.579E-13   0.905E-15 0.301E-14 -.267E-16   0.587E-17 -.200E-18 0.303E-18   0.841E-13 0.866E-12 0.216E-13
 
 
 POSITION                                       TOTAL-FORCE (eV/Angst)
 -----------------------------------------------------------------------------------
      0.00000      0.00000      0.00000        -0.000000     -0.000000     -0.000000
      0.00000      1.29142      1.92864         0.000000      0.000000      0.000000
 -----------------------------------------------------------------------------------
    total drift:                                0.000002      0.000002      0.000000


--------------------------------------------------------------------------------------------------------



  FREE ENERGIE OF THE ION-ELECTRON SYSTEM (eV)
  ---------------------------------------------------
  free  energy   TOTEN  =       -15.28665140 eV

  energy  without entropy=      -15.28682959  energy(sigma->0) =      -15.28671080
 


--------------------------------------------------------------------------------------------------------


    POTLOK:  cpu time    0.0051: real time    0.0051


--------------------------------------------------------------------------------------------------------


 writing wavefunctions
     LOOP+:  cpu time    8.9060: real time    8.9248
    4ORBIT:  cpu time    0.0000: real time    0.0000

 total amount of memory used by VASP MPI-rank0    47194. kBytes
=======================================================================

   base      :      30000. kBytes
   nonl-proj :       2618. kBytes
   grid      :        721. kBytes
   one-center:         31. kBytes
   wavefun   :      13824. kBytes
 
  
  
 General timing and accounting informations for this job:
 ========================================================
  
                  Total CPU time used (sec):        9.072
                            User time (sec):        9.016
                          System time (sec):        0.056
                         Elapsed time (sec):        9.080
  
                   Maximum memory used (kb):       52180.
                   Average memory used (kb):          N/A
  
                          Minor page faults:         6871
                          Major page faults:            0
                 Voluntary context switches:           26
