   4   4   0   0
  0.8688764E+01  0.3263418E-09  0.3263418E-09  0.3263418E-09  0.5000000E-15
  1.000000000000000E-004
  CAR 
 unknown system                          
     44.59374985     -3.14235092  301      8.79643938      1.00000000
     -3.142  0.0000E+00  0.0000E+00
     -2.983  0.0000E+00  0.0000E+00
     -2.824  0.0000E+00  0.0000E+00
     -2.665 -0.1790E-32 -0.2849E-33
     -2.506 -0.6068E-27 -0.9656E-28
     -2.347 -0.5738E-22 -0.9130E-23
     -2.188 -0.1510E-17 -0.2403E-18
     -2.029 -0.1064E-13 -0.1694E-14
     -1.869 -0.2121E-10 -0.3377E-11
     -1.710 -0.1158E-07 -0.1847E-08
     -1.551 -0.1729E-05 -0.2769E-06
     -1.392 -0.7115E-04 -0.1160E-04
     -1.233 -0.8085E-03 -0.1403E-03
     -1.074 -0.1429E-02 -0.3677E-03
     -0.915  0.1560E-01  0.2115E-02
     -0.756  0.7210E-01  0.1359E-01
     -0.596  0.1060E+00  0.3046E-01
     -0.437  0.1003E+00  0.4643E-01
     -0.278  0.1984E+00  0.7800E-01
     -0.119  0.2170E+00  0.1125E+00
      0.040  0.1119E+00  0.1303E+00
      0.199  0.2257E+00  0.1662E+00
      0.358  0.3204E+00  0.2172E+00
      0.517  0.2484E+00  0.2568E+00
      0.677  0.2689E+00  0.2995E+00
      0.836  0.3615E+00  0.3571E+00
      0.995  0.2208E+00  0.3922E+00
      1.154  0.3772E+00  0.4522E+00
      1.313  0.4555E+00  0.5247E+00
      1.472  0.4809E+00  0.6012E+00
      1.631  0.4794E+00  0.6775E+00
      1.790  0.2457E+00  0.7166E+00
      1.949  0.5344E+00  0.8016E+00
      2.109  0.8147E+00  0.9313E+00
      2.268  0.6640E+00  0.1037E+01
      2.427  0.5418E+00  0.1123E+01
      2.586  0.6864E+00  0.1232E+01
      2.745  0.1538E+01  0.1477E+01
      2.904  0.2130E+01  0.1816E+01
      3.063  0.2951E+01  0.2285E+01
      3.222  0.3386E+01  0.2824E+01
      3.382  0.3985E+01  0.3458E+01
      3.541  0.3746E+01  0.4054E+01
      3.700  0.4202E+01  0.4723E+01
      3.859  0.5322E+01  0.5570E+01
      4.018  0.4985E+01  0.6363E+01
      4.177  0.5558E+01  0.7247E+01
      4.336  0.5382E+01  0.8104E+01
      4.495  0.4459E+01  0.8813E+01
      4.655  0.4488E+01  0.9528E+01
      4.814  0.4913E+01  0.1031E+02
      4.973  0.4410E+01  0.1101E+02
      5.132  0.4293E+01  0.1169E+02
      5.291  0.4062E+01  0.1234E+02
      5.450  0.4044E+01  0.1298E+02
      5.609  0.3514E+01  0.1354E+02
      5.768  0.4046E+01  0.1419E+02
      5.928  0.5352E+01  0.1504E+02
      6.087  0.5863E+01  0.1597E+02
      6.246  0.4784E+01  0.1673E+02
      6.405  0.4868E+01  0.1751E+02
      6.564  0.6819E+01  0.1859E+02
      6.723  0.7072E+01  0.1972E+02
      6.882  0.7093E+01  0.2085E+02
      7.041  0.7438E+01  0.2203E+02
      7.200  0.7914E+01  0.2329E+02
      7.360  0.6451E+01  0.2432E+02
      7.519  0.5055E+01  0.2512E+02
      7.678  0.5137E+01  0.2594E+02
      7.837  0.4204E+01  0.2661E+02
      7.996  0.4451E+01  0.2731E+02
      8.155  0.5265E+01  0.2815E+02
      8.314  0.5613E+01  0.2905E+02
      8.473  0.5934E+01  0.2999E+02
      8.633  0.6721E+01  0.3106E+02
      8.792  0.5765E+01  0.3198E+02
      8.951  0.4632E+01  0.3271E+02
      9.110  0.5203E+01  0.3354E+02
      9.269  0.5365E+01  0.3440E+02
      9.428  0.4690E+01  0.3514E+02
      9.587  0.5430E+01  0.3601E+02
      9.746  0.6488E+01  0.3704E+02
      9.906  0.7440E+01  0.3822E+02
     10.065  0.1047E+02  0.3989E+02
     10.224  0.8148E+01  0.4118E+02
     10.383  0.4068E+01  0.4183E+02
     10.542  0.1800E+01  0.4212E+02
     10.701  0.1619E+01  0.4238E+02
     10.860  0.1472E+01  0.4261E+02
     11.019  0.9095E+00  0.4275E+02
     11.178  0.7678E+00  0.4288E+02
     11.338  0.5597E+00  0.4297E+02
     11.497  0.8911E+00  0.4311E+02
     11.656  0.1621E+01  0.4336E+02
     11.815  0.1205E+01  0.4356E+02
     11.974  0.4227E+00  0.4362E+02
     12.133  0.5434E+00  0.4371E+02
     12.292  0.1329E+01  0.4392E+02
     12.451  0.1549E+01  0.4417E+02
     12.611  0.7500E+00  0.4429E+02
     12.770  0.6479E+00  0.4439E+02
     12.929  0.8960E+00  0.4453E+02
     13.088  0.7529E+00  0.4465E+02
     13.247  0.1132E+01  0.4483E+02
     13.406  0.1209E+01  0.4503E+02
     13.565  0.5582E+00  0.4511E+02
     13.724  0.5954E+00  0.4521E+02
     13.884  0.1201E+01  0.4540E+02
     14.043  0.1029E+01  0.4556E+02
     14.202  0.8515E+00  0.4570E+02
     14.361  0.7033E+00  0.4581E+02
     14.520  0.7778E+00  0.4594E+02
     14.679  0.8544E+00  0.4607E+02
     14.838  0.7880E+00  0.4620E+02
     14.997  0.4024E+00  0.4626E+02
     15.156  0.4669E+00  0.4634E+02
     15.316  0.9689E+00  0.4649E+02
     15.475  0.1050E+01  0.4666E+02
     15.634  0.8594E+00  0.4679E+02
     15.793  0.5854E+00  0.4689E+02
     15.952  0.4125E+00  0.4695E+02
     16.111  0.4291E+00  0.4702E+02
     16.270  0.6915E+00  0.4713E+02
     16.429  0.6295E+00  0.4723E+02
     16.589  0.2705E+00  0.4727E+02
     16.748  0.4357E+00  0.4734E+02
     16.907  0.6044E+00  0.4744E+02
     17.066  0.5197E+00  0.4752E+02
     17.225  0.6509E+00  0.4763E+02
     17.384  0.4382E+00  0.4769E+02
     17.543  0.1964E+00  0.4773E+02
     17.702  0.2062E+00  0.4776E+02
     17.862  0.1278E+00  0.4778E+02
     18.021  0.2944E+00  0.4783E+02
     18.180  0.4462E+00  0.4790E+02
     18.339  0.1634E+00  0.4792E+02
     18.498  0.1644E+00  0.4795E+02
     18.657  0.9462E-01  0.4796E+02
     18.816  0.5902E-01  0.4797E+02
     18.975  0.8002E+00  0.4810E+02
     19.134  0.2131E+01  0.4844E+02
     19.294  0.1825E+01  0.4873E+02
     19.453  0.1744E+01  0.4901E+02
     19.612  0.1334E+01  0.4922E+02
     19.771  0.9789E+00  0.4938E+02
     19.930  0.1211E+01  0.4957E+02
     20.089  0.1039E+01  0.4973E+02
     20.248  0.7939E+00  0.4986E+02
     20.407  0.9723E+00  0.5002E+02
     20.567  0.1202E+01  0.5021E+02
     20.726  0.1003E+01  0.5037E+02
     20.885  0.9008E+00  0.5051E+02
     21.044  0.8002E+00  0.5064E+02
     21.203  0.9160E+00  0.5078E+02
     21.362  0.8781E+00  0.5092E+02
     21.521  0.7829E+00  0.5105E+02
     21.680  0.9694E+00  0.5120E+02
     21.840  0.6154E+00  0.5130E+02
     21.999  0.7158E+00  0.5141E+02
     22.158  0.1066E+01  0.5158E+02
     22.317  0.1127E+01  0.5176E+02
     22.476  0.1140E+01  0.5194E+02
     22.635  0.8203E+00  0.5207E+02
     22.794  0.7354E+00  0.5219E+02
     22.953  0.1329E+01  0.5240E+02
     23.113  0.1704E+01  0.5267E+02
     23.272  0.1403E+01  0.5290E+02
     23.431  0.1023E+01  0.5306E+02
     23.590  0.7483E+00  0.5318E+02
     23.749  0.1351E+01  0.5339E+02
     23.908  0.2104E+01  0.5373E+02
     24.067  0.1792E+01  0.5401E+02
     24.226  0.1141E+01  0.5419E+02
     24.385  0.1280E+01  0.5440E+02
     24.545  0.1855E+01  0.5469E+02
     24.704  0.1222E+01  0.5489E+02
     24.863  0.8676E+00  0.5503E+02
     25.022  0.1488E+01  0.5526E+02
     25.181  0.1307E+01  0.5547E+02
     25.340  0.1128E+01  0.5565E+02
     25.499  0.1754E+01  0.5593E+02
     25.658  0.2211E+01  0.5628E+02
     25.818  0.1671E+01  0.5655E+02
     25.977  0.1154E+01  0.5673E+02
     26.136  0.1052E+01  0.5690E+02
     26.295  0.1611E+01  0.5715E+02
     26.454  0.2180E+01  0.5750E+02
     26.613  0.1355E+01  0.5772E+02
     26.772  0.1303E+01  0.5792E+02
     26.931  0.1445E+01  0.5815E+02
     27.091  0.1668E+01  0.5842E+02
     27.250  0.2003E+01  0.5874E+02
     27.409  0.1770E+01  0.5902E+02
     27.568  0.1695E+01  0.5929E+02
     27.727  0.2514E+01  0.5969E+02
     27.886  0.1853E+01  0.5998E+02
     28.045  0.6192E+00  0.6008E+02
     28.204  0.8799E+00  0.6022E+02
     28.363  0.2299E+01  0.6059E+02
     28.523  0.2305E+01  0.6096E+02
     28.682  0.1048E+01  0.6112E+02
     28.841  0.1164E+01  0.6131E+02
     29.000  0.1895E+01  0.6161E+02
     29.159  0.2052E+01  0.6194E+02
     29.318  0.1749E+01  0.6221E+02
     29.477  0.1977E+01  0.6253E+02
     29.636  0.1893E+01  0.6283E+02
     29.796  0.6687E+00  0.6294E+02
     29.955  0.5615E+00  0.6303E+02
     30.114  0.2156E+01  0.6337E+02
     30.273  0.1962E+01  0.6368E+02
     30.432  0.9503E+00  0.6383E+02
     30.591  0.1481E+01  0.6407E+02
     30.750  0.2041E+01  0.6439E+02
     30.909  0.2054E+01  0.6472E+02
     31.069  0.1619E+01  0.6498E+02
     31.228  0.8481E+00  0.6511E+02
     31.387  0.1328E+01  0.6532E+02
     31.546  0.1858E+01  0.6562E+02
     31.705  0.1711E+01  0.6589E+02
     31.864  0.1417E+01  0.6612E+02
     32.023  0.1966E+01  0.6643E+02
     32.182  0.2016E+01  0.6675E+02
     32.341  0.9557E+00  0.6690E+02
     32.501  0.5071E+00  0.6698E+02
     32.660  0.5004E+00  0.6706E+02
     32.819  0.1519E+01  0.6730E+02
     32.978  0.1995E+01  0.6762E+02
     33.137  0.1409E+01  0.6785E+02
     33.296  0.1638E+01  0.6811E+02
     33.455  0.1477E+01  0.6834E+02
     33.614  0.6855E+00  0.6845E+02
     33.774  0.1082E+01  0.6862E+02
     33.933  0.1772E+01  0.6891E+02
     34.092  0.1299E+01  0.6911E+02
     34.251  0.9972E+00  0.6927E+02
     34.410  0.7342E+00  0.6939E+02
     34.569  0.7475E+00  0.6951E+02
     34.728  0.1256E+01  0.6971E+02
     34.887  0.1806E+01  0.6999E+02
     35.047  0.2383E+01  0.7037E+02
     35.206  0.1970E+01  0.7069E+02
     35.365  0.1380E+01  0.7091E+02
     35.524  0.1459E+01  0.7114E+02
     35.683  0.2025E+01  0.7146E+02
     35.842  0.1815E+01  0.7175E+02
     36.001  0.1617E+01  0.7201E+02
     36.160  0.1563E+01  0.7225E+02
     36.319  0.1477E+01  0.7249E+02
     36.479  0.1961E+01  0.7280E+02
     36.638  0.2217E+01  0.7315E+02
     36.797  0.2314E+01  0.7352E+02
     36.956  0.1679E+01  0.7379E+02
     37.115  0.7461E+00  0.7391E+02
     37.274  0.1241E+01  0.7411E+02
     37.433  0.1826E+01  0.7440E+02
     37.592  0.2085E+01  0.7473E+02
     37.752  0.1820E+01  0.7502E+02
     37.911  0.1781E+01  0.7530E+02
     38.070  0.2123E+01  0.7564E+02
     38.229  0.2715E+01  0.7607E+02
     38.388  0.1933E+01  0.7638E+02
     38.547  0.1253E+01  0.7658E+02
     38.706  0.1349E+01  0.7679E+02
     38.865  0.1399E+01  0.7702E+02
     39.025  0.1471E+01  0.7725E+02
     39.184  0.1679E+01  0.7752E+02
     39.343  0.1571E+01  0.7777E+02
     39.502  0.1200E+01  0.7796E+02
     39.661  0.1502E+01  0.7820E+02
     39.820  0.1569E+01  0.7845E+02
     39.979  0.1367E+01  0.7866E+02
     40.138  0.8838E+00  0.7880E+02
     40.298  0.8564E+00  0.7894E+02
     40.457  0.8705E+00  0.7908E+02
     40.616  0.4188E+00  0.7915E+02
     40.775  0.4635E+00  0.7922E+02
     40.934  0.6447E+00  0.7932E+02
     41.093  0.1149E+01  0.7950E+02
     41.252  0.1317E+01  0.7971E+02
     41.411  0.8103E+00  0.7984E+02
     41.570  0.2173E+00  0.7988E+02
     41.730  0.4983E-02  0.7988E+02
     41.889  0.1156E+00  0.7990E+02
     42.048  0.1262E+00  0.7992E+02
     42.207  0.1874E+00  0.7995E+02
     42.366  0.1736E+00  0.7997E+02
     42.525  0.1344E+00  0.8000E+02
     42.684  0.3219E-01  0.8000E+02
     42.843 -0.6795E-02  0.8000E+02
     43.003 -0.1271E-02  0.8000E+02
     43.162 -0.3774E-04  0.8000E+02
     43.321 -0.2695E-06  0.8000E+02
     43.480 -0.5039E-09  0.8000E+02
     43.639 -0.2545E-12  0.8000E+02
     43.798 -0.5032E-16  0.8000E+02
     43.957  0.0000E+00  0.8000E+02
     44.116  0.0000E+00  0.8000E+02
     44.276  0.0000E+00  0.8000E+02
     44.435  0.0000E+00  0.8000E+02
     44.594  0.0000E+00  0.8000E+02
