    4    4    1    1
  0.8688764E+01  0.3263418E-09  0.3263418E-09  0.3263418E-09  0.5000000E-15
  1.000000000000000E-004
  CAR 
 unknown system                          
     32     56     40
 
  0.0000000E+00  0.0000000E+00  0.0000000E+00  0.7513148E-03
    1       -0.972528   1.000000
    2        2.612351   1.000000
    3        2.612351   1.000000
    4        2.612351   1.000000
    5        3.498320   1.000000
    6        3.498320   1.000000
    7        3.498320   1.000000
    8        6.737537   1.000000
    9        6.737537   1.000000
   10        6.737537   1.000000
   11        8.726064   0.778331
   12        8.726064   0.778331
   13       10.049713  -0.000000
   14       10.049713  -0.000000
   15       10.049713  -0.000000
   16       10.434764  -0.000000
   17       10.434764  -0.000000
   18       10.434764  -0.000000
   19       10.434764  -0.000000
   20       10.434764  -0.000000
   21       10.434764  -0.000000
   22       12.624737  -0.000000
   23       12.624737  -0.000000
   24       12.624737  -0.000000
   25       22.531059   0.000000
   26       22.531059   0.000000
   27       22.531059   0.000000
   28       26.999287   0.000000
   29       26.999287   0.000000
   30       26.999287   0.000000
   31       26.999287   0.000000
   32       26.999287   0.000000
   33       26.999287   0.000000
   34       33.151844   0.000000
   35       33.151844   0.000000
   36       33.151844   0.000000
   37       33.503102   0.000000
   38       39.408751   0.000000
   39       39.408751   0.000000
   40       39.408751   0.000000
 
  0.9090909E-01  0.0000000E+00  0.0000000E+00  0.4507889E-02
    1       -0.837349   1.000000
    2        2.662458   1.000000
    3        2.701396   1.000000
    4        2.701396   1.000000
    5        3.554460   1.000000
    6        3.569029   1.000000
    7        3.569029   1.000000
    8        6.659694   1.000000
    9        6.792316   1.000000
   10        6.792316   1.000000
   11        8.652912   0.965881
   12        8.751495   0.684955
   13        9.846484  -0.000000
   14        9.846484  -0.000000
   15        9.954786  -0.000000
   16        9.954786  -0.000000
   17       10.021378  -0.000000
   18       10.326508  -0.000000
   19       10.326508  -0.000000
   20       10.435254  -0.000000
   21       10.435254  -0.000000
   22       12.114662  -0.000000
   23       13.293234  -0.000000
   24       13.293234  -0.000000
   25       22.512501   0.000000
   26       22.512501   0.000000
   27       23.159282   0.000000
   28       26.478945   0.000000
   29       26.478945   0.000000
   30       26.758079   0.000000
   31       26.758079   0.000000
   32       27.230153   0.000000
   33       27.230153   0.000000
   34       33.152785   0.000000
   35       33.479413   0.000000
   36       33.811972   0.000000
   37       33.811972   0.000000
   38       39.340455   0.000000
   39       39.464399   0.000000
   40       39.731805   0.000000
 
  0.1818182E+00  0.0000000E+00  0.0000000E+00  0.4507889E-02
    1       -0.440420   1.000000
    2        2.791177   1.000000
    3        2.954328   1.000000
    4        2.954328   1.000000
    5        3.720108   1.000000
    6        3.780526   1.000000
    7        3.780526   1.000000
    8        6.436267   1.000000
    9        6.955387   1.000000
   10        6.955387   1.000000
   11        8.444921   1.016113
   12        8.820847   0.397570
   13        8.820847   0.397570
   14        8.826036   0.376274
   15        9.682220  -0.000000
   16        9.682220  -0.000000
   17        9.939729  -0.000000
   18       10.024186  -0.000000
   19       10.024186  -0.000000
   20       10.435353  -0.000000
   21       10.435353  -0.000000
   22       10.909917  -0.000000
   23       14.557642   0.000000
   24       14.557642   0.000000
   25       22.445298   0.000000
   26       22.445298   0.000000
   27       24.725368   0.000000
   28       25.265782   0.000000
   29       25.265782   0.000000
   30       26.190697   0.000000
   31       26.190697   0.000000
   32       27.898046   0.000000
   33       27.898046   0.000000
   34       33.197321   0.000000
   35       33.418623   0.000000
   36       35.278184   0.000000
   37       35.278184   0.000000
   38       37.656884   0.000000
   39       38.515618   0.000000
   40       38.515619   0.000000
 
  0.2727273E+00  0.0000000E+00  0.0000000E+00  0.4507889E-02
    1        0.189257   1.000000
    2        2.924067   1.000000
    3        3.324555   1.000000
    4        3.324555   1.000000
    5        3.986770   1.000000
    6        4.130772   1.000000
    7        4.130772   1.000000
    8        6.094680   1.000000
    9        7.222256   1.000000
   10        7.222256   1.000000
   11        7.787848   1.000000
   12        7.787848   1.000000
   13        8.138430   1.000017
   14        8.944440   0.026932
   15        9.281546  -0.001605
   16        9.281546  -0.001605
   17        9.530836  -0.000001
   18        9.581883  -0.000000
   19        9.581883  -0.000000
   20        9.811023  -0.000000
   21       10.436018  -0.000000
   22       10.436018  -0.000000
   23       15.987233   0.000000
   24       15.987233   0.000000
   25       22.348166   0.000000
   26       22.348166   0.000000
   27       23.789419   0.000000
   28       23.789419   0.000000
   29       25.583271   0.000000
   30       25.583271   0.000000
   31       26.713110   0.000000
   32       28.937401   0.000000
   33       28.937401   0.000000
   34       33.161721   0.000000
   35       33.343282   0.000000
   36       35.921971   0.000000
   37       36.950240   0.000000
   38       36.950240   0.000000
   39       37.250177   0.000000
   40       37.250177   0.000000
 
  0.3636364E+00  0.0000000E+00  0.0000000E+00  0.4507889E-02
    1        0.991886   1.000000
    2        2.910717   1.000000
    3        3.720063   1.000000
    4        3.720063   1.000000
    5        4.339960   1.000000
    6        4.616471   1.000000
    7        4.616471   1.000000
    8        5.673416   1.000000
    9        6.829903   1.000000
   10        6.829903   1.000000
   11        7.585005   1.000000
   12        7.585005   1.000000
   13        7.808266   1.000000
   14        8.367305   1.004856
   15        8.853150   0.270401
   16        8.853150   0.270401
   17        9.065507  -0.033566
   18        9.065507  -0.033566
   19        9.098742  -0.027135
   20        9.647820  -0.000000
   21       10.436659  -0.000000
   22       10.436659  -0.000000
   23       17.496223   0.000000
   24       17.496223   0.000000
   25       22.224183   0.000000
   26       22.224183   0.000000
   27       22.247372   0.000000
   28       22.247372   0.000000
   29       25.126263   0.000000
   30       25.126263   0.000000
   31       28.796110   0.000000
   32       30.271862   0.000000
   33       30.271862   0.000000
   34       33.167559   0.000000
   35       33.277653   0.000000
   36       34.251778   0.000000
   37       35.257607   0.000000
   38       35.257607   0.000000
   39       39.540426   0.000000
   40       39.540426   0.000000
 
  0.4545455E+00  0.0000000E+00  0.0000000E+00  0.4507889E-02
    1        1.850393   1.000000
    2        2.559766   1.000000
    3        3.992474   1.000000
    4        3.992474   1.000000
    5        4.758578   1.000000
    6        5.214623   1.000000
    7        5.232929   1.000000
    8        5.232929   1.000000
    9        5.973746   1.000000
   10        5.973746   1.000000
   11        7.589650   1.000000
   12        7.704895   1.000000
   13        8.028704   1.000000
   14        8.028704   1.000000
   15        8.532874   1.034285
   16        8.532874   1.034285
   17        8.559109   1.035222
   18        8.559109   1.035222
   19        9.276362  -0.001792
   20        9.464455  -0.000012
   21       10.437042  -0.000000
   22       10.437042  -0.000000
   23       19.053372   0.000000
   24       19.053372   0.000000
   25       20.634833   0.000000
   26       20.634833   0.000000
   27       22.181862   0.000000
   28       22.181862   0.000000
   29       24.892164   0.000000
   30       24.892164   0.000000
   31       30.776687   0.000000
   32       31.822037   0.000000
   33       31.822037   0.000000
   34       32.574949   0.000000
   35       33.186664   0.000000
   36       33.222643   0.000000
   37       33.509050   0.000000
   38       33.509050   0.000000
   39       42.101581   0.000000
   40       42.106482   0.000000
 
  0.9090909E-01  0.9090909E-01  0.0000000E+00  0.9015778E-02
    1       -0.703803   1.000000
    2        2.752535   1.000000
    3        2.752535   1.000000
    4        2.787494   1.000000
    5        3.623801   1.000000
    6        3.623801   1.000000
    7        3.638266   1.000000
    8        6.614818   1.000000
    9        6.816852   1.000000
   10        6.840370   1.000000
   11        8.631373   0.996248
   12        8.732815   0.754709
   13        9.486538  -0.000006
   14        9.660665  -0.000000
   15        9.660665  -0.000000
   16        9.865174  -0.000000
   17        9.971365  -0.000000
   18        9.971365  -0.000000
   19       10.326397  -0.000000
   20       10.326397  -0.000000
   21       10.367735  -0.000000
   22       12.804615  -0.000000
   23       12.804615  -0.000000
   24       13.800806  -0.000000
   25       22.462418   0.000000
   26       23.149569   0.000000
   27       23.149569   0.000000
   28       25.356621   0.000000
   29       26.692348   0.000000
   30       26.692348   0.000000
   31       26.983554   0.000000
   32       26.983554   0.000000
   33       27.454131   0.000000
   34       33.407300   0.000000
   35       33.800479   0.000000
   36       33.800479   0.000000
   37       34.021445   0.000000
   38       37.899468   0.000000
   39       39.452835   0.000000
   40       40.034181   0.000000
 
  0.1818182E+00  0.9090909E-01  0.0000000E+00  0.1803156E-01
    1       -0.311598   1.000000
    2        2.884349   1.000000
    3        3.008796   1.000000
    4        3.032845   1.000000
    5        3.785352   1.000000
    6        3.831130   1.000000
    7        3.844198   1.000000
    8        6.415183   1.000000
    9        6.963543   1.000000
   10        6.980889   1.000000
   11        8.452867   1.017776
   12        8.646920   0.975400
   13        8.649623   0.971212
   14        8.802225   0.475530
   15        9.228292  -0.004622
   16        9.607857  -0.000000
   17        9.691209  -0.000000
   18        9.898773  -0.000000
   19       10.023102  -0.000000
   20       10.326161  -0.000000
   21       10.330479  -0.000000
   22       11.708523  -0.000000
   23       14.026970  -0.000000
   24       14.918885   0.000000
   25       22.250505   0.000000
   26       23.114227   0.000000
   27       24.125123   0.000000
   28       24.710790   0.000000
   29       25.462439   0.000000
   30       26.413136   0.000000
   31       27.308375   0.000000
   32       27.481701   0.000000
   33       27.649919   0.000000
   34       33.203780   0.000000
   35       33.854836   0.000000
   36       34.959451   0.000000
   37       35.332678   0.000000
   38       36.204722   0.000000
   39       38.642532   0.000000
   40       39.979449   0.000000
 
  0.2727273E+00  0.9090909E-01  0.0000000E+00  0.1803156E-01
    1        0.310668   1.000000
    2        3.021940   1.000000
    3        3.385134   1.000000
    4        3.395669   1.000000
    5        4.045277   1.000000
    6        4.174183   1.000000
    7        4.179996   1.000000
    8        6.089245   1.000000
    9        7.194368   1.000000
   10        7.225734   1.000000
   11        7.638695   1.000000
   12        7.702980   1.000000
   13        8.183189   1.000064
   14        8.578025   1.032232
   15        8.939391   0.035080
   16        9.227447  -0.004694
   17        9.295770  -0.001175
   18        9.580644  -0.000000
   19        9.705960  -0.000000
   20       10.321300  -0.000000
   21       10.325287  -0.000000
   22       10.603739  -0.000000
   23       15.358348   0.000000
   24       16.271655   0.000000
   25       21.633686   0.000000
   26       23.057937   0.000000
   27       23.323808   0.000000
   28       23.975693   0.000000
   29       25.827016   0.000000
   30       26.630764   0.000000
   31       26.916481   0.000000
   32       28.248731   0.000000
   33       28.747932   0.000000
   34       32.879613   0.000000
   35       33.974149   0.000000
   36       34.579784   0.000000
   37       36.664020   0.000000
   38       37.309413   0.000000
   39       37.473526   0.000000
   40       38.318370   0.000000
 
  0.3636364E+00  0.9090909E-01  0.0000000E+00  0.1803156E-01
    1        1.104218   1.000000
    2        3.012391   1.000000
    3        3.790089   1.000000
    4        3.792778   1.000000
    5        4.389157   1.000000
    6        4.632917   1.000000
    7        4.649203   1.000000
    8        5.682977   1.000000
    9        6.709743   1.000000
   10        6.794739   1.000000
   11        7.373782   1.000000
   12        7.586043   1.000000
   13        7.852173   1.000000
   14        8.007519   1.000000
   15        8.819949   0.401279
   16        8.868627   0.215488
   17        9.064116  -0.033761
   18        9.121432  -0.021916
   19        9.290548  -0.001319
   20        9.913057  -0.000000
   21       10.319943  -0.000000
   22       10.324202  -0.000000
   23       16.715452   0.000000
   24       17.736517   0.000000
   25       20.573631   0.000000
   26       22.411339   0.000000
   27       22.993908   0.000000
   28       23.028738   0.000000
   29       25.449523   0.000000
   30       26.209312   0.000000
   31       28.474252   0.000000
   32       29.387250   0.000000
   33       30.311108   0.000000
   34       32.395827   0.000000
   35       33.044933   0.000000
   36       34.161180   0.000000
   37       36.241586   0.000000
   38       36.363194   0.000000
   39       38.861491   0.000000
   40       39.610709   0.000000
 
  0.4545455E+00  0.9090909E-01  0.0000000E+00  0.1803156E-01
    1        1.955091   1.000000
    2        2.661924   1.000000
    3        4.072836   1.000000
    4        4.074122   1.000000
    5        4.796205   1.000000
    6        5.198514   1.000000
    7        5.238836   1.000000
    8        5.250540   1.000000
    9        5.890630   1.000000
   10        5.969962   1.000000
   11        7.326578   1.000000
   12        7.389897   1.000000
   13        8.028659   1.000000
   14        8.237512   1.000281
   15        8.531928   1.034172
   16        8.546647   1.035370
   17        8.565169   1.034668
   18        8.722057   0.791904
   19        9.336876  -0.000448
   20        9.582860  -0.000000
   21       10.321019  -0.000000
   22       10.322683  -0.000000
   23       18.055743   0.000000
   24       19.266289   0.000000
   25       19.351201   0.000000
   26       20.830858   0.000000
   27       22.942915   0.000000
   28       22.943961   0.000000
   29       25.385611   0.000000
   30       25.654071   0.000000
   31       30.087125   0.000000
   32       30.589163   0.000000
   33       31.573366   0.000000
   34       31.641783   0.000000
   35       32.255576   0.000000
   36       34.322515   0.000000
   37       34.544565   0.000000
   38       35.216582   0.000000
   39       41.371139   0.000000
   40       42.179702   0.000000
 
  0.1818182E+00  0.1818182E+00  0.0000000E+00  0.9015778E-02
    1        0.066598   1.000000
    2        3.150534   1.000000
    3        3.150534   1.000000
    4        3.257823   1.000000
    5        3.980183   1.000000
    6        3.980183   1.000000
    7        4.031503   1.000000
    8        6.298818   1.000000
    9        7.047992   1.000000
   10        7.053500   1.000000
   11        8.146367   1.000022
   12        8.217862   1.000168
   13        8.217862   1.000168
   14        8.387368   1.006886
   15        8.831163   0.355501
   16        9.391930  -0.000106
   17        9.649748  -0.000000
   18        9.649748  -0.000000
   19       10.021062  -0.000000
   20       10.021062  -0.000000
   21       10.168885  -0.000000
   22       12.862810  -0.000000
   23       12.862810  -0.000000
   24       15.826862   0.000000
   25       21.379747   0.000000
   26       23.374387   0.000000
   27       24.650705   0.000000
   28       24.650705   0.000000
   29       26.018073   0.000000
   30       26.018073   0.000000
   31       27.116178   0.000000
   32       27.116178   0.000000
   33       28.733000   0.000000
   34       32.657440   0.000000
   35       34.503498   0.000000
   36       34.696627   0.000000
   37       35.460926   0.000000
   38       35.460926   0.000000
   39       38.778666   0.000000
   40       41.422150   0.000000
 
  0.2727273E+00  0.1818182E+00  0.0000000E+00  0.1803156E-01
    1        0.666274   1.000000
    2        3.303042   1.000000
    3        3.545504   1.000000
    4        3.598507   1.000000
    5        4.219392   1.000000
    6        4.301657   1.000000
    7        4.325693   1.000000
    8        6.046781   1.000000
    9        7.142966   1.000000
   10        7.264890   1.000000
   11        7.267250   1.000000
   12        7.442752   1.000000
   13        7.654061   1.000000
   14        8.205407   1.000120
   15        9.008612  -0.030345
   16        9.065482  -0.033570
   17        9.277614  -0.001745
   18        9.481264  -0.000007
   19        9.577393  -0.000000
   20       10.017886  -0.000000
   21       10.074732  -0.000000
   22       11.650977  -0.000000
   23       14.046790  -0.000000
   24       17.032196   0.000000
   25       20.062881   0.000000
   26       23.237826   0.000000
   27       24.469466   0.000000
   28       24.505581   0.000000
   29       26.300458   0.000000
   30       26.699786   0.000000
   31       26.856159   0.000000
   32       28.455127   0.000000
   33       28.966064   0.000000
   34       31.906034   0.000000
   35       32.930237   0.000000
   36       35.536021   0.000000
   37       35.693097   0.000000
   38       37.489129   0.000000
   39       38.529730   0.000000
   40       39.965084   0.000000
 
  0.3636364E+00  0.1818182E+00  0.0000000E+00  0.1803156E-01
    1        1.431919   1.000000
    2        3.305067   1.000000
    3        3.980542   1.000000
    4        3.996963   1.000000
    5        4.534579   1.000000
    6        4.688524   1.000000
    7        4.744441   1.000000
    8        5.698960   1.000000
    9        6.408067   1.000000
   10        6.683019   1.000000
   11        7.133154   1.000000
   12        7.137182   1.000000
   13        7.605698   1.000000
   14        8.123704   1.000011
   15        8.712483   0.822918
   16        8.863148   0.234387
   17        9.061799  -0.034066
   18        9.156707  -0.014380
   19        9.281491  -0.001606
   20       10.014725  -0.000000
   21       10.032679  -0.000000
   22       10.699040  -0.000000
   23       15.221402   0.000000
   24       18.399469   0.000000
   25       18.761634   0.000000
   26       22.943289   0.000000
   27       23.301052   0.000000
   28       24.139773   0.000000
   29       26.668073   0.000000
   30       27.680862   0.000000
   31       27.870467   0.000000
   32       28.389321   0.000000
   33       30.466068   0.000000
   34       31.034980   0.000000
   35       31.497474   0.000000
   36       36.043994   0.000000
   37       37.443597   0.000000
   38       37.629278   0.000000
   39       37.914974   0.000000
   40       39.821060   0.000000
 
  0.4545455E+00  0.1818182E+00  0.0000000E+00  0.1803156E-01
    1        2.257731   1.000000
    2        2.955274   1.000000
    3        4.300388   1.000000
    4        4.309203   1.000000
    5        4.905380   1.000000
    6        5.107974   1.000000
    7        5.299887   1.000000
    8        5.304764   1.000000
    9        5.675427   1.000000
   10        5.954040   1.000000
   11        6.892532   1.000000
   12        6.974167   1.000000
   13        8.036650   1.000001
   14        8.326928   1.002227
   15        8.489468   1.026074
   16        8.533073   1.034308
   17        8.547192   1.035389
   18        8.723766   0.786157
   19        9.624493  -0.000000
   20       10.013248  -0.000000
   21       10.017027  -0.000000
   22       10.063583  -0.000000
   23       16.380254   0.000000
   24       17.545427   0.000000
   25       19.863733   0.000000
   26       21.385847   0.000000
   27       23.487210   0.000000
   28       23.776370   0.000000
   29       27.016778   0.000000
   30       27.639445   0.000000
   31       28.927322   0.000000
   32       28.969499   0.000000
   33       30.037200   0.000000
   34       30.176297   0.000000
   35       32.802797   0.000000
   36       35.220804   0.000000
   37       36.550487   0.000000
   38       37.195471   0.000000
   39       39.880965   0.000000
   40       42.423927   0.000000
 
  0.2727273E+00  0.2727273E+00  0.0000000E+00  0.9015778E-02
    1        1.228716   1.000000
    2        3.726394   1.000000
    3        3.726394   1.000000
    4        3.906588   1.000000
    5        4.504807   1.000000
    6        4.504807   1.000000
    7        4.551318   1.000000
    8        5.916830   1.000000
    9        6.810269   1.000000
   10        6.810269   1.000000
   11        7.017154   1.000000
   12        7.089498   1.000000
   13        7.410791   1.000000
   14        8.092301   1.000004
   15        8.809063   0.446703
   16        9.139492  -0.017887
   17        9.139492  -0.017887
   18        9.264430  -0.002297
   19        9.574370  -0.000000
   20        9.574370  -0.000000
   21        9.848050  -0.000000
   22       12.699316  -0.000000
   23       12.699316  -0.000000
   24       18.104090   0.000000
   25       18.497218   0.000000
   26       23.342294   0.000000
   27       25.309832   0.000000
   28       25.309832   0.000000
   29       25.686097   0.000000
   30       25.686097   0.000000
   31       28.447584   0.000000
   32       28.447584   0.000000
   33       30.647394   0.000000
   34       30.814991   0.000000
   35       31.411314   0.000000
   36       34.886958   0.000000
   37       37.799635   0.000000
   38       37.799635   0.000000
   39       39.429295   0.000000
   40       40.851328   0.000000
 
  0.3636364E+00  0.2727273E+00  0.0000000E+00  0.1803156E-01
    1        1.945249   1.000000
    2        3.747902   1.000000
    3        4.210539   1.000000
    4        4.289488   1.000000
    5        4.769326   1.000000
    6        4.796003   1.000000
    7        4.893204   1.000000
    8        5.687505   1.000000
    9        6.060642   1.000000
   10        6.469050   1.000000
   11        6.482028   1.000000
   12        6.959481   1.000000
   13        7.686135   1.000000
   14        8.012483   1.000000
   15        8.522182   1.032769
   16        8.749798   0.691529
   17        8.853357   0.269636
   18        9.064192  -0.033751
   19        9.575341  -0.000000
   20        9.658511  -0.000000
   21        9.701476  -0.000000
   22       11.585512  -0.000000
   23       13.739637  -0.000000
   24       17.105951   0.000000
   25       19.368098   0.000000
   26       23.558653   0.000000
   27       23.749008   0.000000
   28       24.984519   0.000000
   29       26.296332   0.000000
   30       26.709214   0.000000
   31       28.769245   0.000000
   32       29.683058   0.000000
   33       30.057439   0.000000
   34       30.775474   0.000000
   35       30.848885   0.000000
   36       35.976907   0.000000
   37       38.226370   0.000000
   38       38.558608   0.000000
   39       39.661105   0.000000
   40       40.167232   0.000000
 
  0.4545455E+00  0.2727273E+00  0.0000000E+00  0.1803156E-01
    1        2.722149   1.000000
    2        3.396834   1.000000
    3        4.610873   1.000000
    4        4.665639   1.000000
    5        4.988388   1.000000
    6        5.074516   1.000000
    7        5.370447   1.000000
    8        5.392554   1.000000
    9        5.421282   1.000000
   10        5.913000   1.000000
   11        6.447535   1.000000
   12        6.692235   1.000000
   13        8.076556   1.000002
   14        8.154646   1.000028
   15        8.349665   1.003497
   16        8.436253   1.014396
   17        8.480317   1.023963
   18        8.548689   1.035428
   19        9.587674  -0.000000
   20        9.623181  -0.000000
   21       10.147783  -0.000000
   22       10.760835  -0.000000
   23       14.787946   0.000000
   24       15.888144   0.000000
   25       20.755384   0.000000
   26       22.223428   0.000000
   27       23.894168   0.000000
   28       24.372921   0.000000
   29       27.389901   0.000000
   30       27.732819   0.000000
   31       28.534690   0.000000
   32       28.841565   0.000000
   33       29.356876   0.000000
   34       30.120597   0.000000
   35       33.321421   0.000000
   36       35.942354   0.000000
   37       38.303394   0.000000
   38       38.754173   0.000000
   39       39.310633   0.000000
   40       40.953357   0.000000
 
  0.3636364E+00  0.3636364E+00  0.0000000E+00  0.9015778E-02
    1        2.590493   1.000000
    2        4.259421   1.000000
    3        4.259421   1.000000
    4        4.605720   1.000000
    5        4.944694   1.000000
    6        5.080093   1.000000
    7        5.080093   1.000000
    8        5.614117   1.000000
    9        5.894921   1.000000
   10        5.894921   1.000000
   11        6.189537   1.000000
   12        6.775735   1.000000
   13        7.861451   1.000000
   14        7.873161   1.000000
   15        8.284359   1.000880
   16        8.495101   1.027352
   17        8.495101   1.027352
   18        9.081771  -0.030758
   19        9.081771  -0.030758
   20        9.423915  -0.000042
   21       10.174283  -0.000000
   22       12.496416  -0.000000
   23       12.496416  -0.000000
   24       15.682130   0.000000
   25       20.541538   0.000000
   26       23.901355   0.000000
   27       24.752519   0.000000
   28       24.752519   0.000000
   29       25.777874   0.000000
   30       25.777874   0.000000
   31       28.363379   0.000000
   32       28.773062   0.000000
   33       31.267219   0.000000
   34       31.267219   0.000000
   35       33.005525   0.000000
   36       35.091522   0.000000
   37       38.623915   0.000000
   38       40.632594   0.000000
   39       40.632594   0.000000
   40       40.818775   0.000000
 
  0.4545455E+00  0.3636364E+00  0.0000000E+00  0.1803156E-01
    1        3.284083   1.000000
    2        3.904095   1.000000
    3        4.696333   1.000000
    4        4.843217   1.000000
    5        5.095462   1.000000
    6        5.282665   1.000000
    7        5.424124   1.000000
    8        5.444630   1.000000
    9        5.471592   1.000000
   10        5.829227   1.000000
   11        6.096416   1.000000
   12        6.469632   1.000000
   13        7.903838   1.000000
   14        8.127638   1.000012
   15        8.163480   1.000036
   16        8.184277   1.000066
   17        8.204563   1.000117
   18        8.600451   1.022919
   19        9.131655  -0.019601
   20        9.237169  -0.003922
   21       10.787556  -0.000000
   22       11.533900  -0.000000
   23       13.444282  -0.000000
   24       14.481435   0.000000
   25       21.854019   0.000000
   26       23.263472   0.000000
   27       24.371308   0.000000
   28       24.994168   0.000000
   29       25.881257   0.000000
   30       26.653011   0.000000
   31       27.092170   0.000000
   32       27.643671   0.000000
   33       31.965927   0.000000
   34       32.819213   0.000000
   35       33.917120   0.000000
   36       36.569021   0.000000
   37       36.870124   0.000000
   38       39.619980   0.000000
   39       40.808425   0.000000
   40       41.144964   0.000000
 
  0.4545455E+00  0.4545455E+00  0.0000000E+00  0.9015778E-02
    1        3.856353   1.000000
    2        4.355883   1.000000
    3        4.355883   1.000000
    4        4.660528   1.000000
    5        5.496070   1.000000
    6        5.499304   1.000000
    7        5.499304   1.000000
    8        5.511580   1.000000
    9        5.689832   1.000000
   10        5.812216   1.000000
   11        5.812216   1.000000
   12        6.203145   1.000000
   13        7.788700   1.000000
   14        7.927862   1.000000
   15        7.929122   1.000000
   16        7.929122   1.000000
   17        8.393630   1.007638
   18        8.716815   0.809139
   19        8.716815   0.809139
   20        8.926064   0.059559
   21       11.514593  -0.000000
   22       12.372896  -0.000000
   23       12.372896  -0.000000
   24       13.329041  -0.000000
   25       23.097202   0.000000
   26       24.448080   0.000000
   27       24.448080   0.000000
   28       24.974202   0.000000
   29       25.728340   0.000000
   30       25.731041   0.000000
   31       25.731041   0.000000
   32       26.608821   0.000000
   33       34.674245   0.000000
   34       34.674245   0.000000
   35       35.631811   0.000000
   36       35.663148   0.000000
   37       36.825431   0.000000
   38       38.368504   0.000000
   39       38.555408   0.000000
   40       38.555408   0.000000
 
  0.9090909E-01  0.9090909E-01  0.9090909E-01  0.6010518E-02
    1       -0.572033   1.000000
    2        2.839273   1.000000
    3        2.839273   1.000000
    4        2.839273   1.000000
    5        3.691797   1.000000
    6        3.691797   1.000000
    7        3.691797   1.000000
    8        6.573837   1.000000
    9        6.860890   1.000000
   10        6.860890   1.000000
   11        8.665768   0.942523
   12        8.665768   0.942523
   13        9.336850  -0.000448
   14        9.336850  -0.000448
   15        9.336850  -0.000448
   16        9.780033  -0.000000
   17        9.780033  -0.000000
   18        9.780033  -0.000000
   19       10.327078  -0.000000
   20       10.327078  -0.000000
   21       10.327078  -0.000000