unknown system                          
           1
     3.263418    0.000000    0.000000
     0.000000    3.263418    0.000000
     0.000000    0.000000    3.263418
   Fe
     4
unknown system                          
           1
     3.263418    0.000000    0.000000
     0.000000    3.263418    0.000000
     0.000000    0.000000    3.263418
   Fe
     4
Direct configuration=     1
   0.00000000  0.00000000  0.00000000
   0.50000000  0.50000000  0.00000000
   0.50000000  0.00000000  0.50000000
   0.00000000  0.50000000  0.50000000
