unknown system                          
   1.00000000000000     
     3.635000    0.000000    0.000000
     0.000000    3.635000    0.000000
     0.000000    0.000000    3.635000
   Cu
     4
Direct
  0.000000  0.000000  0.000000
  0.500000  0.500000  0.000000
  0.500000  0.000000  0.500000
  0.000000  0.500000  0.500000
 
   32   32   32
  844.98      796.35      665.89      491.82      317.50      175.93      82.808      36.341      20.805      15.163    
  11.520      9.3138      8.0592      7.4254      7.0251      6.6552      6.4790      6.6552      7.0251      7.4254    
  8.0592      9.3138      11.520      15.163      20.805      36.341      82.808      175.93      317.50      491.82    
  665.89      796.35      796.35      750.33      626.84      462.14      297.45      164.21      77.256      34.489    
  20.406      14.965      11.452      9.3369      8.1410      7.5403      7.1647      6.8195      6.6552      6.8195    
  7.1647      7.5403      8.1410      9.3369      11.452      14.965      20.406      34.489      77.256      164.21    
  297.45      462.14      626.84      750.33      665.89      626.84      522.11      382.69      244.08      133.38    
  62.982      29.927      19.372      14.423      11.268      9.3928      8.3358      7.7986      7.4632      7.1647    
  7.0251      7.1647      7.4632      7.7986      8.3358      9.3928      11.268      14.423      19.372      29.927    
  62.982      133.38      244.08      382.69      522.11      626.84      491.82      462.14      382.69      277.54    
  174.37      94.204      45.776      24.886      17.915      13.671      11.037      9.4832      8.5924      8.1106    
  7.7986      7.5403      7.4254      7.5403      7.7986      8.1106      8.5924      9.4832      11.037      13.671    
  17.915      24.886      45.776      94.204      174.37      277.54      382.69      462.14      317.50      297.45    
  244.08      174.37      107.82      58.698      31.583      21.084      16.234      12.885      10.860      9.6758    
  8.9855      8.5924      8.3358      8.1410      8.0592      8.1410      8.3358      8.5924      8.9855      9.6758    
  10.860      12.885      16.234      21.084      31.583      58.698      107.82      174.37      244.08      297.45    
  175.93      164.21      133.38      94.204      58.698      34.775      23.247      18.241      14.619      12.239    
  10.854      10.084      9.6758      9.4832      9.3928      9.3369      9.3138      9.3369      9.3928      9.4832    
  9.6758      10.084      10.854      12.239      14.619      18.241      23.247      34.775      58.698      94.204    
  133.38      164.21      82.808      77.256      62.982      45.776      31.583      23.247      18.992      15.696    
  13.320      11.875      11.136      10.854      10.860      11.037      11.268      11.452      11.520      11.452    
  11.268      11.037      10.860      10.854      11.136      11.875      13.320      15.696      18.992      23.247    
  31.583      45.776      62.982      77.256      36.341      34.489      29.927      24.886      21.084      18.241    
  15.696      13.738      12.496      11.918      11.875      12.239      12.885      13.671      14.423      14.965    
  15.163      14.965      14.423      13.671      12.885      12.239      11.875      11.918      12.496      13.738    
  15.696      18.241      21.084      24.886      29.927      34.489      20.805      20.406      19.372      17.915    
  16.234      14.619      13.320      12.496      12.216      12.496      13.320      14.619      16.234      17.915    
  19.372      20.406      20.805      20.406      19.372      17.915      16.234      14.619      13.320      12.496    
  12.216      12.496      13.320      14.619      16.234      17.915      19.372      20.406      15.163      14.965    
  14.423      13.671      12.885      12.239      11.875      11.918      12.496      13.738      15.696      18.241    
  21.084      24.886      29.927      34.489      36.341      34.489      29.927      24.886      21.084      18.241    
  15.696      13.738      12.496      11.918      11.875      12.239      12.885      13.671      14.423      14.965    
  11.520      11.452      11.268      11.037      10.860      10.854      11.136      11.875      13.320      15.696    
  18.992      23.247      31.583      45.776      62.982      77.256      82.808      77.256      62.982      45.776    
  31.583      23.247      18.992      15.696      13.320      11.875      11.136      10.854      10.860      11.037    
  11.268      11.452      9.3138      9.3369      9.3928      9.4832      9.6758      10.084      10.854      12.239    
  14.619      18.241      23.247      34.775      58.698      94.204      133.38      164.21      175.93      164.21    
  133.38      94.204      58.698      34.775      23.247      18.241      14.619      12.239      10.854      10.084    
  9.6758      9.4832      9.3928      9.3369      8.0592      8.1410      8.3358      8.5924      8.9855      9.6758    
  10.860      12.885      16.234      21.084      31.583      58.698      107.82      174.37      244.08      297.45    
  317.50      297.45      244.08      174.37      107.82      58.698      31.583      21.084      16.234      12.885    
  10.860      9.6758      8.9855      8.5924      8.3358      8.1410      7.4254      7.5403      7.7986      8.1106    
  8.5924      9.4832      11.037      13.671      17.915      24.886      45.776      94.204      174.37      277.54    
  382.69      462.14      491.82      462.14      382.69      277.54      174.37      94.204      45.776      24.886    
  17.915      13.671      11.037      9.4832      8.5924      8.1106      7.7986      7.5403      7.0251      7.1647    
  7.4632      7.7986      8.3358      9.3928      11.268      14.423      19.372      29.927      62.982      133.38    
  244.08      382.69      522.11      626.84      665.89      626.84      522.11      382.69      244.08      133.38    
  62.982      29.927      19.372      14.423      11.268      9.3928      8.3358      7.7986      7.4632      7.1647    
  6.6552      6.8195      7.1647      7.5403      8.1410      9.3369      11.452      14.965      20.406      34.489    
  77.256      164.21      297.45      462.14      626.84      750.33      796.35      750.33      626.84      462.14    
  297.45      164.21      77.256      34.489      20.406      14.965      11.452      9.3369      8.1410      7.5403    
  7.1647      6.8195      6.4790      6.6552      7.0251      7.4254      8.0592      9.3138      11.520      15.163    
  20.805      36.341      82.808      175.93      317.50      491.82      665.89      796.35      844.98      796.35    
  665.89      491.82      317.50      175.93      82.808      36.341      20.805      15.163      11.520      9.3138    
  8.0592      7.4254      7.0251      6.6552      6.6552      6.8195      7.1647      7.5403      8.1410      9.3369    
  11.452      14.965      20.406      34.489      77.256      164.21      297.45      462.14      626.84      750.33    
  796.35      750.33      626.84      462.14      297.45      164.21      77.256      34.489      20.406      14.965    
  11.452      9.3369      8.1410      7.5403      7.1647      6.8195      7.0251      7.1647      7.4632      7.7986    
  8.3358      9.3928      11.268      14.423      19.372      29.927      62.982      133.38      244.08      382.69    
  522.11      626.84      665.89      626.84      522.11      382.69      244.08      133.38      62.982      29.927    
  19.372      14.423      11.268      9.3928      8.3358      7.7986      7.4632      7.1647      7.4254      7.5403    
  7.7986      8.1106      8.5924      9.4832      11.037      13.671      17.915      24.886      45.776      94.204    
  174.37      277.54      382.69      462.14      491.82      462.14      382.69      277.54      174.37      94.204    
  45.776      24.886      17.915      13.671      11.037      9.4832      8.5924      8.1106      7.7986      7.5403    
  8.0592      8.1410      8.3358      8.5924      8.9855      9.6758      10.860      12.885      16.234      21.084    
  31.583      58.698      107.82      174.37      244.08      297.45      317.50      297.45      244.08      174.37    
  107.82      58.698      31.583      21.084      16.234      12.885      10.860      9.6758      8.9855      8.5924    
  8.3358      8.1410      9.3138      9.3369      9.3928      9.4832      9.6758      10.084      10.854      12.239    
  14.619      18.241      23.247      34.775      58.698      94.204      133.38      164.21      175.93      164.21    
  133.38      94.204      58.698      34.775      23.247      18.241      14.619      12.239      10.854      10.084    
  9.6758      9.4832      9.3928      9.3369      11.520      11.452      11.268      11.037      10.860      10.854    
  11.136      11.875      13.320      15.696      18.992      23.247      31.583      45.776      62.982      77.256    
  82.808      77.256      62.982      45.776      31.583      23.247      18.992      15.696      13.320      11.875    
  11.136      10.854      10.860      11.037      11.268      11.452      15.163      14.965      14.423      13.671    
  12.885      12.239      11.875      11.918      12.496      13.738      15.696      18.241      21.084      24.886    
  29.927      34.489      36.341      34.489      29.927      24.886      21.084      18.241      15.696      13.738    
  12.496      11.918      11.875      12.239      12.885      13.671      14.423      14.965      20.805      20.406    
  19.372      17.915      16.234      14.619      13.320      12.496      12.216      12.496      13.320      14.619    
  16.234      17.915      19.372      20.406      20.805      20.406      19.372      17.915      16.234      14.619    
  13.320      12.496      12.216      12.496      13.320      14.619      16.234      17.915      19.372      20.406    
  36.341      34.489      29.927      24.886      21.084      18.241      15.696      13.738      12.496      11.918    
  11.875      12.239      12.885      13.671      14.423      14.965      15.163      14.965      14.423      13.671    
  12.885      12.239      11.875      11.918      12.496      13.738      15.696      18.241      21.084      24.886    
  29.927      34.489      82.808      77.256      62.982      45.776      31.583      23.247      18.992      15.696    
  13.320      11.875      11.136      10.854      10.860      11.037      11.268      11.452      11.520      11.452    
  11.268      11.037      10.860      10.854      11.136      11.875      13.320      15.696      18.992      23.247    
  31.583      45.776      62.982      77.256      175.93      164.21      133.38      94.204      58.698      34.775    
  23.247      18.241      14.619      12.239      10.854      10.084      9.6758      9.4832      9.3928      9.3369    
  9.3138      9.3369      9.3928      9.4832      9.6758      10.084      10.854      12.239      14.619      18.241    
  23.247      34.775      58.698      94.204      133.38      164.21      317.50      297.45      244.08      174.37    
  107.82      58.698      31.583      21.084      16.234      12.885      10.860      9.6758      8.9855      8.5924    
  8.3358      8.1410      8.0592      8.1410      8.3358      8.5924      8.9855      9.6758      10.860      12.885    
  16.234      21.084      31.583      58.698      107.82      174.37      244.08      297.45      491.82      462.14    
  382.69      277.54      174.37      94.204      45.776      24.886      17.915      13.671      11.037      9.4832    
  8.5924      8.1106      7.7986      7.5403      7.4254      7.5403      7.7986      8.1106      8.5924      9.4832    
  11.037      13.671      17.915      24.886      45.776      94.204      174.37      277.54      382.69      462.14    
  665.89      626.84      522.11      382.69      244.08      133.38      62.982      29.927      19.372      14.423    
  11.268      9.3928      8.3358      7.7986      7.4632      7.1647      7.0251      7.1647      7.4632      7.7986    
  8.3358      9.3928      11.268      14.423      19.372      29.927      62.982      133.38      244.08      382.69    
  522.11      626.84      796.35      750.33      626.84      462.14      297.45      164.21      77.256      34.489    
  20.406      14.965      11.452      9.3369      8.1410      7.5403      7.1647      6.8195      6.6552      6.8195    
  7.1647      7.5403      8.1410      9.3369      11.452      14.965      20.406      34.489      77.256      164.21    
  297.45      462.14      626.84      750.33      796.35      750.33      626.84      462.14      297.45      164.21    
  77.256      34.489      20.406      14.965      11.452      9.3369      8.1410      7.5403      7.1647      6.8195    
  6.6552      6.8195      7.1647      7.5403      8.1410      9.3369      11.452      14.965      20.406      34.489    
  77.256      164.21      297.45      462.14      626.84      750.33      750.33      706.76      589.88      434.09    
  278.56      153.23      72.113      32.808      20.035      14.773      11.385      9.3572      8.2168      7.6473    
  7.2947      6.9726      6.8195      6.9726      7.2947      7.6473      8.2168      9.3572      11.385      14.773    
  20.035      32.808      72.113      153.23      278.56      434.09      589.88      706.76      626.84      589.88    
  490.81      359.03      228.30      124.39      58.926      28.680      19.048      14.245      11.205      9.4069    
  8.3985      7.8885      7.5731      7.2947      7.1647      7.2947      7.5731      7.8885      8.3985      9.4069    
  11.205      14.245      19.048      28.680      58.926      124.39      228.30      359.03      490.81      589.88    
  462.14      434.09      359.03      259.83      162.81      87.875      43.117      24.137      17.621      13.514    
  10.979      9.4906      8.6405      8.1825      7.8885      7.6473      7.5403      7.6473      7.8885      8.1825    
  8.6405      9.4906      10.979      13.514      17.621      24.137      43.117      87.875      162.81      259.83    
  359.03      434.09      297.45      278.56      228.30      162.81      100.57      54.998      30.197      20.674    
  15.984      12.753      10.808      9.6734      9.0145      8.6405      8.3985      8.2168      8.1410      8.2168    
  8.3985      8.6405      9.0145      9.6734      10.808      12.753      15.984      20.674      30.197      54.998    
  100.57      162.81      228.30      278.56      164.21      153.23      124.39      87.875      54.998      33.096    
  22.671      17.923      14.419      12.129      10.800      10.063      9.6734      9.4906      9.4069      9.3572    
  9.3369      9.3572      9.4069      9.4906      9.6734      10.063      10.800      12.129      14.419      17.923    
  22.671      33.096      54.998      87.875      124.39      153.23      77.256      72.113      58.926      43.117    
  30.197      22.671      18.650      15.455      13.165      11.779      11.070      10.800      10.808      10.979    
  11.205      11.385      11.452      11.385      11.205      10.979      10.808      10.800      11.070      11.779    
  13.165      15.455      18.650      22.671      30.197      43.117      58.926      72.113      34.489      32.808    
  28.680      24.137      20.674      17.923      15.455      13.566      12.372      11.818      11.779      12.129    
  12.753      13.514      14.245      14.773      14.965      14.773      14.245      13.514      12.753      12.129    
  11.779      11.818      12.372      13.566      15.455      17.923      20.674      24.137      28.680      32.808    
  20.406      20.035      19.048      17.621      15.984      14.419      13.165      12.372      12.103      12.372    
  13.165      14.419      15.984      17.621      19.048      20.035      20.406      20.035      19.048      17.621    
  15.984      14.419      13.165      12.372      12.103      12.372      13.165      14.419      15.984      17.621    
  19.048      20.035      14.965      14.773      14.245      13.514      12.753      12.129      11.779      11.818    
  12.372      13.566      15.455      17.923      20.674      24.137      28.680      32.808      34.489      32.808    
  28.680      24.137      20.674      17.923      15.455      13.566      12.372      11.818      11.779      12.129    
  12.753      13.514      14.245      14.773      11.452      11.385      11.205      10.979      10.808      10.800    
  11.070      11.779      13.165      15.455      18.650      22.671      30.197      43.117      58.926      72.113    
  77.256      72.113      58.926      43.117      30.197      22.671      18.650      15.455      13.165      11.779    
  11.070      10.800      10.808      10.979      11.205      11.385      9.3369      9.3572      9.4069      9.4906    
  9.6734      10.063      10.800      12.129      14.419      17.923      22.671      33.096      54.998      87.875    
  124.39      153.23      164.21      153.23      124.39      87.875      54.998      33.096      22.671      17.923    
  14.419      12.129      10.800      10.063      9.6734      9.4906      9.4069      9.3572      8.1410      8.2168    
  8.3985      8.6405      9.0145      9.6734      10.808      12.753      15.984      20.674      30.197      54.998    
  100.57      162.81      228.30      278.56      297.45      278.56      228.30      162.81      100.57      54.998    
  30.197      20.674      15.984      12.753      10.808      9.6734      9.0145      8.6405      8.3985      8.2168    
  7.5403      7.6473      7.8885      8.1825      8.6405      9.4906      10.979      13.514      17.621      24.137    
  43.117      87.875      162.81      259.83      359.03      434.09      462.14      434.09      359.03      259.83    
  162.81      87.875      43.117      24.137      17.621      13.514      10.979      9.4906      8.6405      8.1825    
  7.8885      7.6473      7.1647      7.2947      7.5731      7.8885      8.3985      9.4069      11.205      14.245    
  19.048      28.680      58.926      124.39      228.30      359.03      490.81      589.88      626.84      589.88    
  490.81      359.03      228.30      124.39      58.926      28.680      19.048      14.245      11.205      9.4069    
  8.3985      7.8885      7.5731      7.2947      6.8195      6.9726      7.2947      7.6473      8.2168      9.3572    
  11.385      14.773      20.035      32.808      72.113      153.23      278.56      434.09      589.88      706.76    
  750.33      706.76      589.88      434.09      278.56      153.23      72.113      32.808      20.035      14.773    
  11.385      9.3572      8.2168      7.6473      7.2947      6.9726      6.6552      6.8195      7.1647      7.5403    
  8.1410      9.3369      11.452      14.965      20.406      34.489      77.256      164.21      297.45      462.14    
  626.84      750.33      796.35      750.33      626.84      462.14      297.45      164.21      77.256      34.489    
  20.406      14.965      11.452      9.3369      8.1410      7.5403      7.1647      6.8195      6.8195      6.9726    
  7.2947      7.6473      8.2168      9.3572      11.385      14.773      20.035      32.808      72.113      153.23    
  278.56      434.09      589.88      706.76      750.33      706.76      589.88      434.09      278.56      153.23    
  72.113      32.808      20.035      14.773      11.385      9.3572      8.2168      7.6473      7.2947      6.9726    
  7.1647      7.2947      7.5731      7.8885      8.3985      9.4069      11.205      14.245      19.048      28.680    
  58.926      124.39      228.30      359.03      490.81      589.88      626.84      589.88      490.81      359.03    
  228.30      124.39      58.926      28.680      19.048      14.245      11.205      9.4069      8.3985      7.8885    
  7.5731      7.2947      7.5403      7.6473      7.8885      8.1825      8.6405      9.4906      10.979      13.514    
  17.621      24.137      43.117      87.875      162.81      259.83      359.03      434.09      462.14      434.09    
  359.03      259.83      162.81      87.875      43.117      24.137      17.621      13.514      10.979      9.4906    
  8.6405      8.1825      7.8885      7.6473      8.1410      8.2168      8.3985      8.6405      9.0145      9.6734    
  10.808      12.753      15.984      20.674      30.197      54.998      100.57      162.81      228.30      278.56    
  297.45      278.56      228.30      162.81      100.57      54.998      30.197      20.674      15.984      12.753    
  10.808      9.6734      9.0145      8.6405      8.3985      8.2168      9.3369      9.3572      9.4069      9.4906    
  9.6734      10.063      10.800      12.129      14.419      17.923      22.671      33.096      54.998      87.875    
  124.39      153.23      164.21      153.23      124.39      87.875      54.998      33.096      22.671      17.923    
  14.419      12.129      10.800      10.063      9.6734      9.4906      9.4069      9.3572      11.452      11.385    
  11.205      10.979      10.808      10.800      11.070      11.779      13.165      15.455      18.650      22.671    
  30.197      43.117      58.926      72.113      77.256      72.113      58.926      43.117      30.197      22.671    
  18.650      15.455      13.165      11.779      11.070      10.800      10.808      10.979      11.205      11.385    
  14.965      14.773      14.245      13.514      12.753      12.129      11.779      11.818      12.372      13.566    
  15.455      17.923      20.674      24.137      28.680      32.808      34.489      32.808      28.680      24.137    
  20.674      17.923      15.455      13.566      12.372      11.818      11.779      12.129      12.753      13.514    
  14.245      14.773      20.406      20.035      19.048      17.621      15.984      14.419      13.165      12.372    
  12.103      12.372      13.165      14.419      15.984      17.621      19.048      20.035      20.406      20.035    
  19.048      17.621      15.984      14.419      13.165      12.372      12.103      12.372      13.165      14.419    
  15.984      17.621      19.048      20.035      34.489      32.808      28.680      24.137      20.674      17.923    
  15.455      13.566      12.372      11.818      11.779      12.129      12.753      13.514      14.245      14.773    
  14.965      14.773      14.245      13.514      12.753      12.129      11.779      11.818      12.372      13.566    
  15.455      17.923      20.674      24.137      28.680      32.808      77.256      72.113      58.926      43.117    
  30.197      22.671      18.650      15.455      13.165      11.779      11.070      10.800      10.808      10.979    
  11.205      11.385      11.452      11.385      11.205      10.979      10.808      10.800      11.070      11.779    
  13.165      15.455      18.650      22.671      30.197      43.117      58.926      72.113      164.21      153.23    
  124.39      87.875      54.998      33.096      22.671      17.923      14.419      12.129      10.800      10.063    
  9.6734      9.4906      9.4069      9.3572      9.3369      9.3572      9.4069      9.4906      9.6734      10.063    
  10.800      12.129      14.419      17.923      22.671      33.096      54.998      87.875      124.39      153.23    
  297.45      278.56      228.30      162.81      100.57      54.998      30.197      20.674      15.984      12.753    
  10.808      9.6734      9.0145      8.6405      8.3985      8.2168      8.1410      8.2168      8.3985      8.6405    
  9.0145      9.6734      10.808      12.753      15.984      20.674      30.197      54.998      100.57      162.81    
  228.30      278.56      462.14      434.09      359.03      259.83      162.81      87.875      43.117      24.137    
  17.621      13.514      10.979      9.4906      8.6405      8.1825      7.8885      7.6473      7.5403      7.6473    
  7.8885      8.1825      8.6405      9.4906      10.979      13.514      17.621      24.137      43.117      87.875    
  162.81      259.83      359.03      434.09      626.84      589.88      490.81      359.03      228.30      124.39    
  58.926      28.680      19.048      14.245      11.205      9.4069      8.3985      7.8885      7.5731      7.2947    
  7.1647      7.2947      7.5731      7.8885      8.3985      9.4069      11.205      14.245      19.048      28.680    
  58.926      124.39      228.30      359.03      490.81      589.88      750.33      706.76      589.88      434.09    
  278.56      153.23      72.113      32.808      20.035      14.773      11.385      9.3572      8.2168      7.6473    
  7.2947      6.9726      6.8195      6.9726      7.2947      7.6473      8.2168      9.3572      11.385      14.773    
  20.035      32.808      72.113      153.23      278.56      434.09      589.88      706.76      665.89      626.84    
  522.11      382.69      244.08      133.38      62.982      29.927      19.372      14.423      11.268      9.3928    
  8.3358      7.7986      7.4632      7.1647      7.0251      7.1647      7.4632      7.7986      8.3358      9.3928    
  11.268      14.423      19.372      29.927      62.982      133.38      244.08      382.69      522.11      626.84    
  626.84      589.88      490.81      359.03      228.30      124.39      58.926      28.680      19.048      14.245    
  11.205      9.4069      8.3985      7.8885      7.5731      7.2947      7.1647      7.2947      7.5731      7.8885    
  8.3985      9.4069      11.205      14.245      19.048      28.680      58.926      124.39      228.30      359.03    
  490.81      589.88      522.11      490.81      406.98      295.86      186.46      100.90      48.607      25.641    
  18.135      13.757      11.036      9.4437      8.5520      8.0952      7.8132      7.5731      7.4632      7.5731    
  7.8132      8.0952      8.5520      9.4437      11.036      13.757      18.135      25.641      48.607      100.90    
  186.46      295.86      406.98      490.81      382.69      359.03      295.86      212.77      132.35      71.498    
  36.453      22.306      16.802      13.087      10.828      9.5135      8.7637      8.3557      8.0952      7.8885    
  7.7986      7.8885      8.0952      8.3557      8.7637      9.5135      10.828      13.087      16.802      22.306    
  36.453      71.498      132.35      212.77      295.86      359.03      244.08      228.30      186.46      132.35    
  81.696      45.597      26.794      19.571      15.292      12.395      10.672      9.6735      9.0944      8.7637    
  8.5520      8.3985      8.3358      8.3985      8.5520      8.7637      9.0944      9.6735      10.672      12.395    
  15.292      19.571      26.794      45.597      81.696      132.35      186.46      228.30      133.38      124.39    
  100.90      71.498      45.597      28.946      21.217      17.032      13.869      11.833      10.661      10.015    
  9.6735      9.5135      9.4437      9.4069      9.3928      9.4069      9.4437      9.5135      9.6735      10.015    
  10.661      11.833      13.869      17.032      21.217      28.946      45.597      71.498      100.90      124.39    
  62.982      58.926      48.607      36.453      26.794      21.217      17.686      14.783      12.741      11.516    
  10.895      10.661      10.672      10.828      11.036      11.205      11.268      11.205      11.036      10.828    
  10.672      10.661      10.895      11.516      12.741      14.783      17.686      21.217      26.794      36.453    
  48.607      58.926      29.927      28.680      25.641      22.306      19.571      17.032      14.783      13.091    
  12.033      11.547      11.516      11.833      12.395      13.087      13.757      14.245      14.423      14.245    
  13.757      13.087      12.395      11.833      11.516      11.547      12.033      13.091      14.783      17.032    
  19.571      22.306      25.641      28.680      19.372      19.048      18.135      16.802      15.292      13.869    
  12.741      12.033      11.794      12.033      12.741      13.869      15.292      16.802      18.135      19.048    
  19.372      19.048      18.135      16.802      15.292      13.869      12.741      12.033      11.794      12.033    
  12.741      13.869      15.292      16.802      18.135      19.048      14.423      14.245      13.757      13.087    
  12.395      11.833      11.516      11.547      12.033      13.091      14.783      17.032      19.571      22.306    
  25.641      28.680      29.927      28.680      25.641      22.306      19.571      17.032      14.783      13.091    
  12.033      11.547      11.516      11.833      12.395      13.087      13.757      14.245      11.268      11.205    
  11.036      10.828      10.672      10.661      10.895      11.516      12.741      14.783      17.686      21.217    
  26.794      36.453      48.607      58.926      62.982      58.926      48.607      36.453      26.794      21.217    
  17.686      14.783      12.741      11.516      10.895      10.661      10.672      10.828      11.036      11.205    
  9.3928      9.4069      9.4437      9.5135      9.6735      10.015      10.661      11.833      13.869      17.032    
  21.217      28.946      45.597      71.498      100.90      124.39      133.38      124.39      100.90      71.498    
  45.597      28.946      21.217      17.032      13.869      11.833      10.661      10.015      9.6735      9.5135    
  9.4437      9.4069      8.3358      8.3985      8.5520      8.7637      9.0944      9.6735      10.672      12.395    
  15.292      19.571      26.794      45.597      81.696      132.35      186.46      228.30      244.08      228.30    