unknown system                          
   1.00000000000000     
     3.635000    0.000000    0.000000
     0.000000    3.635000    0.000000
     0.000000    0.000000    3.635000
   Cu
     4
Direct
  0.000000  0.000000  0.000000
  0.500000  0.500000  0.000000
  0.500000  0.000000  0.500000
  0.000000  0.500000  0.500000
 
   32   32   32
 0.84497914044E+03 0.79635278544E+03 0.66588564030E+03 0.49181941067E+03 0.31750147335E+03
 0.17592909939E+03 0.82808404306E+02 0.36340772151E+02 0.20804949793E+02 0.15162763639E+02
 0.11520314476E+02 0.93137763942E+01 0.80592331795E+01 0.74253585706E+01 0.70251321333E+01
 0.66551735686E+01 0.64789689593E+01 0.66551735686E+01 0.70251321333E+01 0.74253585706E+01
 0.80592331795E+01 0.93137763942E+01 0.11520314476E+02 0.15162763639E+02 0.20804949793E+02
 0.36340772151E+02 0.82808404306E+02 0.17592909939E+03 0.31750147335E+03 0.49181941067E+03
 0.66588564030E+03 0.79635278544E+03 0.79635278544E+03 0.75032590226E+03 0.62683515593E+03
 0.46213980596E+03 0.29745337237E+03 0.16421111077E+03 0.77255911993E+02 0.34488594955E+02
 0.20406361788E+02 0.14965473524E+02 0.11451918230E+02 0.93368970889E+01 0.81409786424E+01
 0.75402949456E+01 0.71647298894E+01 0.68194797227E+01 0.66551735686E+01 0.68194797227E+01
 0.71647298894E+01 0.75402949456E+01 0.81409786424E+01 0.93368970889E+01 0.11451918230E+02
 0.14965473524E+02 0.20406361788E+02 0.34488594955E+02 0.77255911993E+02 0.16421111077E+03
 0.29745337237E+03 0.46213980596E+03 0.62683515593E+03 0.75032590226E+03 0.66588564030E+03
 0.62683515593E+03 0.52210500773E+03 0.38269438035E+03 0.24407659896E+03 0.13337807552E+03
 0.62982109641E+02 0.29926570642E+02 0.19372479626E+02 0.14423485273E+02 0.11268354390E+02
 0.93928115657E+01 0.83357718293E+01 0.77986092739E+01 0.74631505217E+01 0.71647298894E+01
 0.70251321333E+01 0.71647298894E+01 0.74631505217E+01 0.77986092739E+01 0.83357718293E+01
 0.93928115657E+01 0.11268354390E+02 0.14423485273E+02 0.19372479626E+02 0.29926570642E+02
 0.62982109641E+02 0.13337807552E+03 0.24407659896E+03 0.38269438035E+03 0.52210500773E+03
 0.62683515593E+03 0.49181941067E+03 0.46213980596E+03 0.38269438035E+03 0.27754099950E+03
 0.17437083917E+03 0.94204086350E+02 0.45776118196E+02 0.24885684044E+02 0.17914570453E+02
 0.13670886030E+02 0.11036645199E+02 0.94832061193E+01 0.85924124507E+01 0.81106248504E+01
 0.77986092739E+01 0.75402949456E+01 0.74253585706E+01 0.75402949456E+01 0.77986092739E+01
 0.81106248504E+01 0.85924124507E+01 0.94832061193E+01 0.11036645199E+02 0.13670886030E+02
 0.17914570453E+02 0.24885684044E+02 0.45776118196E+02 0.94204086350E+02 0.17437083917E+03
 0.27754099950E+03 0.38269438035E+03 0.46213980596E+03 0.31750147335E+03 0.29745337237E+03
 0.24407659896E+03 0.17437083917E+03 0.10782405597E+03 0.58698195921E+02 0.31582664242E+02
 0.21084456629E+02 0.16234157984E+02 0.12885020454E+02 0.10860492588E+02 0.96757644346E+01
 0.89854630711E+01 0.85924124507E+01 0.83357718293E+01 0.81409786424E+01 0.80592331795E+01
 0.81409786424E+01 0.83357718293E+01 0.85924124507E+01 0.89854630711E+01 0.96757644346E+01
 0.10860492588E+02 0.12885020454E+02 0.16234157984E+02 0.21084456629E+02 0.31582664242E+02
 0.58698195921E+02 0.10782405597E+03 0.17437083917E+03 0.24407659896E+03 0.29745337237E+03
 0.17592909939E+03 0.16421111077E+03 0.13337807552E+03 0.94204086350E+02 0.58698195921E+02
 0.34775081135E+02 0.23247194692E+02 0.18241227107E+02 0.14619218629E+02 0.12238993459E+02
 0.10853797209E+02 0.10083971906E+02 0.96757644346E+01 0.94832061193E+01 0.93928115657E+01
 0.93368970889E+01 0.93137763942E+01 0.93368970889E+01 0.93928115657E+01 0.94832061193E+01
 0.96757644346E+01 0.10083971906E+02 0.10853797209E+02 0.12238993459E+02 0.14619218629E+02
 0.18241227107E+02 0.23247194692E+02 0.34775081135E+02 0.58698195921E+02 0.94204086350E+02
 0.13337807552E+03 0.16421111077E+03 0.82808404306E+02 0.77255911993E+02 0.62982109641E+02
 0.45776118196E+02 0.31582664242E+02 0.23247194692E+02 0.18991968714E+02 0.15696427476E+02
 0.13320005215E+02 0.11875478667E+02 0.11135788992E+02 0.10853797209E+02 0.10860492588E+02
 0.11036645199E+02 0.11268354390E+02 0.11451918230E+02 0.11520314476E+02 0.11451918230E+02
 0.11268354390E+02 0.11036645199E+02 0.10860492588E+02 0.10853797209E+02 0.11135788992E+02
 0.11875478667E+02 0.13320005215E+02 0.15696427476E+02 0.18991968714E+02 0.23247194692E+02
 0.31582664242E+02 0.45776118196E+02 0.62982109641E+02 0.77255911993E+02 0.36340772151E+02
 0.34488594955E+02 0.29926570642E+02 0.24885684044E+02 0.21084456629E+02 0.18241227107E+02
 0.15696427476E+02 0.13738334761E+02 0.12495685959E+02 0.11917594687E+02 0.11875478667E+02
 0.12238993459E+02 0.12885020454E+02 0.13670886030E+02 0.14423485273E+02 0.14965473524E+02
 0.15162763639E+02 0.14965473524E+02 0.14423485273E+02 0.13670886030E+02 0.12885020454E+02
 0.12238993459E+02 0.11875478667E+02 0.11917594687E+02 0.12495685959E+02 0.13738334761E+02
 0.15696427476E+02 0.18241227107E+02 0.21084456629E+02 0.24885684044E+02 0.29926570642E+02
 0.34488594955E+02 0.20804949793E+02 0.20406361788E+02 0.19372479626E+02 0.17914570453E+02
 0.16234157984E+02 0.14619218629E+02 0.13320005215E+02 0.12495685959E+02 0.12215568203E+02
 0.12495685959E+02 0.13320005215E+02 0.14619218629E+02 0.16234157984E+02 0.17914570453E+02
 0.19372479626E+02 0.20406361788E+02 0.20804949793E+02 0.20406361788E+02 0.19372479626E+02
 0.17914570453E+02 0.16234157984E+02 0.14619218629E+02 0.13320005215E+02 0.12495685959E+02
 0.12215568203E+02 0.12495685959E+02 0.13320005215E+02 0.14619218629E+02 0.16234157984E+02
 0.17914570453E+02 0.19372479626E+02 0.20406361788E+02 0.15162763639E+02 0.14965473524E+02
 0.14423485273E+02 0.13670886030E+02 0.12885020454E+02 0.12238993459E+02 0.11875478667E+02
 0.11917594687E+02 0.12495685959E+02 0.13738334761E+02 0.15696427476E+02 0.18241227107E+02
 0.21084456629E+02 0.24885684044E+02 0.29926570642E+02 0.34488594955E+02 0.36340772151E+02
 0.34488594955E+02 0.29926570642E+02 0.24885684044E+02 0.21084456629E+02 0.18241227107E+02
 0.15696427476E+02 0.13738334761E+02 0.12495685959E+02 0.11917594687E+02 0.11875478667E+02
 0.12238993459E+02 0.12885020454E+02 0.13670886030E+02 0.14423485273E+02 0.14965473524E+02
 0.11520314476E+02 0.11451918230E+02 0.11268354390E+02 0.11036645199E+02 0.10860492588E+02
 0.10853797209E+02 0.11135788992E+02 0.11875478667E+02 0.13320005215E+02 0.15696427476E+02
 0.18991968714E+02 0.23247194692E+02 0.31582664242E+02 0.45776118196E+02 0.62982109641E+02
 0.77255911993E+02 0.82808404306E+02 0.77255911993E+02 0.62982109641E+02 0.45776118196E+02
 0.31582664242E+02 0.23247194692E+02 0.18991968714E+02 0.15696427476E+02 0.13320005215E+02
 0.11875478667E+02 0.11135788992E+02 0.10853797209E+02 0.10860492588E+02 0.11036645199E+02
 0.11268354390E+02 0.11451918230E+02 0.93137763942E+01 0.93368970889E+01 0.93928115657E+01
 0.94832061193E+01 0.96757644346E+01 0.10083971906E+02 0.10853797209E+02 0.12238993459E+02
 0.14619218629E+02 0.18241227107E+02 0.23247194692E+02 0.34775081135E+02 0.58698195921E+02
 0.94204086350E+02 0.13337807552E+03 0.16421111077E+03 0.17592909939E+03 0.16421111077E+03
 0.13337807552E+03 0.94204086350E+02 0.58698195921E+02 0.34775081135E+02 0.23247194692E+02
 0.18241227107E+02 0.14619218629E+02 0.12238993459E+02 0.10853797209E+02 0.10083971906E+02
 0.96757644346E+01 0.94832061193E+01 0.93928115657E+01 0.93368970889E+01 0.80592331795E+01
 0.81409786424E+01 0.83357718293E+01 0.85924124507E+01 0.89854630711E+01 0.96757644346E+01
 0.10860492588E+02 0.12885020454E+02 0.16234157984E+02 0.21084456629E+02 0.31582664242E+02
 0.58698195921E+02 0.10782405597E+03 0.17437083917E+03 0.24407659896E+03 0.29745337237E+03
 0.31750147335E+03 0.29745337237E+03 0.24407659896E+03 0.17437083917E+03 0.10782405597E+03
 0.58698195921E+02 0.31582664242E+02 0.21084456629E+02 0.16234157984E+02 0.12885020454E+02
 0.10860492588E+02 0.96757644346E+01 0.89854630711E+01 0.85924124507E+01 0.83357718293E+01
 0.81409786424E+01 0.74253585706E+01 0.75402949456E+01 0.77986092739E+01 0.81106248504E+01
 0.85924124507E+01 0.94832061193E+01 0.11036645199E+02 0.13670886030E+02 0.17914570453E+02
 0.24885684044E+02 0.45776118196E+02 0.94204086350E+02 0.17437083917E+03 0.27754099950E+03
 0.38269438035E+03 0.46213980596E+03 0.49181941067E+03 0.46213980596E+03 0.38269438035E+03
 0.27754099950E+03 0.17437083917E+03 0.94204086350E+02 0.45776118196E+02 0.24885684044E+02
 0.17914570453E+02 0.13670886030E+02 0.11036645199E+02 0.94832061193E+01 0.85924124507E+01
 0.81106248504E+01 0.77986092739E+01 0.75402949456E+01 0.70251321333E+01 0.71647298894E+01
 0.74631505217E+01 0.77986092739E+01 0.83357718293E+01 0.93928115657E+01 0.11268354390E+02
 0.14423485273E+02 0.19372479626E+02 0.29926570642E+02 0.62982109641E+02 0.13337807552E+03
 0.24407659896E+03 0.38269438035E+03 0.52210500773E+03 0.62683515593E+03 0.66588564030E+03
 0.62683515593E+03 0.52210500773E+03 0.38269438035E+03 0.24407659896E+03 0.13337807552E+03
 0.62982109641E+02 0.29926570642E+02 0.19372479626E+02 0.14423485273E+02 0.11268354390E+02
 0.93928115657E+01 0.83357718293E+01 0.77986092739E+01 0.74631505217E+01 0.71647298894E+01
 0.66551735686E+01 0.68194797227E+01 0.71647298894E+01 0.75402949456E+01 0.81409786424E+01
 0.93368970889E+01 0.11451918230E+02 0.14965473524E+02 0.20406361788E+02 0.34488594955E+02
 0.77255911993E+02 0.16421111077E+03 0.29745337237E+03 0.46213980596E+03 0.62683515593E+03
 0.75032590226E+03 0.79635278544E+03 0.75032590226E+03 0.62683515593E+03 0.46213980596E+03
 0.29745337237E+03 0.16421111077E+03 0.77255911993E+02 0.34488594955E+02 0.20406361788E+02
 0.14965473524E+02 0.11451918230E+02 0.93368970889E+01 0.81409786424E+01 0.75402949456E+01
 0.71647298894E+01 0.68194797227E+01 0.64789689593E+01 0.66551735686E+01 0.70251321333E+01
 0.74253585706E+01 0.80592331795E+01 0.93137763942E+01 0.11520314476E+02 0.15162763639E+02
 0.20804949793E+02 0.36340772151E+02 0.82808404306E+02 0.17592909939E+03 0.31750147335E+03
 0.49181941067E+03 0.66588564030E+03 0.79635278544E+03 0.84497914044E+03 0.79635278544E+03
 0.66588564030E+03 0.49181941067E+03 0.31750147335E+03 0.17592909939E+03 0.82808404306E+02
 0.36340772151E+02 0.20804949793E+02 0.15162763639E+02 0.11520314476E+02 0.93137763942E+01
 0.80592331795E+01 0.74253585706E+01 0.70251321333E+01 0.66551735686E+01 0.66551735686E+01
 0.68194797227E+01 0.71647298894E+01 0.75402949456E+01 0.81409786424E+01 0.93368970889E+01
 0.11451918230E+02 0.14965473524E+02 0.20406361788E+02 0.34488594955E+02 0.77255911993E+02
 0.16421111077E+03 0.29745337237E+03 0.46213980596E+03 0.62683515593E+03 0.75032590226E+03
 0.79635278544E+03 0.75032590226E+03 0.62683515593E+03 0.46213980596E+03 0.29745337237E+03
 0.16421111077E+03 0.77255911993E+02 0.34488594955E+02 0.20406361788E+02 0.14965473524E+02
 0.11451918230E+02 0.93368970889E+01 0.81409786424E+01 0.75402949456E+01 0.71647298894E+01
 0.68194797227E+01 0.70251321333E+01 0.71647298894E+01 0.74631505217E+01 0.77986092739E+01
 0.83357718293E+01 0.93928115657E+01 0.11268354390E+02 0.14423485273E+02 0.19372479626E+02
 0.29926570642E+02 0.62982109641E+02 0.13337807552E+03 0.24407659896E+03 0.38269438035E+03
 0.52210500773E+03 0.62683515593E+03 0.66588564030E+03 0.62683515593E+03 0.52210500773E+03
 0.38269438035E+03 0.24407659896E+03 0.13337807552E+03 0.62982109641E+02 0.29926570642E+02
 0.19372479626E+02 0.14423485273E+02 0.11268354390E+02 0.93928115657E+01 0.83357718293E+01
 0.77986092739E+01 0.74631505217E+01 0.71647298894E+01 0.74253585706E+01 0.75402949456E+01
 0.77986092739E+01 0.81106248504E+01 0.85924124507E+01 0.94832061193E+01 0.11036645199E+02
 0.13670886030E+02 0.17914570453E+02 0.24885684044E+02 0.45776118196E+02 0.94204086350E+02
 0.17437083917E+03 0.27754099950E+03 0.38269438035E+03 0.46213980596E+03 0.49181941067E+03
 0.46213980596E+03 0.38269438035E+03 0.27754099950E+03 0.17437083917E+03 0.94204086350E+02
 0.45776118196E+02 0.24885684044E+02 0.17914570453E+02 0.13670886030E+02 0.11036645199E+02
 0.94832061193E+01 0.85924124507E+01 0.81106248504E+01 0.77986092739E+01 0.75402949456E+01
 0.80592331795E+01 0.81409786424E+01 0.83357718293E+01 0.85924124507E+01 0.89854630711E+01
 0.96757644346E+01 0.10860492588E+02 0.12885020454E+02 0.16234157984E+02 0.21084456629E+02
 0.31582664242E+02 0.58698195921E+02 0.10782405597E+03 0.17437083917E+03 0.24407659896E+03
 0.29745337237E+03 0.31750147335E+03 0.29745337237E+03 0.24407659896E+03 0.17437083917E+03
 0.10782405597E+03 0.58698195921E+02 0.31582664242E+02 0.21084456629E+02 0.16234157984E+02
 0.12885020454E+02 0.10860492588E+02 0.96757644346E+01 0.89854630711E+01 0.85924124507E+01
 0.83357718293E+01 0.81409786424E+01 0.93137763942E+01 0.93368970889E+01 0.93928115657E+01
 0.94832061193E+01 0.96757644346E+01 0.10083971906E+02 0.10853797209E+02 0.12238993459E+02
 0.14619218629E+02 0.18241227107E+02 0.23247194692E+02 0.34775081135E+02 0.58698195921E+02
 0.94204086350E+02 0.13337807552E+03 0.16421111077E+03 0.17592909939E+03 0.16421111077E+03
 0.13337807552E+03 0.94204086350E+02 0.58698195921E+02 0.34775081135E+02 0.23247194692E+02
 0.18241227107E+02 0.14619218629E+02 0.12238993459E+02 0.10853797209E+02 0.10083971906E+02
 0.96757644346E+01 0.94832061193E+01 0.93928115657E+01 0.93368970889E+01 0.11520314476E+02
 0.11451918230E+02 0.11268354390E+02 0.11036645199E+02 0.10860492588E+02 0.10853797209E+02
 0.11135788992E+02 0.11875478667E+02 0.13320005215E+02 0.15696427476E+02 0.18991968714E+02
 0.23247194692E+02 0.31582664242E+02 0.45776118196E+02 0.62982109641E+02 0.77255911993E+02
 0.82808404306E+02 0.77255911993E+02 0.62982109641E+02 0.45776118196E+02 0.31582664242E+02
 0.23247194692E+02 0.18991968714E+02 0.15696427476E+02 0.13320005215E+02 0.11875478667E+02
 0.11135788992E+02 0.10853797209E+02 0.10860492588E+02 0.11036645199E+02 0.11268354390E+02
 0.11451918230E+02 0.15162763639E+02 0.14965473524E+02 0.14423485273E+02 0.13670886030E+02
 0.12885020454E+02 0.12238993459E+02 0.11875478667E+02 0.11917594687E+02 0.12495685959E+02
 0.13738334761E+02 0.15696427476E+02 0.18241227107E+02 0.21084456629E+02 0.24885684044E+02
 0.29926570642E+02 0.34488594955E+02 0.36340772151E+02 0.34488594955E+02 0.29926570642E+02
 0.24885684044E+02 0.21084456629E+02 0.18241227107E+02 0.15696427476E+02 0.13738334761E+02
 0.12495685959E+02 0.11917594687E+02 0.11875478667E+02 0.12238993459E+02 0.12885020454E+02
 0.13670886030E+02 0.14423485273E+02 0.14965473524E+02 0.20804949793E+02 0.20406361788E+02
 0.19372479626E+02 0.17914570453E+02 0.16234157984E+02 0.14619218629E+02 0.13320005215E+02
 0.12495685959E+02 0.12215568203E+02 0.12495685959E+02 0.13320005215E+02 0.14619218629E+02
 0.16234157984E+02 0.17914570453E+02 0.19372479626E+02 0.20406361788E+02 0.20804949793E+02
 0.20406361788E+02 0.19372479626E+02 0.17914570453E+02 0.16234157984E+02 0.14619218629E+02
 0.13320005215E+02 0.12495685959E+02 0.12215568203E+02 0.12495685959E+02 0.13320005215E+02
 0.14619218629E+02 0.16234157984E+02 0.17914570453E+02 0.19372479626E+02 0.20406361788E+02
 0.36340772151E+02 0.34488594955E+02 0.29926570642E+02 0.24885684044E+02 0.21084456629E+02
 0.18241227107E+02 0.15696427476E+02 0.13738334761E+02 0.12495685959E+02 0.11917594687E+02
 0.11875478667E+02 0.12238993459E+02 0.12885020454E+02 0.13670886030E+02 0.14423485273E+02
 0.14965473524E+02 0.15162763639E+02 0.14965473524E+02 0.14423485273E+02 0.13670886030E+02
 0.12885020454E+02 0.12238993459E+02 0.11875478667E+02 0.11917594687E+02 0.12495685959E+02
 0.13738334761E+02 0.15696427476E+02 0.18241227107E+02 0.21084456629E+02 0.24885684044E+02
 0.29926570642E+02 0.34488594955E+02 0.82808404306E+02 0.77255911993E+02 0.62982109641E+02
 0.45776118196E+02 0.31582664242E+02 0.23247194692E+02 0.18991968714E+02 0.15696427476E+02
 0.13320005215E+02 0.11875478667E+02 0.11135788992E+02 0.10853797209E+02 0.10860492588E+02
 0.11036645199E+02 0.11268354390E+02 0.11451918230E+02 0.11520314476E+02 0.11451918230E+02
 0.11268354390E+02 0.11036645199E+02 0.10860492588E+02 0.10853797209E+02 0.11135788992E+02
 0.11875478667E+02 0.13320005215E+02 0.15696427476E+02 0.18991968714E+02 0.23247194692E+02
 0.31582664242E+02 0.45776118196E+02 0.62982109641E+02 0.77255911993E+02 0.17592909939E+03
 0.16421111077E+03 0.13337807552E+03 0.94204086350E+02 0.58698195921E+02 0.34775081135E+02
 0.23247194692E+02 0.18241227107E+02 0.14619218629E+02 0.12238993459E+02 0.10853797209E+02
 0.10083971906E+02 0.96757644346E+01 0.94832061193E+01 0.93928115657E+01 0.93368970889E+01
 0.93137763942E+01 0.93368970889E+01 0.93928115657E+01 0.94832061193E+01 0.96757644346E+01
 0.10083971906E+02 0.10853797209E+02 0.12238993459E+02 0.14619218629E+02 0.18241227107E+02
 0.23247194692E+02 0.34775081135E+02 0.58698195921E+02 0.94204086350E+02 0.13337807552E+03
 0.16421111077E+03 0.31750147335E+03 0.29745337237E+03 0.24407659896E+03 0.17437083917E+03
 0.10782405597E+03 0.58698195921E+02 0.31582664242E+02 0.21084456629E+02 0.16234157984E+02
 0.12885020454E+02 0.10860492588E+02 0.96757644346E+01 0.89854630711E+01 0.85924124507E+01
 0.83357718293E+01 0.81409786424E+01 0.80592331795E+01 0.81409786424E+01 0.83357718293E+01
 0.85924124507E+01 0.89854630711E+01 0.96757644346E+01 0.10860492588E+02 0.12885020454E+02
 0.16234157984E+02 0.21084456629E+02 0.31582664242E+02 0.58698195921E+02 0.10782405597E+03
 0.17437083917E+03 0.24407659896E+03 0.29745337237E+03 0.49181941067E+03 0.46213980596E+03
 0.38269438035E+03 0.27754099950E+03 0.17437083917E+03 0.94204086350E+02 0.45776118196E+02
 0.24885684044E+02 0.17914570453E+02 0.13670886030E+02 0.11036645199E+02 0.94832061193E+01
 0.85924124507E+01 0.81106248504E+01 0.77986092739E+01 0.75402949456E+01 0.74253585706E+01
 0.75402949456E+01 0.77986092739E+01 0.81106248504E+01 0.85924124507E+01 0.94832061193E+01
 0.11036645199E+02 0.13670886030E+02 0.17914570453E+02 0.24885684044E+02 0.45776118196E+02
 0.94204086350E+02 0.17437083917E+03 0.27754099950E+03 0.38269438035E+03 0.46213980596E+03
 0.66588564030E+03 0.62683515593E+03 0.52210500773E+03 0.38269438035E+03 0.24407659896E+03
 0.13337807552E+03 0.62982109641E+02 0.29926570642E+02 0.19372479626E+02 0.14423485273E+02
 0.11268354390E+02 0.93928115657E+01 0.83357718293E+01 0.77986092739E+01 0.74631505217E+01
 0.71647298894E+01 0.70251321333E+01 0.71647298894E+01 0.74631505217E+01 0.77986092739E+01
 0.83357718293E+01 0.93928115657E+01 0.11268354390E+02 0.14423485273E+02 0.19372479626E+02
 0.29926570642E+02 0.62982109641E+02 0.13337807552E+03 0.24407659896E+03 0.38269438035E+03
 0.52210500773E+03 0.62683515593E+03 0.79635278544E+03 0.75032590226E+03 0.62683515593E+03
 0.46213980596E+03 0.29745337237E+03 0.16421111077E+03 0.77255911993E+02 0.34488594955E+02
 0.20406361788E+02 0.14965473524E+02 0.11451918230E+02 0.93368970889E+01 0.81409786424E+01
 0.75402949456E+01 0.71647298894E+01 0.68194797227E+01 0.66551735686E+01 0.68194797227E+01
 0.71647298894E+01 0.75402949456E+01 0.81409786424E+01 0.93368970889E+01 0.11451918230E+02
 0.14965473524E+02 0.20406361788E+02 0.34488594955E+02 0.77255911993E+02 0.16421111077E+03
 0.29745337237E+03 0.46213980596E+03 0.62683515593E+03 0.75032590226E+03 0.79635278544E+03
 0.75032590226E+03 0.62683515593E+03 0.46213980596E+03 0.29745337237E+03 0.16421111077E+03
 0.77255911993E+02 0.34488594955E+02 0.20406361788E+02 0.14965473524E+02 0.11451918230E+02
 0.93368970889E+01 0.81409786424E+01 0.75402949456E+01 0.71647298894E+01 0.68194797227E+01
 0.66551735686E+01 0.68194797227E+01 0.71647298894E+01 0.75402949456E+01 0.81409786424E+01
 0.93368970889E+01 0.11451918230E+02 0.14965473524E+02 0.20406361788E+02 0.34488594955E+02
 0.77255911993E+02 0.16421111077E+03 0.29745337237E+03 0.46213980596E+03 0.62683515593E+03
 0.75032590226E+03 0.75032590226E+03 0.70676115373E+03 0.58988441547E+03 0.43408688664E+03
 0.27855782575E+03 0.15323271206E+03 0.72113230890E+02 0.32807611108E+02 0.20034729073E+02
 0.14772869052E+02 0.11384528334E+02 0.93571652844E+01 0.82168152983E+01 0.76472624830E+01
 0.72947088163E+01 0.69726092195E+01 0.68194797227E+01 0.69726092195E+01 0.72947088163E+01
 0.76472624830E+01 0.82168152983E+01 0.93571652844E+01 0.11384528334E+02 0.14772869052E+02
 0.20034729073E+02 0.32807611108E+02 0.72113230890E+02 0.15323271206E+03 0.27855782575E+03
 0.43408688664E+03 0.58988441547E+03 0.70676115373E+03 0.62683515593E+03 0.58988441547E+03
 0.49080871868E+03 0.35903436385E+03 0.22829632662E+03 0.12438995287E+03 0.58925711100E+02
 0.28679876735E+02 0.19047773214E+02 0.14244726647E+02 0.11204522806E+02 0.94069025768E+01
 0.83984779029E+01 0.78884789472E+01 0.75731001400E+01 0.72947088163E+01 0.71647298894E+01
 0.72947088163E+01 0.75731001400E+01 0.78884789472E+01 0.83984779029E+01 0.94069025768E+01
 0.11204522806E+02 0.14244726647E+02 0.19047773214E+02 0.28679876735E+02 0.58925711100E+02
 0.12438995287E+03 0.22829632662E+03 0.35903436385E+03 0.49080871868E+03 0.58988441547E+03
 0.46213980596E+03 0.43408688664E+03 0.35903436385E+03 0.25983488053E+03 0.16280719912E+03
 0.87874517711E+02 0.43116969348E+02 0.24137251366E+02 0.17621186715E+02 0.13513604030E+02
 0.10978735651E+02 0.94905649189E+01 0.86405352225E+01 0.81825209429E+01 0.78884789472E+01
 0.76472624830E+01 0.75402949456E+01 0.76472624830E+01 0.78884789472E+01 0.81825209429E+01
 0.86405352225E+01 0.94905649189E+01 0.10978735651E+02 0.13513604030E+02 0.17621186715E+02
 0.24137251366E+02 0.43116969348E+02 0.87874517711E+02 0.16280719912E+03 0.25983488053E+03
 0.35903436385E+03 0.43408688664E+03 0.29745337237E+03 0.27855782575E+03 0.22829632662E+03
 0.16280719912E+03 0.10056603227E+03 0.54997738856E+02 0.30197302615E+02 0.20673677599E+02
 0.15984471804E+02 0.12752747708E+02 0.10807684495E+02 0.96734163339E+01 0.90145361844E+01
 0.86405352225E+01 0.83984779029E+01 0.82168152983E+01 0.81409786424E+01 0.82168152983E+01
 0.83984779029E+01 0.86405352225E+01 0.90145361844E+01 0.96734163339E+01 0.10807684495E+02
 0.12752747708E+02 0.15984471804E+02 0.20673677599E+02 0.30197302615E+02 0.54997738856E+02
 0.10056603227E+03 0.16280719912E+03 0.22829632662E+03 0.27855782575E+03 0.16421111077E+03
 0.15323271206E+03 0.12438995287E+03 0.87874517711E+02 0.54997738856E+02 0.33096235535E+02
 0.22671076735E+02 0.17923438996E+02 0.14419240319E+02 0.12129050434E+02 0.10800075629E+02
 0.10063198450E+02 0.96734163339E+01 0.94905649189E+01 0.94069025768E+01 0.93571652844E+01
 0.93368970889E+01 0.93571652844E+01 0.94069025768E+01 0.94905649189E+01 0.96734163339E+01
 0.10063198450E+02 0.10800075629E+02 0.12129050434E+02 0.14419240319E+02 0.17923438996E+02
 0.22671076735E+02 0.33096235535E+02 0.54997738856E+02 0.87874517711E+02 0.12438995287E+03
 0.15323271206E+03 0.77255911993E+02 0.72113230890E+02 0.58925711100E+02 0.43116969348E+02
 0.30197302615E+02 0.22671076735E+02 0.18649894942E+02 0.15454587041E+02 0.13165230081E+02
 0.11778518323E+02 0.11069663690E+02 0.10800075629E+02 0.10807684495E+02 0.10978735651E+02
 0.11204522806E+02 0.11384528334E+02 0.11451918230E+02 0.11384528334E+02 0.11204522806E+02
 0.10978735651E+02 0.10807684495E+02 0.10800075629E+02 0.11069663690E+02 0.11778518323E+02
 0.13165230081E+02 0.15454587041E+02 0.18649894942E+02 0.22671076735E+02 0.30197302615E+02
 0.43116969348E+02 0.58925711100E+02 0.72113230890E+02 0.34488594955E+02 0.32807611108E+02
 0.28679876735E+02 0.24137251366E+02 0.20673677599E+02 0.17923438996E+02 0.15454587041E+02
 0.13565879846E+02 0.12371967990E+02 0.11817972035E+02 0.11778518323E+02 0.12129050434E+02
 0.12752747708E+02 0.13513604030E+02 0.14244726647E+02 0.14772869052E+02 0.14965473524E+02
 0.14772869052E+02 0.14244726647E+02 0.13513604030E+02 0.12752747708E+02 0.12129050434E+02
 0.11778518323E+02 0.11817972035E+02 0.12371967990E+02 0.13565879846E+02 0.15454587041E+02
 0.17923438996E+02 0.20673677599E+02 0.24137251366E+02 0.28679876735E+02 0.32807611108E+02
 0.20406361788E+02 0.20034729073E+02 0.19047773214E+02 0.17621186715E+02 0.15984471804E+02
 0.14419240319E+02 0.13165230081E+02 0.12371967990E+02 0.12102827699E+02 0.12371967990E+02
 0.13165230081E+02 0.14419240319E+02 0.15984471804E+02 0.17621186715E+02 0.19047773214E+02
 0.20034729073E+02 0.20406361788E+02 0.20034729073E+02 0.19047773214E+02 0.17621186715E+02
 0.15984471804E+02 0.14419240319E+02 0.13165230081E+02 0.12371967990E+02 0.12102827699E+02
 0.12371967990E+02 0.13165230081E+02 0.14419240319E+02 0.15984471804E+02 0.17621186715E+02
 0.19047773214E+02 0.20034729073E+02 0.14965473524E+02 0.14772869052E+02 0.14244726647E+02
 0.13513604030E+02 0.12752747708E+02 0.12129050434E+02 0.11778518323E+02 0.11817972035E+02
 0.12371967990E+02 0.13565879846E+02 0.15454587041E+02 0.17923438996E+02 0.20673677599E+02
 0.24137251366E+02 0.28679876735E+02 0.32807611108E+02 0.34488594955E+02 0.32807611108E+02
 0.28679876735E+02 0.24137251366E+02 0.20673677599E+02 0.17923438996E+02 0.15454587041E+02
 0.13565879846E+02 0.12371967990E+02 0.11817972035E+02 0.11778518323E+02 0.12129050434E+02
 0.12752747708E+02 0.13513604030E+02 0.14244726647E+02 0.14772869052E+02 0.11451918230E+02
 0.11384528334E+02 0.11204522806E+02 0.10978735651E+02 0.10807684495E+02 0.10800075629E+02
 0.11069663690E+02 0.11778518323E+02 0.13165230081E+02 0.15454587041E+02 0.18649894942E+02
 0.22671076735E+02 0.30197302615E+02 0.43116969348E+02 0.58925711100E+02 0.72113230890E+02
 0.77255911993E+02 0.72113230890E+02 0.58925711100E+02 0.43116969348E+02 0.30197302615E+02
 0.22671076735E+02 0.18649894942E+02 0.15454587041E+02 0.13165230081E+02 0.11778518323E+02
 0.11069663690E+02 0.10800075629E+02 0.10807684495E+02 0.10978735651E+02 0.11204522806E+02
 0.11384528334E+02 0.93368970889E+01 0.93571652844E+01 0.94069025768E+01 0.94905649189E+01
 0.96734163339E+01 0.10063198450E+02 0.10800075629E+02 0.12129050434E+02 0.14419240319E+02
 0.17923438996E+02 0.22671076735E+02 0.33096235535E+02 0.54997738856E+02 0.87874517711E+02
 0.12438995287E+03 0.15323271206E+03 0.16421111077E+03 0.15323271206E+03 0.12438995287E+03
 0.87874517711E+02 0.54997738856E+02 0.33096235535E+02 0.22671076735E+02 0.17923438996E+02
 0.14419240319E+02 0.12129050434E+02 0.10800075629E+02 0.10063198450E+02 0.96734163339E+01
 0.94905649189E+01 0.94069025768E+01 0.93571652844E+01 0.81409786424E+01 0.82168152983E+01
 0.83984779029E+01 0.86405352225E+01 0.90145361844E+01 0.96734163339E+01 0.10807684495E+02
 0.12752747708E+02 0.15984471804E+02 0.20673677599E+02 0.30197302615E+02 0.54997738856E+02
 0.10056603227E+03 0.16280719912E+03 0.22829632662E+03 0.27855782575E+03 0.29745337237E+03
 0.27855782575E+03 0.22829632662E+03 0.16280719912E+03 0.10056603227E+03 0.54997738856E+02
 0.30197302615E+02 0.20673677599E+02 0.15984471804E+02 0.12752747708E+02 0.10807684495E+02
 0.96734163339E+01 0.90145361844E+01 0.86405352225E+01 0.83984779029E+01 0.82168152983E+01
 0.75402949456E+01 0.76472624830E+01 0.78884789472E+01 0.81825209429E+01 0.86405352225E+01
 0.94905649189E+01 0.10978735651E+02 0.13513604030E+02 0.17621186715E+02 0.24137251366E+02
 0.43116969348E+02 0.87874517711E+02 0.16280719912E+03 0.25983488053E+03 0.35903436385E+03
 0.43408688664E+03 0.46213980596E+03 0.43408688664E+03 0.35903436385E+03 0.25983488053E+03
 0.16280719912E+03 0.87874517711E+02 0.43116969348E+02 0.24137251366E+02 0.17621186715E+02
 0.13513604030E+02 0.10978735651E+02 0.94905649189E+01 0.86405352225E+01 0.81825209429E+01
 0.78884789472E+01 0.76472624830E+01 0.71647298894E+01 0.72947088163E+01 0.75731001400E+01
 0.78884789472E+01 0.83984779029E+01 0.94069025768E+01 0.11204522806E+02 0.14244726647E+02
 0.19047773214E+02 0.28679876735E+02 0.58925711100E+02 0.12438995287E+03 0.22829632662E+03
 0.35903436385E+03 0.49080871868E+03 0.58988441547E+03 0.62683515593E+03 0.58988441547E+03
 0.49080871868E+03 0.35903436385E+03 0.22829632662E+03 0.12438995287E+03 0.58925711100E+02
 0.28679876735E+02 0.19047773214E+02 0.14244726647E+02 0.11204522806E+02 0.94069025768E+01
 0.83984779029E+01 0.78884789472E+01 0.75731001400E+01 0.72947088163E+01 0.68194797227E+01
 0.69726092195E+01 0.72947088163E+01 0.76472624830E+01 0.82168152983E+01 0.93571652844E+01
 0.11384528334E+02 0.14772869052E+02 0.20034729073E+02 0.32807611108E+02 0.72113230890E+02
 0.15323271206E+03 0.27855782575E+03 0.43408688664E+03 0.58988441547E+03 0.70676115373E+03
 0.75032590226E+03 0.70676115373E+03 0.58988441547E+03 0.43408688664E+03 0.27855782575E+03
 0.15323271206E+03 0.72113230890E+02 0.32807611108E+02 0.20034729073E+02 0.14772869052E+02
 0.11384528334E+02 0.93571652844E+01 0.82168152983E+01 0.76472624830E+01 0.72947088163E+01
 0.69726092195E+01 0.66551735686E+01 0.68194797227E+01 0.71647298894E+01 0.75402949456E+01
 0.81409786424E+01 0.93368970889E+01 0.11451918230E+02 0.14965473524E+02 0.20406361788E+02
 0.34488594955E+02 0.77255911993E+02 0.16421111077E+03 0.29745337237E+03 0.46213980596E+03
 0.62683515593E+03 0.75032590226E+03 0.79635278544E+03 0.75032590226E+03 0.62683515593E+03
 0.46213980596E+03 0.29745337237E+03 0.16421111077E+03 0.77255911993E+02 0.34488594955E+02
 0.20406361788E+02 0.14965473524E+02 0.11451918230E+02 0.93368970889E+01 0.81409786424E+01
 0.75402949456E+01 0.71647298894E+01 0.68194797227E+01 0.68194797227E+01 0.69726092195E+01
 0.72947088163E+01 0.76472624830E+01 0.82168152983E+01 0.93571652844E+01 0.11384528334E+02
 0.14772869052E+02 0.20034729073E+02 0.32807611108E+02 0.72113230890E+02 0.15323271206E+03
 0.27855782575E+03 0.43408688664E+03 0.58988441547E+03 0.70676115373E+03 0.75032590226E+03
 0.70676115373E+03 0.58988441547E+03 0.43408688664E+03 0.27855782575E+03 0.15323271206E+03
 0.72113230890E+02 0.32807611108E+02 0.20034729073E+02 0.14772869052E+02 0.11384528334E+02
 0.93571652844E+01 0.82168152983E+01 0.76472624830E+01 0.72947088163E+01 0.69726092195E+01
 0.71647298894E+01 0.72947088163E+01 0.75731001400E+01 0.78884789472E+01 0.83984779029E+01
 0.94069025768E+01 0.11204522806E+02 0.14244726647E+02 0.19047773214E+02 0.28679876735E+02
 0.58925711100E+02 0.12438995287E+03 0.22829632662E+03 0.35903436385E+03 0.49080871868E+03
 0.58988441547E+03 0.62683515593E+03 0.58988441547E+03 0.49080871868E+03 0.35903436385E+03
 0.22829632662E+03 0.12438995287E+03 0.58925711100E+02 0.28679876735E+02 0.19047773214E+02