    4    4    1    1
  0.1200752E+02  0.3635000E-09  0.3635000E-09  0.3635000E-09  0.5000000E-15
  1.000000000000000E-004
  CAR 
 unknown system                          
     44     10     30
 
  0.0000000E+00  0.0000000E+00  0.0000000E+00  0.8000000E-02
    1       -1.842989   1.000000
    2        2.606927   1.000000
    3        2.606927   1.000000
    4        2.606927   1.000000
    5        3.048151   1.000000
    6        3.048151   1.000000
    7        3.048151   1.000000
    8        4.405111   1.000000
    9        4.405111   1.000000
   10        4.405111   1.000000
   11        5.211485   1.000000
   12        5.211485   1.000000
   13        5.747735   1.000000
   14        5.747735   1.000000
   15        5.747735   1.000000
   16        5.899417   1.000000
   17        5.899417   1.000000
   18        5.899417   1.000000
   19        5.899417   1.000000
   20        5.899417   1.000000
   21        5.899417   1.000000
   22        8.894211  -0.000000
   23        8.894211  -0.000000
   24        8.894211  -0.000000
   25       14.379566   0.000000
   26       14.379566   0.000000
   27       14.379566   0.000000
   28       20.336819   0.000000
   29       20.336819   0.000000
   30       20.336819   0.000000
 
  0.2000000E+00  0.0000000E+00  0.0000000E+00  0.4800000E-01
    1       -1.366197   1.000000
    2        2.558395   1.000000
    3        2.814148   1.000000
    4        2.814148   1.000000
    5        3.170844   1.000000
    6        3.181500   1.000000
    7        3.181500   1.000000
    8        4.270301   1.000000
    9        4.518174   1.000000
   10        4.518174   1.000000
   11        5.088480   1.000000
   12        5.252248   1.000000
   13        5.252248   1.000000
   14        5.261468   1.000000
   15        5.587512   1.000000
   16        5.587512   1.000000
   17        5.695527   1.000000
   18        5.712218   1.000000
   19        5.712218   1.000000
   20        5.899519   1.000000
   21        5.899519   1.000000
   22        6.831071   1.006815
   23        9.969658  -0.000000
   24        9.969658  -0.000000
   25       14.564388   0.000000
   26       14.564388   0.000000
   27       17.424369   0.000000
   28       18.089396   0.000000
   29       18.089396   0.000000
   30       18.753598   0.000000
 
  0.4000000E+00  0.0000000E+00  0.0000000E+00  0.4800000E-01
    1       -0.010505   1.000000
    2        1.764551   1.000000
    3        3.234843   1.000000
    4        3.234843   1.000000
    5        3.500114   1.000000
    6        3.595167   1.000000
    7        3.595167   1.000000
    8        3.920780   1.000000
    9        4.306815   1.000000
   10        4.306815   1.000000
   11        4.824271   1.000000
   12        4.832817   1.000000
   13        4.832817   1.000000
   14        4.946388   1.000000
   15        5.245650   1.000000
   16        5.245650   1.000000
   17        5.281945   1.000000
   18        5.281945   1.000000
   19        5.395311   1.000000
   20        5.559693   1.000000
   21        5.896782   1.000000
   22        5.896782   1.000000
   23       12.192344  -0.000000
   24       12.192344  -0.000000
   25       14.966886   0.000000
   26       14.966886   0.000000
   27       15.203996   0.000000
   28       15.203996   0.000000
   29       16.637150   0.000000
   30       16.637150   0.000000
 
  0.2000000E+00  0.2000000E+00  0.0000000E+00  0.9600000E-01
    1       -0.901635   1.000000
    2        2.800796   1.000000
    3        2.800796   1.000000
    4        2.993500   1.000000
    5        3.286514   1.000000
    6        3.290378   1.000000
    7        3.290378   1.000000
    8        4.212117   1.000000
    9        4.557367   1.000000
   10        4.564782   1.000000
   11        4.929566   1.000000
   12        4.929566   1.000000
   13        4.944910   1.000000
   14        5.069704   1.000000
   15        5.281685   1.000000
   16        5.461539   1.000000
   17        5.581701   1.000000
   18        5.581701   1.000000
   19        5.710889   1.000000
   20        5.710889   1.000000
   21        5.773254   1.000000
   22        7.850394  -0.000071
   23        7.850394  -0.000071
   24       10.835406  -0.000000
   25       14.520649   0.000000
   26       14.990486   0.000000
   27       17.755959   0.000000
   28       17.755959   0.000000
   29       18.676799   0.000000
   30       18.676799   0.000000
 
  0.4000000E+00  0.2000000E+00  0.0000000E+00  0.1920000E+00
    1        0.410283   1.000000
    2        2.096023   1.000000
    3        3.320188   1.000000
    4        3.399338   1.000000
    5        3.550684   1.000000
    6        3.578125   1.000000
    7        3.653983   1.000000
    8        3.938814   1.000000
    9        4.073177   1.000000
   10        4.255788   1.000000
   11        4.456554   1.000000
   12        4.559436   1.000000
   13        4.842460   1.000000
   14        5.008015   1.000000
   15        5.191886   1.000000
   16        5.248938   1.000000
   17        5.280984   1.000000
   18        5.339753   1.000000
   19        5.525414   1.000000
   20        5.707590   1.000000
   21        5.715813   1.000000
   22        6.060063   1.000000
   23        9.549670  -0.000000
   24       11.750456  -0.000000
   25       12.871786   0.000000
   26       15.557939   0.000000
   27       15.562107   0.000000
   28       17.030156   0.000000
   29       18.843005   0.000000
   30       20.282949   0.000000
 
  0.4000000E+00  0.4000000E+00  0.0000000E+00  0.9600000E-01
    1        1.549517   1.000000
    2        2.863170   1.000000
    3        2.863170   1.000000
    4        3.376285   1.000000
    5        3.788226   1.000000
    6        3.797945   1.000000
    7        3.797945   1.000000
    8        3.922242   1.000000
    9        4.061003   1.000000
   10        4.061003   1.000000
   11        4.073863   1.000000
   12        4.391852   1.000000
   13        4.879046   1.000000
   14        4.967991   1.000000
   15        5.012542   1.000000
   16        5.060910   1.000000
   17        5.060910   1.000000
   18        5.302568   1.000000
   19        5.302568   1.000000
   20        5.430602   1.000000
   21        6.056862   1.000000
   22        7.144271   0.860292
   23        7.144271   0.860292
   24        8.901207  -0.000000
   25       14.652410   0.000000
   26       16.521092   0.000000
   27       17.187149   0.000000
   28       17.187149   0.000000
   29       18.288834   0.000000
   30       18.288834   0.000000
 
  0.2000000E+00  0.2000000E+00  0.2000000E+00  0.6400000E-01
    1       -0.455294   1.000000
    2        2.974788   1.000000
    3        2.974788   1.000000
    4        2.974788   1.000000
    5        3.397363   1.000000
    6        3.397363   1.000000
    7        3.397363   1.000000
    8        4.189985   1.000000
    9        4.564051   1.000000
   10        4.564051   1.000000
   11        4.694694   1.000000
   12        4.694694   1.000000
   13        4.694694   1.000000
   14        5.208320   1.000000
   15        5.208320   1.000000
   16        5.250528   1.000000
   17        5.250528   1.000000
   18        5.250528   1.000000
   19        5.813544   1.000000
   20        5.813544   1.000000
   21        5.813544   1.000000
   22        8.482390  -0.000000
   23        8.482390  -0.000000
   24        8.482390  -0.000000
   25       15.299928   0.000000
   26       15.299928   0.000000
   27       15.299928   0.000000
   28       18.121926   0.000000
   29       18.121926   0.000000
   30       18.121926   0.000000
 
  0.4000000E+00  0.2000000E+00  0.2000000E+00  0.1920000E+00
    1        0.786676   1.000000
    2        2.319770   1.000000
    3        3.300570   1.000000
    4        3.300570   1.000000
    5        3.644477   1.000000
    6        3.644477   1.000000
    7        3.702429   1.000000
    8        4.012715   1.000000
    9        4.247954   1.000000
   10        4.247954   1.000000
   11        4.368035   1.000000
   12        4.516945   1.000000
   13        4.656580   1.000000
   14        4.910371   1.000000
   15        5.038712   1.000000
   16        5.038712   1.000000
   17        5.311284   1.000000
   18        5.484334   1.000000
   19        5.723390   1.000000
   20        5.729708   1.000000
   21        5.729708   1.000000
   22        6.246469   1.000000
   23        9.844720  -0.000000
   24        9.844720  -0.000000
   25       12.500445  -0.000000
   26       12.500445  -0.000000
   27       16.833173   0.000000
   28       19.141141   0.000000
   29       19.221451   0.000000
   30       19.221451   0.000000
 
  0.4000000E+00  0.4000000E+00  0.2000000E+00  0.1920000E+00
    1        1.744728   1.000000
    2        2.728994   1.000000
    3        2.728994   1.000000
    4        3.044776   1.000000
    5        3.948785   1.000000
    6        4.048481   1.000000
    7        4.048481   1.000000
    8        4.200374   1.000000
    9        4.274626   1.000000
   10        4.274626   1.000000
   11        4.416369   1.000000
   12        4.419554   1.000000
   13        4.577870   1.000000
   14        4.747195   1.000000
   15        4.747195   1.000000
   16        4.764723   1.000000
   17        5.333456   1.000000
   18        5.612277   1.000000
   19        5.612277   1.000000
   20        5.631413   1.000000
   21        5.936436   1.000000
   22        7.177074   0.754912
   23        7.177074   0.754912
   24        8.829298  -0.000000
   25       11.935940  -0.000000
   26       13.905259   0.000000
   27       13.905259   0.000000
   28       16.131443   0.000000
   29       20.425949   0.000000
   30       22.407537   0.000000
 
  0.4000000E+00  0.4000000E+00  0.4000000E+00  0.6400000E-01
    1        2.141689   1.000000
    2        2.571746   1.000000
    3        2.571746   1.000000
    4        2.571746   1.000000
    5        4.254788   1.000000
    6        4.254788   1.000000
    7        4.254788   1.000000
    8        4.417180   1.000000
    9        4.417180   1.000000
   10        4.494467   1.000000
   11        4.494467   1.000000
   12        4.494467   1.000000
   13        4.961592   1.000000
   14        4.961592   1.000000
   15        4.961592   1.000000
   16        5.182187   1.000000
   17        5.654476   1.000000
   18        5.654476   1.000000
   19        5.767129   1.000000
   20        5.767129   1.000000
   21        5.767129   1.000000
   22        7.280214   0.336586
   23        7.280214   0.336586
   24        7.280214   0.336586
   25       11.483618  -0.000000
   26       11.483618  -0.000000
   27       11.483618  -0.000000
   28       13.246361   0.000000
   29       25.684015   0.000000
   30       25.684015   0.000000
