unknown system                          
   1.00000000000000     
     2.376600    0.000000    0.000000
    -1.188300    2.058196    0.000000
     0.000000    0.000000    4.182000
   Fe
     2
Direct
  0.000000  0.000000  0.000000
  0.333333  0.666667  0.500000
 
   20   20   36
 0.17181557637E+03 0.16245942668E+03 0.13738757201E+03 0.10395145829E+03 0.70309991381E+02
 0.42541917579E+02 0.23603086634E+02 0.13485573501E+02 0.97625517673E+01 0.86867248779E+01
 0.83340653055E+01 0.86871670050E+01 0.97629039250E+01 0.13485436050E+02 0.23602665983E+02
 0.42541726303E+02 0.70310207863E+02 0.10395177763E+03 0.13738767131E+03 0.16245935771E+03
 0.16246760421E+03 0.16245908559E+03 0.14528555228E+03 0.11624211832E+03 0.83173322698E+02
 0.53162832530E+02 0.30624160806E+02 0.16945048328E+02 0.10826966226E+02 0.90084318378E+01
 0.83280723178E+01 0.83273260316E+01 0.90076361412E+01 0.10827776604E+02 0.16945885278E+02
 0.30622525924E+02 0.53161026171E+02 0.83178428872E+02 0.11625764216E+03 0.14530429425E+03
 0.13739991940E+03 0.14526581667E+03 0.13738763391E+03 0.11624245055E+03 0.87950343252E+02
 0.59433432425E+02 0.35994590207E+02 0.20266002283E+02 0.12156608643E+02 0.93108406760E+01
 0.83558867780E+01 0.80280439512E+01 0.83541185505E+01 0.93103870961E+01 0.12158098110E+02
 0.20265640295E+02 0.35990024708E+02 0.59429444405E+02 0.87954805570E+02 0.11625589649E+03
 0.10394644087E+03 0.11617363391E+03 0.11617554077E+03 0.10395209690E+03 0.83173254090E+02
 0.59433159605E+02 0.38005539719E+02 0.22301248679E+02 0.13290080448E+02 0.96197098428E+01
 0.84042631696E+01 0.78184724506E+01 0.78179087086E+01 0.84036069711E+01 0.96204484736E+01
 0.13291510336E+02 0.22300489866E+02 0.38000470789E+02 0.59424788988E+02 0.83164845613E+02
 0.70293188086E+02 0.83069032745E+02 0.87814357886E+02 0.83082584487E+02 0.70310057590E+02
 0.53162287857E+02 0.35994667174E+02 0.22301436991E+02 0.13736330738E+02 0.98349218437E+01
 0.84500303530E+01 0.76980513243E+01 0.74490420277E+01 0.76984852532E+01 0.84502710071E+01
 0.98357018333E+01 0.13739407363E+02 0.22305826626E+02 0.35994796390E+02 0.53152779671E+02
 0.42540206761E+02 0.53084449748E+02 0.59295516627E+02 0.59300103208E+02 0.53092551015E+02
 0.42541616726E+02 0.30624127116E+02 0.20266407269E+02 0.13289989331E+02 0.98348153616E+01
 0.84688900557E+01 0.76469396980E+01 0.72441306680E+01 0.72448506530E+01 0.76473746446E+01
 0.84673183388E+01 0.98341822911E+01 0.13295327554E+02 0.20277152014E+02 0.30632291966E+02
 0.23614914078E+02 0.30613143184E+02 0.35935856146E+02 0.37921486986E+02 0.35931119294E+02
 0.30603511960E+02 0.23602876322E+02 0.16945341143E+02 0.12156604560E+02 0.96194469612E+01
 0.84501514955E+01 0.76469914502E+01 0.71796828265E+01 0.70328025089E+01 0.71808380328E+01
 0.76459552229E+01 0.84454993250E+01 0.96150115935E+01 0.12158098110E+02 0.16954231898E+02
 0.13484654968E+02 0.16976850265E+02 0.20298782025E+02 0.22318291178E+02 0.22312944004E+02
 0.20287263193E+02 0.16968548170E+02 0.13485553644E+02 0.10827132410E+02 0.93105743917E+01
 0.84043135880E+01 0.76982086400E+01 0.72439560338E+01 0.70327643427E+01 0.70336837111E+01
 0.72455891133E+01 0.76977041714E+01 0.83990512932E+01 0.93011760007E+01 0.10818749023E+02
 0.97492554634E+01 0.10861344299E+02 0.12230126053E+02 0.13381964554E+02 0.13830074606E+02
 0.13378184994E+02 0.12230056955E+02 0.10870154847E+02 0.97627235675E+01 0.90083389403E+01
 0.83557514392E+01 0.78186914980E+01 0.74489313105E+01 0.72447371156E+01 0.71810831931E+01
 0.72456502102E+01 0.74524133431E+01 0.78232454683E+01 0.83555189171E+01 0.89993896417E+01
 0.86865045565E+01 0.90468795080E+01 0.93908159438E+01 0.97364124633E+01 0.99729413085E+01
 0.99745484946E+01 0.97420010920E+01 0.94000344797E+01 0.90549149557E+01 0.86868766288E+01
 0.83278828231E+01 0.80281877667E+01 0.78180290495E+01 0.76983272733E+01 0.76475537783E+01
 0.76460826043E+01 0.76973888758E+01 0.78231467618E+01 0.80386985769E+01 0.83362349796E+01
 0.83463134005E+01 0.83853874110E+01 0.84517952410E+01 0.85351123036E+01 0.86090762038E+01
 0.86409350865E+01 0.86137364913E+01 0.85396662075E+01 0.84506079037E+01 0.83767045515E+01
 0.83340373765E+01 0.83272608266E+01 0.83543510725E+01 0.84034920543E+01 0.84501514955E+01
 0.84674109655E+01 0.84452586709E+01 0.83988859580E+01 0.83558867780E+01 0.83363592693E+01
 0.86861150591E+01 0.83852688228E+01 0.81377580055E+01 0.79687495304E+01 0.78795847832E+01
 0.78484117919E+01 0.78497020734E+01 0.78801345939E+01 0.79633730787E+01 0.81273635542E+01
 0.83773548223E+01 0.86869292584E+01 0.90077291214E+01 0.93104031288E+01 0.96201569005E+01
 0.98357250849E+01 0.98343120248E+01 0.96149829020E+01 0.93014583178E+01 0.89995755194E+01
 0.97489596655E+01 0.90467193312E+01 0.84521662344E+01 0.79688250635E+01 0.76414437986E+01
 0.74653366215E+01 0.74120439297E+01 0.74647385507E+01 0.76381234605E+01 0.79639828976E+01
 0.84519519105E+01 0.90555774042E+01 0.97627799274E+01 0.10827913492E+02 0.12157948567E+02
 0.13291508873E+02 0.13739758413E+02 0.13295417207E+02 0.12157952650E+02 0.10818719726E+02
 0.13484813960E+02 0.10861419607E+02 0.93910913204E+01 0.85351924028E+01 0.78792713461E+01
 0.74653315215E+01 0.72756253266E+01 0.72748308853E+01 0.74639790090E+01 0.78799848711E+01
 0.85403852972E+01 0.94001315729E+01 0.10869395305E+02 0.13485575184E+02 0.16946000564E+02
 0.20265647269E+02 0.22300677449E+02 0.22305825897E+02 0.20276754002E+02 0.16954054370E+02
 0.23615334729E+02 0.16977056114E+02 0.12229961991E+02 0.97363078285E+01 0.86088538231E+01
 0.78484492937E+01 0.74122755665E+01 0.72747635640E+01 0.74106999229E+01 0.78491944755E+01
 0.86137364913E+01 0.97412364225E+01 0.12228656588E+02 0.16967869309E+02 0.23602876322E+02
 0.30622505353E+02 0.35989895492E+02 0.38000305181E+02 0.35994590207E+02 0.30632305085E+02
 0.42540414249E+02 0.30613095720E+02 0.20298374289E+02 0.13381803547E+02 0.99731008230E+01
 0.86410499325E+01 0.78498504030E+01 0.74645877330E+01 0.74638332912E+01 0.78493053032E+01
 0.86424788688E+01 0.99737076128E+01 0.13376681664E+02 0.20287985441E+02 0.30605115410E+02
 0.42541632938E+02 0.53160784527E+02 0.59429326175E+02 0.59424943578E+02 0.53153082700E+02
 0.70293011247E+02 0.53084064621E+02 0.35935667295E+02 0.22318397930E+02 0.13830432502E+02
 0.99746041532E+01 0.86135858627E+01 0.78800308878E+01 0.76380557659E+01 0.78801946020E+01
 0.86138082433E+01 0.99736037570E+01 0.13826742933E+02 0.22313725086E+02 0.35935851333E+02
 0.53094070557E+02 0.70310097232E+02 0.83178590850E+02 0.87955075291E+02 0.83165076198E+02
 0.10394615333E+03 0.83068753213E+02 0.59295703514E+02 0.37921883641E+02 0.22313092963E+02
 0.13378001910E+02 0.97417150165E+01 0.85397378281E+01 0.79635200964E+01 0.79640543821E+01
 0.85403768187E+01 0.97410549819E+01 0.13376659587E+02 0.22313767292E+02 0.37926691833E+02
 0.59303888633E+02 0.83077279520E+02 0.10395212869E+03 0.11625774769E+03 0.11625566979E+03
 0.13739982010E+03 0.11617390662E+03 0.87814642201E+02 0.59300352372E+02 0.35930935255E+02
 0.20286917133E+02 0.12229961991E+02 0.94002856043E+01 0.84508222277E+01 0.81271943609E+01
 0.84517952410E+01 0.94001073210E+01 0.12228725686E+02 0.20288047117E+02 0.35935856146E+02
 0.59303950910E+02 0.87809586203E+02 0.11616025018E+03 0.13738763391E+03 0.14530375260E+03
 0.16246765767E+03 0.14526646129E+03 0.11617562946E+03 0.83082289171E+02 0.53092295612E+02
 0.30603361399E+02 0.16968722903E+02 0.10870410139E+02 0.90549503218E+01 0.83764280133E+01
 0.83771968724E+01 0.90557729471E+01 0.10869575290E+02 0.16967838192E+02 0.30605012314E+02
 0.53094200281E+02 0.83077263736E+02 0.11616006616E+03 0.14524759350E+03 0.16245907008E+03
 0.16280403363E+03 0.15394789133E+03 0.13019784058E+03 0.98489614807E+02 0.66570049322E+02
 0.40262526528E+02 0.22415165262E+02 0.12988616411E+02 0.95768798501E+01 0.85497285533E+01
 0.82068085958E+01 0.85501560736E+01 0.95772198239E+01 0.12988481999E+02 0.22414756389E+02
 0.40262339708E+02 0.66570257727E+02 0.98489923632E+02 0.13019793710E+03 0.15394782505E+03
 0.15395546513E+03 0.15394755935E+03 0.13768003024E+03 0.11014316692E+03 0.78764661951E+02
 0.50302943461E+02 0.29001626365E+02 0.16182340175E+02 0.10536820292E+02 0.88567914187E+01
 0.81944807550E+01 0.81937629702E+01 0.88560249441E+01 0.10537620634E+02 0.16183244495E+02
 0.29000230121E+02 0.50301302716E+02 0.78769360153E+02 0.11015752484E+03 0.13769740652E+03
 0.13020928941E+03 0.13766557209E+03 0.13019790005E+03 0.11014349000E+03 0.83294109239E+02
 0.56237876003E+02 0.34055442653E+02 0.19267997881E+02 0.11741769448E+02 0.91378984114E+01
 0.82166162151E+01 0.78992077405E+01 0.82149079596E+01 0.91374376450E+01 0.11743209498E+02
 0.19267775687E+02 0.34051272971E+02 0.56234149908E+02 0.83298180642E+02 0.11015592087E+03
 0.98485001885E+02 0.11008997696E+03 0.11009173882E+03 0.98490235822E+02 0.78764596238E+02
 0.56237610912E+02 0.35950433038E+02 0.21165625030E+02 0.12775828408E+02 0.94123993508E+01
 0.82602996838E+01 0.76937808586E+01 0.76932421751E+01 0.82596503310E+01 0.94130327890E+01
 0.12777102738E+02 0.21164874072E+02 0.35945694385E+02 0.56229827603E+02 0.78756798323E+02
 0.66554535805E+02 0.78685214227E+02 0.83191678337E+02 0.78697748623E+02 0.66570114615E+02
 0.50302414244E+02 0.34055516511E+02 0.21165807926E+02 0.13184350453E+02 0.96027452228E+01
 0.83028409921E+01 0.75759589199E+01 0.73364511981E+01 0.75764027127E+01 0.83030742432E+01
 0.96033941022E+01 0.13187080513E+02 0.21169795819E+02 0.34055642580E+02 0.50293662633E+02
 0.40260978754E+02 0.50252589044E+02 0.56145608623E+02 0.56149864593E+02 0.50260089178E+02
 0.40262234242E+02 0.29001592927E+02 0.19268391347E+02 0.12775740980E+02 0.96026419901E+01
 0.83205297345E+01 0.75259556961E+01 0.71389769050E+01 0.71396901272E+01 0.75264470686E+01
 0.83191162823E+01 0.96020331481E+01 0.12780663531E+02 0.19278380692E+02 0.29009231158E+02
 0.22426108703E+02 0.29015493485E+02 0.34043384330E+02 0.35921728307E+02 0.34039046108E+02
 0.29006621498E+02 0.22414961185E+02 0.16182624966E+02 0.11741766325E+02 0.94121441078E+01
 0.83029574254E+01 0.75260055066E+01 0.70769777363E+01 0.69362701309E+01 0.70780911048E+01
 0.75251058912E+01 0.82987046343E+01 0.94080912655E+01 0.11743209498E+02 0.16190904355E+02
 0.12987709637E+02 0.16234568339E+02 0.19341287094E+02 0.21236118726E+02 0.21231184833E+02
 0.19330671666E+02 0.16226950795E+02 0.12988597579E+02 0.10536981377E+02 0.91376390770E+01
 0.82603474736E+01 0.75761111612E+01 0.71388081740E+01 0.69362335572E+01 0.69370622690E+01
 0.71402787199E+01 0.75756303513E+01 0.82555009457E+01 0.91289659553E+01 0.10529208189E+02
 0.95645163665E+01 0.10588626632E+02 0.11848962575E+02 0.12913885656E+02 0.13329169622E+02
 0.12910360632E+02 0.11848895073E+02 0.10596829032E+02 0.95770457654E+01 0.88566999756E+01
 0.82164847247E+01 0.76939942285E+01 0.73363447099E+01 0.71395805354E+01 0.70783288800E+01
 0.71403378590E+01 0.73394696633E+01 0.76981639219E+01 0.82162591033E+01 0.88483848607E+01
 0.85495213913E+01 0.89100253312E+01 0.92463902686E+01 0.95683336091E+01 0.97858985651E+01
 0.97873460942E+01 0.95734250511E+01 0.92548700047E+01 0.89174598863E+01 0.85498753584E+01
 0.81942975996E+01 0.78993491105E+01 0.76933595461E+01 0.75762488403E+01 0.75266204123E+01
 0.75252294244E+01 0.75753242375E+01 0.76980679231E+01 0.79090864741E+01 0.82020377359E+01
 0.82181609094E+01 0.82640229545E+01 0.83368780741E+01 0.84249958200E+01 0.85015195167E+01
 0.85339623892E+01 0.85057837711E+01 0.84291452496E+01 0.83357322539E+01 0.82559654761E+01
 0.82067822904E+01 0.81937008630E+01 0.82151335810E+01 0.82595371665E+01 0.83029574254E+01
 0.83192067261E+01 0.82984713831E+01 0.82553399913E+01 0.82166162151E+01 0.82021587840E+01
 0.85491432899E+01 0.82639072796E+01 0.80312091915E+01 0.78739400831E+01 0.77921868046E+01
 0.77642664229E+01 0.77654825455E+01 0.77927349053E+01 0.78689788308E+01 0.80215807229E+01
 0.82565886851E+01 0.85499247774E+01 0.88561147122E+01 0.91374519790E+01 0.94127491477E+01
 0.96034176808E+01 0.96021599594E+01 0.94080628673E+01 0.91292396236E+01 0.88485660720E+01
 0.95642295273E+01 0.89098688083E+01 0.83372380690E+01 0.78740140313E+01 0.75614000376E+01
 0.73936797252E+01 0.73430360892E+01 0.73932258370E+01 0.75584297507E+01 0.78695640942E+01
 0.83370302631E+01 0.89180945686E+01 0.95770989000E+01 0.10537753739E+02 0.11743064334E+02
 0.12777101934E+02 0.13187422053E+02 0.12780750155E+02 0.11743067457E+02 0.10529180209E+02
 0.12987864636E+02 0.10588699269E+02 0.92466573039E+01 0.84250747667E+01 0.77918830844E+01
 0.73936743605E+01 0.72114934023E+01 0.72107843911E+01 0.73924740622E+01 0.77925683939E+01
 0.84298590787E+01 0.92549870972E+01 0.10596077257E+02 0.12988618165E+02 0.16183356964E+02
 0.19267782167E+02 0.21165056151E+02 0.21169795002E+02 0.19277993707E+02 0.16190732033E+02
 0.22426517576E+02 0.16234768399E+02 0.11848802941E+02 0.95682326259E+01 0.85013041648E+01
 0.77643019667E+01 0.73432601409E+01 0.72107190601E+01 0.73417380800E+01 0.77649198496E+01
 0.85057837711E+01 0.95727678012E+01 0.11847543930E+02 0.16226201001E+02 0.22414961185E+02
 0.29000209406E+02 0.34051146902E+02 0.35945533858E+02 0.34055442653E+02 0.29009243881E+02
 0.40261180048E+02 0.29015447569E+02 0.19340890970E+02 0.12913729100E+02 0.97860534880E+01
 0.85340732451E+01 0.77656258797E+01 0.73930796548E+01 0.73923332447E+01 0.77650276401E+01
 0.85353468154E+01 0.97866342961E+01 0.12909014151E+02 0.19331245785E+02 0.29007987755E+02
 0.40262248716E+02 0.50301067763E+02 0.56234035645E+02 0.56229978432E+02 0.50293956897E+02
 0.66554363457E+02 0.50252214903E+02 0.34043200965E+02 0.21236222035E+02 0.13329516866E+02
 0.97873999685E+01 0.85056377167E+01 0.77926348591E+01 0.75583644950E+01 0.77927720680E+01
 0.85058530685E+01 0.97865332474E+01 0.13326187214E+02 0.21231957195E+02 0.34043379660E+02
 0.50261450132E+02 0.66570150672E+02 0.78769517985E+02 0.83298442791E+02 0.78757021867E+02
 0.98484722135E+02 0.78684942889E+02 0.56145790448E+02 0.35922113540E+02 0.21231329363E+02
 0.12910182908E+02 0.95731478655E+01 0.84292156641E+01 0.78691213591E+01 0.78696326743E+01
 0.84298505465E+01 0.95725915989E+01 0.12908992984E+02 0.21231998416E+02 0.35926601202E+02
 0.56153396311E+02 0.78692855951E+02 0.98490264897E+02 0.11015762672E+03 0.11015569968E+03
 0.13020919289E+03 0.11009024281E+03 0.83191955158E+02 0.56150106672E+02 0.34038867413E+02
 0.19330335593E+02 0.11848802941E+02 0.92551144255E+01 0.83359400598E+01 0.80214150317E+01
 0.83368780741E+01 0.92549644827E+01 0.11847611431E+02 0.19331305836E+02 0.34043384330E+02
 0.56153456566E+02 0.83187308728E+02 0.11007760818E+03 0.13019790005E+03 0.13769687922E+03
 0.15395551718E+03 0.13766619961E+03 0.11009182586E+03 0.78697461413E+02 0.50259840755E+02
 0.29006475236E+02 0.16227119979E+02 0.10597076896E+02 0.89174946605E+01 0.82556961641E+01
 0.82564350480E+01 0.89182858657E+01 0.10596252484E+02 0.16226170125E+02 0.29007887409E+02
 0.50261575850E+02 0.78692840079E+02 0.11007742936E+03 0.13764870219E+03 0.15394754512E+03
 0.13856302373E+03 0.13103470851E+03 0.11080782137E+03 0.83737755839E+02 0.56481798928E+02
 0.34157942238E+02 0.19285370638E+02 0.11712670798E+02 0.90922501464E+01 0.81757218854E+01
 0.78616702309E+01 0.81761078766E+01 0.90925551832E+01 0.11712544617E+02 0.19284995568E+02
 0.34157769685E+02 0.56481986583E+02 0.83738036154E+02 0.11080790991E+03 0.13103464920E+03
 0.13104068488E+03 0.13103440279E+03 0.11717931611E+03 0.93675937229E+02 0.66859860872E+02
 0.42612930942E+02 0.24689606884E+02 0.14198604000E+02 0.97941493481E+01 0.84381362298E+01
 0.78296782900E+01 0.78290414813E+01 0.84374528027E+01 0.97949110391E+01 0.14199656573E+02
 0.24688814222E+02 0.42611719950E+02 0.66863486827E+02 0.93687217021E+02 0.11719307796E+03
 0.11081689077E+03 0.11717952182E+03 0.11080787399E+03 0.93676234063E+02 0.70718228481E+02
 0.47631797871E+02 0.28879469512E+02 0.16650694540E+02 0.10677385881E+02 0.86730889311E+01
 0.78337103294E+01 0.75464365949E+01 0.78321759927E+01 0.86726180579E+01 0.10678682158E+02
 0.16650817233E+02 0.28876333014E+02 0.47628770251E+02 0.70721278183E+02 0.93685984552E+02
 0.83734206750E+02 0.93664812744E+02 0.93666192547E+02 0.83738326382E+02 0.66859803394E+02
 0.47631554899E+02 0.30457701057E+02 0.18175859489E+02 0.11450369621E+02 0.88690932371E+01
 0.78620273529E+01 0.73508039122E+01 0.73503359066E+01 0.78614070140E+01 0.88694613009E+01
 0.11451244600E+02 0.18175140473E+02 0.30453845890E+02 0.47625331515E+02 0.66853621749E+02
 0.56469687220E+02 0.66848311515E+02 0.70707666349E+02 0.66858158406E+02 0.56481861452E+02
 0.42612445930E+02 0.28879534382E+02 0.18176026832E+02 0.11759110424E+02 0.89992719241E+01
 0.78938190247E+01 0.72385439148E+01 0.70256129423E+01 0.72390050161E+01 0.78940310575E+01
 0.89995908170E+01 0.11760950683E+02 0.18178969878E+02 0.28879651517E+02 0.42605684277E+02
 0.34156816836E+02 0.42639081988E+02 0.47664217064E+02 0.47667596382E+02 0.42644991997E+02
 0.34157674384E+02 0.24689574084E+02 0.16651054916E+02 0.11450292820E+02 0.89991780491E+01
 0.79075773188E+01 0.71906102592E+01 0.68474773302E+01 0.68481613448E+01 0.71912290302E+01
 0.79065714508E+01 0.89986379681E+01 0.11454121156E+02 0.16659038223E+02 0.24695802744E+02
 0.19293976427E+02 0.24771839366E+02 0.28995335442E+02 0.30580605029E+02 0.28992040845E+02
 0.24764965501E+02 0.19285184390E+02 0.14198865763E+02 0.10677385607E+02 0.88688600177E+01
 0.78939220617E+01 0.71906545244E+01 0.67917719064E+01 0.66678286902E+01 0.67927633334E+01
 0.71901011222E+01 0.78907125541E+01 0.88658069551E+01 0.10678682158E+02 0.14205517186E+02
 0.11711807087E+02 0.14307992412E+02 0.16836615208E+02 0.18394578119E+02 0.18390733296E+02
 0.16828377699E+02 0.14302170023E+02 0.11712655000E+02 0.97942959234E+01 0.86728496769E+01
 0.78620677061E+01 0.72386816060E+01 0.68473254417E+01 0.66677966287E+01 0.66683911615E+01
 0.68483766633E+01 0.72382674857E+01 0.78583151395E+01 0.86660874469E+01 0.97881378358E+01
 0.90823663215E+01 0.98961991117E+01 0.10881020524E+02 0.11720119753E+02 0.12049392223E+02
 0.11717273749E+02 0.10880957679E+02 0.99027822105E+01 0.90923992905E+01 0.84380490501E+01
 0.78335898623E+01 0.73510008849E+01 0.70255184743E+01 0.68480629721E+01 0.67929799086E+01
 0.68484301791E+01 0.70277234434E+01 0.73541653115E+01 0.78333839949E+01 0.84314171298E+01
 0.81755516819E+01 0.85356193706E+01 0.88666555774E+01 0.91419230373E+01 0.93168955342E+01
 0.93179303656E+01 0.91457188750E+01 0.88731936429E+01 0.85414646951E+01 0.81758544622E+01
 0.78295131336E+01 0.75465707200E+01 0.73504446902E+01 0.72388629417E+01 0.71913857781E+01
 0.71902136050E+01 0.72379877201E+01 0.73540771224E+01 0.75542609310E+01 0.78356333490E+01
 0.78706510904E+01 0.79371564755E+01 0.80295119371E+01 0.81323753189E+01 0.82170580897E+01
 0.82515431934E+01 0.82202861538E+01 0.81354702988E+01 0.80284871311E+01 0.79307575808E+01
 0.78616483132E+01 0.78289880638E+01 0.78323818600E+01 0.78612990508E+01 0.78939220617E+01
 0.79066555947E+01 0.78905005214E+01 0.78581668231E+01 0.78337103294E+01 0.78357450878E+01
 0.81752062851E+01 0.79370491596E+01 0.77490324517E+01 0.76277586940E+01 0.75694624002E+01
 0.75522769005E+01 0.75532915189E+01 0.75699963614E+01 0.76238919670E+01 0.77414320457E+01
 0.79313043059E+01 0.81758950566E+01 0.84375334499E+01 0.86726277468E+01 0.88692005589E+01
 0.89996152979E+01 0.89987563239E+01 0.88657794324E+01 0.86663363899E+01 0.84315849566E+01
 0.90821051797E+01 0.85354732985E+01 0.80298402819E+01 0.76278280491E+01 0.73607929240E+01
 0.72196191067E+01 0.71775205866E+01 0.72195242069E+01 0.73587250246E+01 0.76244075673E+01
 0.80296512384E+01 0.85420208899E+01 0.90924431855E+01 0.97950334538E+01 0.10678549715E+02
 0.11451245669E+02 0.11761264820E+02 0.11454199026E+02 0.10678549988E+02 0.97881136752E+01
 0.11711950599E+02 0.98962640365E+01 0.88668985825E+01 0.81324508875E+01 0.75691866043E+01
 0.72196130211E+01 0.70610569396E+01 0.70605681331E+01 0.72188040080E+01 0.75697917627E+01
 0.81361593729E+01 0.88733576472E+01 0.99020620116E+01 0.11712672331E+02 0.14199761021E+02
 0.16650822266E+02 0.18175306633E+02 0.18178968695E+02 0.16658682880E+02 0.14205359871E+02
 0.19294351497E+02 0.14308175817E+02 0.10880873571E+02 0.91418325109E+01 0.82168629494E+01
 0.75523068998E+01 0.71777228977E+01 0.70605085521E+01 0.71763564793E+01 0.75526041072E+01
 0.82202861538E+01 0.91453344918E+01 0.10879749677E+02 0.14301260681E+02 0.19285184390E+02
 0.24688793047E+02 0.28876215879E+02 0.30453699841E+02 0.28879469512E+02 0.24695814368E+02
 0.34157000404E+02 0.24771797891E+02 0.16836252450E+02 0.11719976018E+02 0.93170373077E+01
 0.82516426630E+01 0.75534205455E+01 0.72193913858E+01 0.72186772725E+01 0.75527031345E+01
 0.82525161526E+01 0.93175447261E+01 0.11716331915E+02 0.16828582003E+02 0.24765732276E+02
 0.34157685399E+02 0.42611504096E+02 0.47628667328E+02 0.47625471564E+02 0.42605953435E+02
 0.56469527822E+02 0.42638739392E+02 0.28995167830E+02 0.18394671599E+02 0.12049708916E+02
 0.93179791419E+01 0.82201531961E+01 0.75699068033E+01 0.73586667846E+01 0.75699780005E+01
 0.82203483363E+01 0.93174517289E+01 0.12047309979E+02 0.18391470826E+02 0.28995331092E+02
 0.42645944846E+02 0.56481889709E+02 0.66863632799E+02 0.70721518728E+02 0.66853825199E+02
 0.83733949409E+02 0.66848063623E+02 0.47664384261E+02 0.30580957492E+02 0.18390865169E+02
 0.11717111422E+02 0.91454671297E+01 0.81355371189E+01 0.76240216188E+01 0.76244678640E+01
 0.81361506243E+01 0.91451732729E+01 0.11716313323E+02 0.18391509219E+02 0.30584586519E+02
 0.47670449963E+02 0.66854351976E+02 0.83738349356E+02 0.93687308635E+02 0.93685779333E+02
 0.11081680223E+03 0.93665058712E+02 0.70707921444E+02 0.47667818094E+02 0.28991877583E+02
 0.16828070352E+02 0.10880873571E+02 0.88734186477E+01 0.80286761747E+01 0.77412765873E+01
 0.80295119371E+01 0.88733396468E+01 0.10879812522E+02 0.16828637413E+02 0.28995335442E+02
 0.47670504480E+02 0.70704347845E+02 0.93655122878E+02 0.11080787399E+03 0.11719259205E+03
 0.13104073288E+03 0.11718010000E+03 0.93666274607E+02 0.66857894423E+02 0.42644763761E+02
 0.24764831687E+02 0.14302323259E+02 0.99030086052E+01 0.85414976682E+01 0.79305091895E+01
 0.79311632306E+01 0.85421999351E+01 0.99022234815E+01 0.14301230512E+02 0.24765639937E+02
 0.42646059206E+02 0.66854335885E+02 0.93654958969E+02 0.11716622931E+03 0.13103439149E+03
 0.10596320612E+03 0.10018691721E+03 0.84641734058E+02 0.63815692596E+02 0.42933966209E+02
 0.26106397080E+02 0.15306953178E+02 0.10171698937E+02 0.84531220112E+01 0.76573587804E+01
 0.73889199331E+01 0.76576833044E+01 0.84533749595E+01 0.10171584691E+02 0.15306629615E+02
 0.26106249629E+02 0.42934127964E+02 0.63815933471E+02 0.84641810441E+02 0.10018686677E+03
 0.10019083694E+03 0.10018665183E+03 0.89531416346E+02 0.71432721923E+02 0.50818367520E+02
 0.32372785020E+02 0.19102931630E+02 0.11745063987E+02 0.88869083439E+01 0.78473064191E+01
 0.73249573916E+01 0.73244408367E+01 0.78467466562E+01 0.88875864155E+01 0.11746222640E+02
 0.19102837376E+02 0.32372103598E+02 0.50820633356E+02 0.71440057351E+02 0.89540521251E+02
 0.84647734285E+02 0.89552104075E+02 0.84641776682E+02 0.71432978764E+02 0.53758468864E+02
 0.36126742597E+02 0.22107140341E+02 0.13357450806E+02 0.93884809418E+01 0.80226477853E+01
 0.72976893346E+01 0.70561977998E+01 0.72964220062E+01 0.80221888068E+01 0.93895547103E+01
 0.13357946438E+02 0.22105294351E+02 0.36124630339E+02 0.53760239409E+02 0.71439293582E+02
 0.63813494481E+02 0.71479386482E+02 0.71480278743E+02 0.63816186248E+02 0.50818322326E+02
 0.36126533167E+02 0.23249231221E+02 0.14382653824E+02 0.98366248445E+01 0.81536177633E+01
 0.72981630667E+01 0.68700071248E+01 0.68696420397E+01 0.72976098820E+01 0.81536799628E+01
 0.98370200369E+01 0.14382007755E+02 0.23246541105E+02 0.36122335393E+02 0.50814224199E+02
 0.42926203320E+02 0.50899104177E+02 0.53873134940E+02 0.50905503157E+02 0.42934024109E+02
 0.32372366981E+02 0.22107191368E+02 0.14382797459E+02 0.10018954710E+02 0.82253092581E+01
 0.73099722856E+01 0.67611868032E+01 0.65864463864E+01 0.67616449592E+01 0.73101520935E+01
 0.82252512633E+01 0.10019726602E+02 0.14384446745E+02 0.22107295152E+02 0.32368133431E+02
 0.26105790021E+02 0.32502620181E+02 0.36328360038E+02 0.36330605389E+02 0.32506484245E+02
 0.26106166012E+02 0.19102899579E+02 0.13357760745E+02 0.98365642674E+01 0.82252297184E+01
 0.73163550533E+01 0.67134575500E+01 0.64321729812E+01 0.64327878158E+01 0.67141794083E+01
 0.73158432507E+01 0.82247916556E+01 0.98389994196E+01 0.13363139982E+02 0.19107267150E+02
 0.15312553459E+02 0.19278691259E+02 0.22397377477E+02 0.23578617786E+02 0.22395394847E+02
 0.19274359197E+02 0.15306793956E+02 0.11745290655E+02 0.93884851905E+01 0.81534183711E+01
 0.73100552676E+01 0.67134934699E+01 0.63840180341E+01 0.62828408207E+01 0.63848214610E+01
 0.67133435792E+01 0.73081512927E+01 0.81516171939E+01 0.93895547103E+01 0.11749816586E+02
 0.10170924904E+02 0.11934804949E+02 0.13700155750E+02 0.14806868548E+02 0.14804413283E+02
 0.13694944517E+02 0.11931247872E+02 0.10171687920E+02 0.88870331897E+01 0.80224395200E+01
 0.72981924239E+01 0.67613024009E+01 0.64320464490E+01 0.62828154539E+01 0.62831243860E+01
 0.64325876368E+01 0.67609851725E+01 0.72958306784E+01 0.80181146572E+01 0.88829564618E+01
 0.84464634105E+01 0.90625407736E+01 0.97319852710E+01 0.10296178391E+02 0.10518417752E+02
 0.10294222362E+02 0.97319297424E+01 0.90670101821E+01 0.84532459926E+01 0.78472260391E+01
 0.72975855903E+01 0.68701788122E+01 0.65863698668E+01 0.64327062357E+01 0.63850057391E+01
 0.64326325889E+01 0.65874594823E+01 0.68720810300E+01 0.72974097112E+01 0.78427764892E+01
 0.76572420336E+01 0.80125116366E+01 0.83460124904E+01 0.86043179423E+01 0.87473477414E+01
 0.87478788714E+01 0.86065022489E+01 0.83500881536E+01 0.80163130317E+01 0.76574696126E+01
 0.73248190977E+01 0.70563202214E+01 0.68697375414E+01 0.67615209168E+01 0.67143109622E+01
 0.67134392131E+01 0.67607455324E+01 0.68720048444E+01 0.70613730070E+01 0.73288522745E+01
 0.73948437771E+01 0.74928058159E+01 0.76134536764E+01 0.77370990692E+01 0.78331071961E+01
 0.78704540782E+01 0.78350345240E+01 0.77388813734E+01 0.76126164261E+01 0.74885534161E+01
 0.73889039736E+01 0.73244000751E+01 0.72965978853E+01 0.72975103889E+01 0.73100552676E+01
 0.73159176939E+01 0.73079714847E+01 0.72957018281E+01 0.72976893346E+01 0.73289498068E+01
 0.76569464341E+01 0.74927112515E+01 0.73732670699E+01 0.73069400531E+01 0.72847877215E+01
 0.72844553563E+01 0.72851955894E+01 0.72852762813E+01 0.73044709951E+01 0.73682815527E+01
 0.74889880106E+01 0.76574985371E+01 0.78468136928E+01 0.80221920796E+01 0.81534544959E+01
 0.82252769798E+01 0.82248969118E+01 0.81515911193E+01 0.80183261953E+01 0.78429239058E+01
 0.84462413463E+01 0.80123814862E+01 0.76137336145E+01 0.73070022727E+01 0.71106636792E+01
 0.70110541129E+01 0.69824363559E+01 0.70113571004E+01 0.71096894927E+01 0.73048833414E+01
 0.76135732470E+01 0.80167543026E+01 0.84532768766E+01 0.88876929765E+01 0.93894420114E+01
 0.98370238751E+01 0.10019998690E+02 0.98390638348E+01 0.93894377627E+01 0.88829381769E+01
 0.10171050835E+02 0.90625938578E+01 0.83462186867E+01 0.77371692322E+01 0.72845545039E+01
 0.70110470418E+01 0.68895773506E+01 0.68893554053E+01 0.70107089983E+01 0.72850405255E+01
 0.77395072272E+01 0.83502949848E+01 0.90663620801E+01 0.10171699605E+02 0.11746314979E+02
 0.13357949240E+02 0.14382149357E+02 0.14384444713E+02 0.13362832844E+02 0.11749682256E+02
 0.15312877021E+02 0.11934962863E+02 0.97318576120E+01 0.86042432311E+01 0.78329429182E+01
 0.72844771350E+01 0.69826056948E+01 0.68893046637E+01 0.69814795350E+01 0.72844078279E+01
 0.78350345240E+01 0.86064363933E+01 0.97309420374E+01 0.11930212670E+02 0.15306793956E+02
 0.19102815387E+02 0.22105190567E+02 0.23246416815E+02 0.22107140341E+02 0.19107277213E+02
 0.26105946701E+02 0.19278656539E+02 0.13699843930E+02 0.10296054309E+02 0.87474695559E+01
 0.78705363903E+01 0.72853029293E+01 0.70112447648E+01 0.70106037338E+01 0.72844933890E+01
 0.78709267056E+01 0.87478697632E+01 0.10293771983E+02 0.13694735109E+02 0.19274433355E+02
 0.26106175240E+02 0.32371916602E+02 0.36124544556E+02 0.36122459040E+02 0.32368364474E+02
 0.42926063848E+02 0.32502325655E+02 0.22397233889E+02 0.14806947227E+02 0.10518688004E+02
 0.87479199349E+01 0.78349214354E+01 0.72852026059E+01 0.71096419828E+01 0.72852000678E+01
 0.78350857134E+01 0.87477890122E+01 0.10517426940E+02 0.14805073069E+02 0.22397373365E+02
 0.32506943853E+02 0.42934046393E+02 0.50820761317E+02 0.53760447381E+02 0.50814397353E+02
 0.63813271410E+02 0.50898891783E+02 0.36328504679E+02 0.23578920365E+02 0.14804526040E+02
 0.10294083502E+02 0.86062890023E+01 0.77389423165E+01 0.73045810863E+01 0.73049312130E+01
 0.77394980073E+01 0.86062978579E+01 0.10293757204E+02 0.14805107149E+02 0.23581415194E+02
 0.36332566968E+02 0.50903081971E+02 0.63816204052E+02 0.71440133887E+02 0.71439113276E+02
 0.84647657902E+02 0.71479601565E+02 0.53873356357E+02 0.36330795987E+02 0.22395255372E+02
 0.13694681056E+02 0.97318576120E+01 0.83502830789E+01 0.76127767936E+01 0.73681422294E+01
 0.76134536764E+01 0.83502837138E+01 0.97309975660E+01 0.13694783469E+02 0.22397377477E+02
 0.36332612925E+02 0.53871134139E+02 0.71473127258E+02 0.84641776682E+02 0.89540099007E+02
 0.10019087871E+03 0.89552606372E+02 0.71480352557E+02 0.50905274472E+02 0.32506287157E+02
 0.19274244658E+02 0.11931376776E+02 0.90672034622E+01 0.80163429886E+01 0.74883374028E+01
 0.74888665617E+01 0.80169144098E+01 0.90665022760E+01 0.11930183660E+02 0.19274353535E+02
 0.32507041291E+02 0.50903065679E+02 0.71472985990E+02 0.89543408636E+02 0.10018664316E+03
 0.72688162194E+02 0.68683265932E+02 0.57914476742E+02 0.43556912069E+02 0.29375680242E+02
 0.18336701713E+02 0.11711070195E+02 0.88594297372E+01 0.77531489481E+01 0.71027251044E+01
 0.68903603408E+01 0.71029781936E+01 0.77533413804E+01 0.88593302069E+01 0.11710809510E+02
 0.18336588774E+02 0.29375817403E+02 0.43557109844E+02 0.57914538282E+02 0.68683224025E+02
 0.68685269451E+02 0.68683050287E+02 0.61285626300E+02 0.48757575270E+02 0.34632753136E+02
 0.22308308270E+02 0.13886168238E+02 0.96165945027E+01 0.80354189242E+01 0.72030733769E+01