    2    2    1    1
  0.1022814E+02  0.2376600E-09  0.2376600E-09  0.4182000E-09  0.5000000E-15
  1.000000000000000E-004
  CAR 
 unknown system                          
     16     96     40
 
  0.0000000E+00  0.0000000E+00  0.0000000E+00  0.7513148E-03
    1       -2.022632   1.000000
    2        1.867039   1.000000
    3        4.673304   1.000000
    4        5.292270   1.000000
    5        5.292380   1.000000
    6        5.595699   1.000000
    7        5.595832   1.000000
    8        6.161118   1.000007
    9        6.530355   1.023829
   10        6.530385   1.023836
   11        7.587442  -0.000001
   12        7.587473  -0.000001
   13       14.101157   0.000000
   14       30.224344   0.000000
   15       30.310095   0.000000
   16       33.192394   0.000000
   17       35.340253   0.000000
   18       35.340311   0.000000
   19       36.189082   0.000000
   20       36.189241   0.000000
   21       36.928169   0.000000
   22       39.064716   0.000000
   23       39.064743   0.000000
   24       40.087615   0.000000
   25       42.603457   0.000000
   26       42.603467   0.000000
   27       43.253295   0.000000
   28       46.296591   0.000000
   29       46.296951   0.000000
   30       48.133292   0.000000
   31       48.133401   0.000000
   32       50.555218   0.000000
   33       58.352257   0.000000
   34       61.426503   0.000000
   35       61.427376   0.000000
   36       61.835249   0.000000
   37       62.587649   0.000000
   38       63.522555   0.000000
   39       63.528675   0.000000
   40       64.248250   0.000000
 
  0.9090909E-01  0.7902970E-17  0.0000000E+00  0.4507889E-02
    1       -1.693740   1.000000
    2        2.111907   1.000000
    3        4.681539   1.000000
    4        5.233431   1.000000
    5        5.323548   1.000000
    6        5.479418   1.000000
    7        5.484042   1.000000
    8        5.771355   1.000000
    9        6.384883   1.002584
   10        6.420176   1.005056
   11        7.620911  -0.000000
   12        8.691610  -0.000000
   13       14.124432   0.000000
   14       28.905296   0.000000
   15       30.658263   0.000000
   16       31.473122   0.000000
   17       32.574441   0.000000
   18       34.995059   0.000000
   19       35.049090   0.000000
   20       36.758128   0.000000
   21       38.445474   0.000000
   22       39.079278   0.000000
   23       39.237902   0.000000
   24       39.790794   0.000000
   25       43.657922   0.000000
   26       43.809424   0.000000
   27       43.930665   0.000000
   28       44.220337   0.000000
   29       47.631264   0.000000
   30       49.463035   0.000000
   31       50.537182   0.000000
   32       52.538812   0.000000
   33       57.754622   0.000000
   34       60.020966   0.000000
   35       60.147337   0.000000
   36       60.754510   0.000000
   37       61.343972   0.000000
   38       64.245709   0.000000
   39       64.531151   0.000000
   40       65.548252   0.000000
 
  0.1818182E+00  0.8651941E-17  0.0000000E+00  0.4507889E-02
    1       -0.761543   1.000000
    2        2.692180   1.000000
    3        4.277961   1.000000
    4        4.496304   1.000000
    5        5.055922   1.000000
    6        5.610421   1.000000
    7        6.010996   1.000000
    8        6.035797   1.000000
    9        6.159665   1.000007
   10        6.263202   1.000146
   11        7.671621  -0.000000
   12       10.499691  -0.000000
   13       14.229832   0.000000
   14       25.113801   0.000000
   15       29.775586   0.000000
   16       30.223150   0.000000
   17       30.619915   0.000000
   18       31.674801   0.000000
   19       35.415046   0.000000
   20       36.422755   0.000000
   21       36.873726   0.000000
   22       37.528852   0.000000
   23       40.064332   0.000000
   24       40.929739   0.000000
   25       43.646253   0.000000
   26       44.877998   0.000000
   27       46.452648   0.000000
   28       48.644800   0.000000
   29       50.354223   0.000000
   30       52.994063   0.000000
   31       53.449149   0.000000
   32       56.007028   0.000000
   33       56.443555   0.000000
   34       56.946442   0.000000
   35       58.411246   0.000000
   36       60.005255   0.000000
   37       61.422798   0.000000
   38       64.007513   0.000000
   39       65.764792   0.000000
   40       66.026235   0.000000
 
  0.2727273E+00  0.2610699E-16  0.0000000E+00  0.4507889E-02
    1        0.568803   1.000000
    2        2.987086   1.000000
    3        3.472936   1.000000
    4        4.441571   1.000000
    5        4.877015   1.000000
    6        5.596844   1.000000
    7        5.863299   1.000000
    8        6.340357   1.000996
    9        6.764737   0.817766
   10        6.947134   0.129695
   11        7.701505  -0.000000
   12       12.549835   0.000000
   13       14.466611   0.000000
   14       21.114112   0.000000
   15       26.996799   0.000000
   16       27.369042   0.000000
   17       28.528064   0.000000
   18       31.604154   0.000000
   19       33.494017   0.000000
   20       36.668279   0.000000
   21       36.839759   0.000000
   22       37.282379   0.000000
   23       37.656720   0.000000
   24       41.334713   0.000000
   25       47.266907   0.000000
   26       48.787723   0.000000
   27       49.930972   0.000000
   28       51.093478   0.000000
   29       52.099474   0.000000
   30       53.354393   0.000000
   31       54.805174   0.000000
   32       56.080161   0.000000
   33       58.189539   0.000000
   34       58.291361   0.000000
   35       59.181932   0.000000
   36       60.734480   0.000000
   37       62.642602   0.000000
   38       63.759238   0.000000
   39       65.855641   0.000000
   40       66.368826   0.000000
 
  0.3636364E+00  0.4094886E-16  0.0000000E+00  0.4507889E-02
    1        1.783024   1.000000
    2        2.735653   1.000000
    3        2.941817   1.000000
    4        4.604103   1.000000
    5        5.205913   1.000000
    6        5.262722   1.000000
    7        5.616758   1.000000
    8        7.521339  -0.000010
    9        7.542801  -0.000005
   10        7.635264  -0.000000
   11        7.706689  -0.000000
   12       14.410034   0.000000
   13       14.752786   0.000000
   14       18.212464   0.000000
   15       23.714476   0.000000
   16       25.536414   0.000000
   17       25.669527   0.000000
   18       30.755348   0.000000
   19       32.433831   0.000000
   20       35.635120   0.000000
   21       36.399069   0.000000
   22       38.118328   0.000000
   23       38.664677   0.000000
   24       41.620040   0.000000
   25       48.817315   0.000000
   26       50.067134   0.000000
   27       50.782301   0.000000
   28       53.986155   0.000000
   29       54.011763   0.000000
   30       54.659230   0.000000
   31       56.850601   0.000000
   32       57.922733   0.000000
   33       58.027900   0.000000
   34       59.636571   0.000000
   35       61.530312   0.000000
   36       63.173834   0.000000
   37       63.430699   0.000000
   38       64.611659   0.000000
   39       66.263765   0.000000
   40       66.520898   0.000000
 
  0.4545455E+00  0.4863672E-16  0.0000000E+00  0.4507889E-02
    1        2.290419   1.000000
    2        2.495527   1.000000
    3        2.681236   1.000000
    4        4.976671   1.000000
    5        5.129604   1.000000
    6        5.479100   1.000000
    7        5.497445   1.000000
    8        7.703909  -0.000000
    9        7.988218  -0.000000
   10        8.102001  -0.000000
   11        9.193825  -0.000000
   12       12.587862   0.000000
   13       16.848790   0.000000
   14       18.189489   0.000000
   15       21.098291   0.000000
   16       22.985168   0.000000
   17       24.516947   0.000000
   18       30.142949   0.000000
   19       32.121854   0.000000
   20       34.521027   0.000000
   21       36.193131   0.000000
   22       38.971778   0.000000
   23       40.980419   0.000000
   24       41.460350   0.000000
   25       45.442063   0.000000
   26       50.429201   0.000000
   27       52.137840   0.000000
   28       56.296064   0.000000
   29       56.415365   0.000000
   30       57.190021   0.000000
   31       58.186436   0.000000
   32       59.779263   0.000000
   33       60.062743   0.000000
   34       61.404062   0.000000
   35       62.005630   0.000000
   36       62.644202   0.000000
   37       64.811913   0.000000
   38       65.302621   0.000000
   39       65.683911   0.000000
   40       66.442400   0.000000
 
  0.9090909E-01  0.9090909E-01  0.0000000E+00  0.4507889E-02
    1       -1.060673   1.000000
    2        2.542346   1.000000
    3        4.533277   1.000000
    4        4.551507   1.000000
    5        5.269454   1.000000
    6        5.302950   1.000000
    7        5.868071   1.000000
    8        6.003343   1.000000
    9        6.152430   1.000005
   10        6.384660   1.002573
   11        7.631798  -0.000000
   12        9.995249  -0.000000
   13       14.192850   0.000000
   14       26.858089   0.000000
   15       28.087315   0.000000
   16       31.153655   0.000000
   17       32.295953   0.000000
   18       33.676415   0.000000
   19       33.954147   0.000000
   20       35.391786   0.000000
   21       36.402278   0.000000
   22       40.702067   0.000000
   23       41.067662   0.000000
   24       41.682891   0.000000
   25       42.737671   0.000000
   26       42.872081   0.000000
   27       43.095009   0.000000
   28       49.225235   0.000000
   29       51.190761   0.000000
   30       51.281480   0.000000
   31       51.438347   0.000000
   32       55.455950   0.000000
   33       56.894677   0.000000
   34       57.757349   0.000000
   35       58.605145   0.000000
   36       59.991897   0.000000
   37       61.072740   0.000000
   38       64.471845   0.000000
   39       65.780304   0.000000
   40       66.173924   0.000000
 
  0.1818182E+00  0.9090909E-01  0.0000000E+00  0.9015778E-02
    1        0.094309   1.000000
    2        3.098498   1.000000
    3        3.764175   1.000000
    4        4.231018   1.000000
    5        4.977612   1.000000
    6        5.578546   1.000000
    7        5.730531   1.000000
    8        6.136309   1.000003
    9        6.561552   1.030723
   10        6.858608   0.451219
   11        7.629516  -0.000000
   12       11.829266  -0.000000
   13       14.407846   0.000000
   14       23.158632   0.000000
   15       25.748136   0.000000
   16       28.827924   0.000000
   17       30.993282   0.000000
   18       31.331125   0.000000
   19       34.412765   0.000000
   20       34.664733   0.000000
   21       35.621193   0.000000
   22       39.984180   0.000000
   23       40.427993   0.000000
   24       41.379162   0.000000
   25       44.503610   0.000000
   26       45.507060   0.000000
   27       47.438964   0.000000
   28       51.300608   0.000000
   29       53.613905   0.000000
   30       53.901497   0.000000
   31       54.284525   0.000000
   32       56.348126   0.000000
   33       57.409152   0.000000
   34       57.424792   0.000000
   35       58.547836   0.000000
   36       58.983199   0.000000
   37       61.876546   0.000000
   38       64.662502   0.000000
   39       66.096249   0.000000
   40       66.588397   0.000000
 
  0.2727273E+00  0.9090909E-01  0.0000000E+00  0.9015778E-02
    1        1.452716   1.000000
    2        3.059173   1.000000
    3        3.178179   1.000000
    4        4.296903   1.000000
    5        5.037307   1.000000
    6        5.226908   1.000000
    7        5.778503   1.000000
    8        6.483650   1.013785
    9        7.321776  -0.001999
   10        7.620560  -0.000000
   11        7.776251  -0.000000
   12       13.928761   0.000000
   13       14.767875   0.000000
   14       19.473649   0.000000
   15       24.049256   0.000000
   16       25.434396   0.000000
   17       27.978983   0.000000
   18       29.846692   0.000000
   19       33.585613   0.000000
   20       34.782722   0.000000
   21       36.153192   0.000000
   22       39.590013   0.000000
   23       39.898767   0.000000
   24       42.663212   0.000000
   25       46.441101   0.000000
   26       49.204066   0.000000
   27       50.531823   0.000000
   28       50.921655   0.000000
   29       52.534357   0.000000
   30       54.882858   0.000000
   31       56.195744   0.000000
   32       57.641846   0.000000
   33       58.532992   0.000000
   34       59.128328   0.000000
   35       60.777687   0.000000
   36       62.651837   0.000000
   37       63.947123   0.000000
   38       64.520574   0.000000
   39       65.109883   0.000000
   40       66.714319   0.000000
 
  0.3636364E+00  0.9090909E-01  0.0000000E+00  0.9015778E-02
    1        2.336396   1.000000
    2        2.753327   1.000000
    3        2.830939   1.000000
    4        4.684253   1.000000
    5        5.011150   1.000000
    6        5.401336   1.000000
    7        5.468969   1.000000
    8        7.385367  -0.000472
    9        7.605411  -0.000001
   10        7.846536  -0.000000
   11        8.955877  -0.000000
   12       13.985868   0.000000
   13       16.151633   0.000000
   14       17.983644   0.000000
   15       22.448590   0.000000
   16       22.720611   0.000000
   17       24.762359   0.000000
   18       28.972082   0.000000
   19       32.637609   0.000000
   20       34.270973   0.000000
   21       37.379757   0.000000
   22       40.012355   0.000000
   23       40.821744   0.000000
   24       42.257216   0.000000
   25       47.416270   0.000000
   26       49.189640   0.000000
   27       50.897839   0.000000
   28       52.825572   0.000000
   29       54.192931   0.000000
   30       56.480577   0.000000
   31       57.379278   0.000000
   32       59.110627   0.000000
   33       60.075969   0.000000
   34       62.267397   0.000000
   35       62.267563   0.000000
   36       63.449342   0.000000
   37       63.950388   0.000000
   38       65.050016   0.000000
   39       66.129793   0.000000
   40       66.694132   0.000000
 
  0.4545455E+00  0.9090909E-01  0.0000000E+00  0.4507889E-02
    1        2.513242   1.000000
    2        2.641139   1.000000
    3        2.717143   1.000000
    4        4.943178   1.000000
    5        5.059149   1.000000
    6        5.342499   1.000000
    7        5.510045   1.000000
    8        7.598952  -0.000001
    9        7.900045  -0.000000
   10        7.923410  -0.000000
   11       10.170817  -0.000000
   12       12.290062  -0.000000
   13       17.668883   0.000000
   14       18.639378   0.000000
   15       20.676116   0.000000
   16       21.848205   0.000000
   17       23.347818   0.000000
   18       28.662272   0.000000
   19       32.247467   0.000000
   20       34.111760   0.000000
   21       37.585047   0.000000
   22       40.927834   0.000000
   23       41.125486   0.000000
   24       42.534634   0.000000
   25       45.112768   0.000000
   26       50.720265   0.000000
   27       50.787426   0.000000
   28       53.645763   0.000000
   29       56.202300   0.000000
   30       56.539430   0.000000
   31       59.808413   0.000000
   32       59.873662   0.000000
   33       60.373367   0.000000
   34       60.439518   0.000000
   35       61.846587   0.000000
   36       64.287678   0.000000
   37       65.650865   0.000000
   38       65.719363   0.000000
   39       66.066540   0.000000
   40       67.738014   0.000000
 
  0.1818182E+00  0.1818182E+00  0.0000000E+00  0.4507889E-02
    1        1.348078   1.000000
    2        3.318483   1.000000
    3        3.545987   1.000000
    4        3.790277   1.000000
    5        5.032119   1.000000
    6        5.145349   1.000000
    7        5.915521   1.000000
    8        5.972714   1.000000
    9        7.296291  -0.003335
   10        7.525537  -0.000009
   11        7.841661  -0.000000
   12       13.666903   0.000000
   13       14.899827   0.000000
   14       21.197821   0.000000
   15       21.935227   0.000000
   16       27.002358   0.000000
   17       28.306126   0.000000
   18       30.282153   0.000000
   19       30.953138   0.000000
   20       35.735751   0.000000
   21       37.370025   0.000000
   22       41.052922   0.000000
   23       41.291950   0.000000
   24       43.771976   0.000000
   25       44.531811   0.000000
   26       46.504062   0.000000
   27       47.709750   0.000000
   28       52.394307   0.000000
   29       53.291466   0.000000
   30       54.633715   0.000000
   31       54.659032   0.000000
   32       58.120917   0.000000
   33       58.357395   0.000000
   34       60.963685   0.000000
   35       61.282610   0.000000
   36       61.531565   0.000000
   37       61.551435   0.000000
   38       65.167648   0.000000
   39       65.367732   0.000000
   40       67.902587   0.000000
 
  0.2727273E+00  0.1818182E+00  0.0000000E+00  0.9015778E-02
    1        2.559469   1.000000
    2        3.034972   1.000000
    3        3.283510   1.000000
    4        3.980010   1.000000
    5        4.895268   1.000000
    6        5.305084   1.000000
    7        5.526819   1.000000
    8        6.528931   1.023499
    9        7.433725  -0.000135
   10        7.783193  -0.000000
   11        9.096216  -0.000000
   12       15.449641   0.000000
   13       15.813167   0.000000
   14       18.312786   0.000000
   15       20.339462   0.000000
   16       24.331831   0.000000
   17       26.737445   0.000000
   18       26.809521   0.000000
   19       29.631798   0.000000
   20       37.851898   0.000000
   21       37.866695   0.000000
   22       41.045933   0.000000
   23       43.316840   0.000000
   24       44.480877   0.000000
   25       45.623294   0.000000
   26       47.625217   0.000000
   27       48.886679   0.000000
   28       50.203008   0.000000
   29       53.445138   0.000000
   30       54.151079   0.000000
   31       56.492488   0.000000
   32       59.194076   0.000000
   33       60.465502   0.000000
   34       61.548901   0.000000
   35       63.676454   0.000000
   36       63.791013   0.000000
   37       64.744270   0.000000
   38       65.471140   0.000000
   39       66.473167   0.000000
   40       67.882644   0.000000
 
  0.3636364E+00  0.1818182E+00  0.0000000E+00  0.9015778E-02
    1        2.907870   1.000000
    2        2.983653   1.000000
    3        3.084004   1.000000
    4        4.457155   1.000000
    5        4.878344   1.000000
    6        5.150853   1.000000
    7        5.570813   1.000000
    8        7.220442  -0.011995
    9        7.383050  -0.000499
   10        7.792733  -0.000000
   11       10.682264  -0.000000
   12       13.695550   0.000000
   13       18.022309   0.000000
   14       18.604319   0.000000
   15       19.518416   0.000000
   16       21.675223   0.000000
   17       23.881455   0.000000
   18       26.152025   0.000000
   19       28.985349   0.000000
   20       37.793892   0.000000
   21       39.818419   0.000000
   22       41.461634   0.000000
   23       43.013737   0.000000
   24       43.904166   0.000000
   25       47.480695   0.000000
   26       48.053946   0.000000
   27       49.883335   0.000000
   28       50.357902   0.000000
   29       53.945881   0.000000
   30       55.296334   0.000000
   31       55.909984   0.000000
   32       59.330916   0.000000
   33       59.803269   0.000000
   34       60.755497   0.000000
   35       64.769473   0.000000
   36       65.082152   0.000000
   37       66.583616   0.000000
   38       66.634542   0.000000
   39       66.689984   0.000000
   40       66.960126   0.000000
 
  0.2727273E+00  0.2727273E+00  0.0000000E+00  0.4507889E-02
    1        3.040045   1.000000
    2        3.349258   1.000000
    3        3.665716   1.000000
    4        3.705593   1.000000
    5        4.742326   1.000000
    6        5.143221   1.000000
    7        5.609751   1.000000
    8        6.790133   0.730394
    9        7.272017  -0.005233
   10        7.759941  -0.000000
   11       10.809522  -0.000000
   12       15.790883   0.000000
   13       16.367363   0.000000
   14       18.051132   0.000000
   15       19.280363   0.000000
   16       23.702153   0.000000
   17       23.705710   0.000000
   18       25.591558   0.000000
   19       26.454416   0.000000
   20       39.531183   0.000000
   21       40.391195   0.000000
   22       43.746985   0.000000
   23       44.686314   0.000000
   24       45.480763   0.000000
   25       45.577823   0.000000
   26       46.180125   0.000000
   27       48.527927   0.000000
   28       51.013393   0.000000
   29       51.298943   0.000000
   30       55.109634   0.000000
   31       55.454300   0.000000
   32       57.891371   0.000000
   33       59.677339   0.000000
   34       60.948588   0.000000
   35       64.694362   0.000000
   36       65.678299   0.000000
   37       65.686355   0.000000
   38       67.188663   0.000000
   39       67.293687   0.000000
   40       67.962831   0.000000
 
  0.3636364E+00  0.2727273E+00  0.0000000E+00  0.4507889E-02
    1        3.072498   1.000000
    2        3.502687   1.000000
    3        3.540764   1.000000
    4        4.033207   1.000000
    5        4.807985   1.000000
    6        4.847539   1.000000
    7        5.753474   1.000000
    8        7.154720  -0.025916
    9        7.209173  -0.014028
   10        7.453352  -0.000078
   11       12.570890   0.000000
   12       13.825469   0.000000
   13       15.985610   0.000000
   14       20.002052   0.000000
   15       20.258082   0.000000
   16       21.479392   0.000000
   17       23.492871   0.000000
   18       23.921194   0.000000
   19       25.852125   0.000000
   20       39.945582   0.000000
   21       42.715258   0.000000
   22       43.765191   0.000000
   23       43.950952   0.000000
   24       44.837135   0.000000
   25       46.487374   0.000000
   26       47.091238   0.000000
   27       50.193868   0.000000
   28       50.350992   0.000000
   29       50.713385   0.000000
   30       54.192298   0.000000
   31       55.614517   0.000000
   32       56.102789   0.000000
   33       59.347224   0.000000
   34       59.913373   0.000000
   35       65.231821   0.000000
   36       65.963871   0.000000
   37       67.366794   0.000000
   38       67.456371   0.000000
   39       67.458091   0.000000
   40       67.528159   0.000000
 
  0.0000000E+00  0.0000000E+00  0.9090909E-01  0.1502630E-02
    1       -1.943251   1.000000
    2        1.833199   1.000000
    3        4.651855   1.000000
    4        5.281545   1.000000
    5        5.281668   1.000000
    6        5.578246   1.000000
    7        5.578383   1.000000
    8        5.943409   1.000000
    9        6.567519   1.031856
   10        6.567551   1.031862
   11        7.577905  -0.000002
   12        7.577938  -0.000002
   13       14.479209   0.000000
   14       29.465376   0.000000
   15       30.469893   0.000000
   16       33.026474   0.000000
   17       35.389444   0.000000
   18       35.389500   0.000000
   19       36.164269   0.000000
   20       36.164479   0.000000
   21       37.439944   0.000000
   22       38.974922   0.000000
   23       38.974938   0.000000
   24       40.335657   0.000000
   25       42.255071   0.000000
   26       42.255084   0.000000
   27       43.484029   0.000000
   28       46.516580   0.000000
   29       46.516973   0.000000
   30       48.516621   0.000000
   31       48.516776   0.000000
   32       50.433323   0.000000
   33       57.724667   0.000000
   34       61.182085   0.000000
   35       61.183032   0.000000
   36       61.777883   0.000000
   37       61.778303   0.000000
   38       61.943478   0.000000
   39       63.296293   0.000000
   40       63.898120   0.000000
 
  0.9090909E-01  0.7902970E-17  0.9090909E-01  0.9015778E-02
    1       -1.616082   1.000000
    2        2.082622   1.000000
    3        4.671160   1.000000
    4        5.159520   1.000000
    5        5.202608   1.000000
    6        5.467490   1.000000
    7        5.523931   1.000000
    8        5.752715   1.000000
    9        6.429788   1.005989
   10        6.464489   1.010486
   11        7.607579  -0.000001
   12        8.536479  -0.000000
   13       14.539025   0.000000
   14       28.874933   0.000000
   15       30.033550   0.000000
   16       31.478296   0.000000
   17       32.644312   0.000000
   18       34.297224   0.000000
   19       35.650547   0.000000
   20       37.125865   0.000000
   21       38.132664   0.000000
   22       39.165503   0.000000
   23       39.320470   0.000000
   24       40.031494   0.000000
   25       43.409347   0.000000
   26       43.526702   0.000000
   27       44.489929   0.000000
   28       44.667629   0.000000
   29       47.471354   0.000000
   30       49.741923   0.000000
   31       50.846338   0.000000
   32       52.503373   0.000000
   33       56.583311   0.000000
   34       59.515766   0.000000
   35       60.203583   0.000000
   36       61.078631   0.000000
   37       61.617232   0.000000
   38       63.093702   0.000000
   39       64.034227   0.000000
   40       64.544734   0.000000
 
  0.1818182E+00  0.8651941E-17  0.9090909E-01  0.9015778E-02
    1       -0.690978   1.000000
    2        2.677111   1.000000
    3        4.198253   1.000000
    4        4.513139   1.000000
    5        5.025628   1.000000
    6        5.534703   1.000000
    7        5.956634   1.000000
    8        6.148203   1.000005
    9        6.188431   1.000017
   10        6.305828   1.000439
   11        7.654399  -0.000000
   12       10.146181  -0.000000
   13       14.771887   0.000000
   14       25.172083   0.000000
   15       29.661932   0.000000
   16       29.865752   0.000000
   17       30.982719   0.000000
   18       31.069338   0.000000
   19       35.112691   0.000000
   20       36.613548   0.000000
   21       37.011049   0.000000
   22       37.464160   0.000000
   23       40.471767   0.000000
   24       41.507366   0.000000
   25       43.894245   0.000000
   26       44.861055   0.000000
   27       46.243712   0.000000
   28       48.672716   0.000000
   29       50.210898   0.000000
   30       53.031526   0.000000
   31       53.770018   0.000000
   32       54.777815   0.000000
   33       55.866409   0.000000
   34       57.816223   0.000000
   35       58.414839   0.000000
   36       60.046500   0.000000
   37       61.605044   0.000000
   38       63.994249   0.000000
   39       64.758847   0.000000
   40       66.148729   0.000000
 
  0.2727273E+00  0.2610699E-16  0.9090909E-01  0.9015778E-02
    1        0.618848   1.000000
    2        2.982912   1.000000
    3        3.449290   1.000000
    4        4.449386   1.000000
    5        4.834958   1.000000
    6        5.611179   1.000000
    7        5.883815   1.000000
    8        6.381197   1.002399
    9        6.774085   0.787171
   10        6.932249   0.173236
   11        7.680081  -0.000000
   12       11.843553  -0.000000
   13       15.307684   0.000000
   14       21.178585   0.000000
   15       26.535974   0.000000
   16       27.474646   0.000000
   17       28.887510   0.000000
   18       31.343468   0.000000
   19       33.424954   0.000000
   20       35.722713   0.000000
   21       35.792980   0.000000
   22       38.284872   0.000000
   23       38.728387   0.000000
   24       42.040873   0.000000
   25       47.370229   0.000000
   26       48.530227   0.000000
   27       49.575034   0.000000
   28       49.642589   0.000000
   29       53.263648   0.000000
   30       53.493078   0.000000
   31       55.058237   0.000000
   32       56.462498   0.000000
   33       57.310362   0.000000
   34       57.816534   0.000000
   35       59.676787   0.000000
   36       60.679376   0.000000
   37       62.900066   0.000000
   38       64.096816   0.000000
   39       64.841244   0.000000
   40       66.537007   0.000000
 
  0.3636364E+00  0.4094886E-16  0.9090909E-01  0.9015778E-02
    1        1.777001   1.000000
    2        2.702116   1.000000
    3        3.024817   1.000000
    4        4.408001   1.000000
    5        5.265932   1.000000
    6        5.459894   1.000000
    7        5.650620   1.000000
    8        7.506974  -0.000016
    9        7.521700  -0.000010
   10        7.560406  -0.000003
   11        7.736526  -0.000000
   12       13.207243   0.000000
   13       15.959532   0.000000
   14       18.328975   0.000000
   15       23.294644   0.000000
   16       25.655327   0.000000
   17       26.135982   0.000000
   18       30.704888   0.000000
   19       32.415126   0.000000
   20       34.500710   0.000000
   21       36.669328   0.000000
   22       37.584679   0.000000
   23       39.519206   0.000000
   24       42.434701   0.000000
   25       47.394049   0.000000
   26       50.639079   0.000000
   27       51.429722   0.000000
   28       53.038582   0.000000
   29       53.756494   0.000000
   30       55.633493   0.000000
   31       56.481857   0.000000
   32       57.718647   0.000000
   33       58.666796   0.000000
   34       59.454454   0.000000
   35       61.619211   0.000000
   36       63.146362   0.000000
   37       63.822756   0.000000
   38       64.049057   0.000000
   39       66.454799   0.000000
   40       66.541814   0.000000
 
  0.4545455E+00  0.4863672E-16  0.9090909E-01  0.9015778E-02
    1        2.210661   1.000000
    2        2.413185   1.000000
    3        2.900147   1.000000
    4        4.474804   1.000000
    5        5.454586   1.000000
    6        5.516712   1.000000
    7        5.763111   1.000000
    8        7.644164  -0.000000
    9        7.992942  -0.000000
   10        8.102167  -0.000000
   11        9.107901  -0.000000
   12       12.406293   0.000000
   13       16.680468   0.000000
   14       18.265114   0.000000
   15       21.169775   0.000000
   16       23.396869   0.000000
   17       24.642788   0.000000
   18       30.135976   0.000000
   19       32.100600   0.000000
   20       33.643943   0.000000
   21       37.114438   0.000000