 vasp.6.2.0 18Jan21 (build Mar 17 2021 09:06:54) complex                        
  
 executed on             LinuxIFC date 2021.09.09  12:07:26
 serial version


--------------------------------------------------------------------------------------------------------


 INCAR:
   ENCUT = 280.000000
   SIGMA = 0.200000
   EDIFF = 1.00e-06
   GGA = PE
   PREC = normal
   IBRION = 1
   ICHARG = 1
   ISIF = 2
   ISMEAR = 1
   KPAR = 1
   NBANDS = 40
   NSW = 0
   NCORE = 1
   LCHARG = .TRUE.

 POTCAR:    PAW_PBE Fe 06Sep2000                  
 POTCAR:    PAW_PBE Fe 06Sep2000                  
   SHA256 =  cd5a22d9368cc8b5cc476bea79732366149640da08ac9009b0e1b7fc627eea28 Fe/POTCAR             
   COPYR  = (c) Copyright 06Sep2000 Georg Kresse                                                    
   COPYR  = This file is part of the software VASP. Any use, copying, and all other rights are regul
   COPYR  = If you do not have a valid VASP license, you may not use, copy or distribute this file. 
   VRHFIN =Fe:  d7 s1                                                                               
   LEXCH  = PE                                                                                      
   EATOM  =   594.3153 eV,   43.6809 Ry                                                             
                                                                                                    
   TITEL  = PAW_PBE Fe 06Sep2000                                                                    
   LULTRA =        F    use ultrasoft PP ?                                                          
   IUNSCR =        1    unscreen: 0-lin 1-nonlin 2-no                                               
   RPACOR =    2.000    partial core radius                                                         
   POMASS =   55.847; ZVAL   =    8.000    mass and valenz                                          
   RCORE  =    2.300    outmost cutoff radius                                                       
   RWIGS  =    2.460; RWIGS  =    1.302    wigner-seitz radius (au A)                               
   ENMAX  =  267.882; ENMIN  =  200.911 eV                                                          
   RCLOC  =    1.701    cutoff for local pot                                                        
   LCOR   =        T    correct aug charges                                                         
   LPAW   =        T    paw PP                                                                      
   EAUG   =  511.368                                                                                
   DEXC   =    0.000                                                                                
   RMAX   =    2.356    core radius for proj-oper                                                   
   RAUG   =    1.300    factor for augmentation sphere                                              
   RDEP   =    2.442    radius for radial grids                                                     
   RDEPT  =    1.890    core radius for aug-charge                                                  
                                                                                                    
   Atomic configuration                                                                             
    9 entries                                                                                       
     n  l   j            E        occ.                                                              
     1  0  0.50     -6993.8440   2.0000                                                             
     2  0  0.50      -814.6047   2.0000                                                             
     2  1  1.50      -693.3689   6.0000                                                             
     3  0  0.50       -89.4732   2.0000                                                             
     3  1  1.50       -55.6373   6.0000                                                             
     3  2  2.50        -3.8151   7.0000                                                             
     4  0  0.50        -4.2551   1.0000                                                             
     4  1  1.50        -3.4015   0.0000                                                             
     4  3  2.50        -1.3606   0.0000                                                             
   Description                                                                                      
     l       E           TYP  RCUT    TYP  RCUT                                                     
     2     -3.8151135     23  2.300                                                                 
     2     -5.1756961     23  2.300                                                                 
     0     -4.2550963     23  2.300                                                                 
     0      7.2035603     23  2.300                                                                 
     1     -2.7211652     23  2.300                                                                 
     1     18.4316424     23  2.300                                                                 
  local pseudopotential read in
  partial core-charges read in
  partial kinetic energy density read in
  atomic valenz-charges read in
  non local Contribution for L=           2  read in
    real space projection operators read in
  non local Contribution for L=           2  read in
    real space projection operators read in
  non local Contribution for L=           0  read in
    real space projection operators read in
  non local Contribution for L=           0  read in
    real space projection operators read in
  non local Contribution for L=           1  read in
    real space projection operators read in
  non local Contribution for L=           1  read in
    real space projection operators read in
    PAW grid and wavefunctions read in
 
   number of l-projection  operators is LMAX  =           6
   number of lm-projection operators is LMMAX =          18
 
  PAW_PBE Fe 06Sep2000                  :
 energy of atom  1       EATOM= -594.3153
 kinetic energy error for atom=    0.0278 (will be added to EATOM!!)
 
 
 POSCAR: Fe
  positions in cartesian coordinates
  No initial velocities read in
 exchange correlation table for  LEXCH =        8
   RHO(1)=    0.500       N(1)  =     2000
   RHO(2)=  100.500       N(2)  =     4000
 


--------------------------------------------------------------------------------------------------------


 ion  position               nearest neighbor table
   1  0.000  0.000  0.000-   2 2.50   2 2.50   2 2.50   2 2.50   2 2.50   2 2.50
   2  0.333  0.667  0.500-   1 2.50   1 2.50   1 2.50   1 2.50   1 2.50   1 2.50
 
  LATTYP: Found a hexagonal cell.
 ALAT       =     2.3766000000
 C/A-ratio  =     1.7596566524
  
  Lattice vectors:
  
 A1 = (   2.3766000000,   0.0000000000,   0.0000000000)
 A2 = (  -1.1883000000,   2.0581959746,   0.0000000000)
 A3 = (   0.0000000000,   0.0000000000,   4.1820000000)


Analysis of symmetry for initial positions (statically):
=====================================================================
 Subroutine PRICEL returns:
 Original cell was already a primitive cell.
 

 Routine SETGRP: Setting up the symmetry group for a 
 hexagonal supercell.


 Subroutine GETGRP returns: Found 24 space group operations
 (whereof 12 operations were pure point group operations)
 out of a pool of 24 trial point group operations.


The static configuration has the point symmetry D_3h.
 The point group associated with its full space group is D_6h.


Analysis of symmetry for dynamics (positions and initial velocities):
=====================================================================
 Subroutine PRICEL returns:
 Original cell was already a primitive cell.
 

 Routine SETGRP: Setting up the symmetry group for a 
 hexagonal supercell.


 Subroutine GETGRP returns: Found 24 space group operations
 (whereof 12 operations were pure point group operations)
 out of a pool of 24 trial point group operations.


The dynamic configuration has the point symmetry D_3h.
 The point group associated with its full space group is D_6h.


 Subroutine INISYM returns: Found 24 space group operations
 (whereof 12 operations are pure point group operations),
 and found     1 'primitive' translations


----------------------------------------------------------------------------------------

                                     Primitive cell                                     

  volume of cell :      20.4563

  direct lattice vectors                    reciprocal lattice vectors
     2.376600000  0.000000000  0.000000000     0.420769166  0.242931191  0.000000000
    -1.188300000  2.058195975  0.000000000     0.000000000  0.485862383  0.000000000
     0.000000000  0.000000000  4.182000000     0.000000000  0.000000000  0.239120038

  length of vectors
     2.376600000  2.376600000  4.182000000     0.485862383  0.485862383  0.239120038

  position of ions in fractional coordinates (direct lattice)
     0.000000000  0.000000000  0.000000000
     0.333333333  0.666666667  0.500000000

  ion indices of the primitive-cell ions
   primitive index   ion index
                 1           1
                 2           2

----------------------------------------------------------------------------------------

 
 
 KPOINTS: KPOINTS created by Atomic Simulation Env

Automatic generation of k-mesh.
 Grid dimensions read from file:
 generate k-points for:   11   11   11

 Generating k-lattice:

  Cartesian coordinates                     Fractional coordinates (reciprocal lattice)
     0.038251742  0.022084654  0.000000000     0.090909091  0.000000000  0.000000000
     0.000000000  0.044169308  0.000000000     0.000000000  0.090909091  0.000000000
     0.000000000  0.000000000  0.021738185     0.000000000  0.000000000  0.090909091

  Length of vectors
     0.044169308  0.044169308  0.021738185

  Shift w.r.t. Gamma in fractional coordinates (k-lattice)
     0.000000000  0.000000000  0.000000000

 
 Subroutine IBZKPT returns following result:
 ===========================================
 
 Found     96 irreducible k-points:
 
 Following reciprocal coordinates:
            Coordinates               Weight
  0.000000  0.000000  0.000000      1.000000
  0.090909  0.000000  0.000000      6.000000
  0.181818  0.000000  0.000000      6.000000
  0.272727  0.000000  0.000000      6.000000
  0.363636  0.000000  0.000000      6.000000
  0.454545  0.000000  0.000000      6.000000
  0.090909  0.090909  0.000000      6.000000
  0.181818  0.090909  0.000000     12.000000
  0.272727  0.090909  0.000000     12.000000
  0.363636  0.090909  0.000000     12.000000
  0.454545  0.090909  0.000000      6.000000
  0.181818  0.181818  0.000000      6.000000
  0.272727  0.181818  0.000000     12.000000
  0.363636  0.181818  0.000000     12.000000
  0.272727  0.272727  0.000000      6.000000
  0.363636  0.272727  0.000000      6.000000
  0.000000  0.000000  0.090909      2.000000
  0.090909  0.000000  0.090909     12.000000
  0.181818  0.000000  0.090909     12.000000
  0.272727  0.000000  0.090909     12.000000
  0.363636  0.000000  0.090909     12.000000
  0.454545  0.000000  0.090909     12.000000
  0.090909  0.090909  0.090909     12.000000
  0.181818  0.090909  0.090909     24.000000
  0.272727  0.090909  0.090909     24.000000
  0.363636  0.090909  0.090909     24.000000
  0.454545  0.090909  0.090909     12.000000
  0.181818  0.181818  0.090909     12.000000
  0.272727  0.181818  0.090909     24.000000
  0.363636  0.181818  0.090909     24.000000
  0.272727  0.272727  0.090909     12.000000
  0.363636  0.272727  0.090909     12.000000
  0.000000  0.000000  0.181818      2.000000
  0.090909  0.000000  0.181818     12.000000
  0.181818  0.000000  0.181818     12.000000
  0.272727  0.000000  0.181818     12.000000
  0.363636  0.000000  0.181818     12.000000
  0.454545  0.000000  0.181818     12.000000
  0.090909  0.090909  0.181818     12.000000
  0.181818  0.090909  0.181818     24.000000
  0.272727  0.090909  0.181818     24.000000
  0.363636  0.090909  0.181818     24.000000
  0.454545  0.090909  0.181818     12.000000
  0.181818  0.181818  0.181818     12.000000
  0.272727  0.181818  0.181818     24.000000
  0.363636  0.181818  0.181818     24.000000
  0.272727  0.272727  0.181818     12.000000
  0.363636  0.272727  0.181818     12.000000
  0.000000  0.000000  0.272727      2.000000
  0.090909  0.000000  0.272727     12.000000
  0.181818  0.000000  0.272727     12.000000
  0.272727  0.000000  0.272727     12.000000
  0.363636  0.000000  0.272727     12.000000
  0.454545  0.000000  0.272727     12.000000
  0.090909  0.090909  0.272727     12.000000
  0.181818  0.090909  0.272727     24.000000
  0.272727  0.090909  0.272727     24.000000
  0.363636  0.090909  0.272727     24.000000
  0.454545  0.090909  0.272727     12.000000
  0.181818  0.181818  0.272727     12.000000
  0.272727  0.181818  0.272727     24.000000
  0.363636  0.181818  0.272727     24.000000
  0.272727  0.272727  0.272727     12.000000
  0.363636  0.272727  0.272727     12.000000
  0.000000  0.000000  0.363636      2.000000
  0.090909  0.000000  0.363636     12.000000
  0.181818  0.000000  0.363636     12.000000
  0.272727  0.000000  0.363636     12.000000
  0.363636  0.000000  0.363636     12.000000
  0.454545  0.000000  0.363636     12.000000
  0.090909  0.090909  0.363636     12.000000
  0.181818  0.090909  0.363636     24.000000
  0.272727  0.090909  0.363636     24.000000
  0.363636  0.090909  0.363636     24.000000
  0.454545  0.090909  0.363636     12.000000
  0.181818  0.181818  0.363636     12.000000
  0.272727  0.181818  0.363636     24.000000
  0.363636  0.181818  0.363636     24.000000
  0.272727  0.272727  0.363636     12.000000
  0.363636  0.272727  0.363636     12.000000
  0.000000  0.000000  0.454545      2.000000
  0.090909  0.000000  0.454545     12.000000
  0.181818  0.000000  0.454545     12.000000
  0.272727  0.000000  0.454545     12.000000
  0.363636  0.000000  0.454545     12.000000
  0.454545  0.000000  0.454545     12.000000
  0.090909  0.090909  0.454545     12.000000
  0.181818  0.090909  0.454545     24.000000
  0.272727  0.090909  0.454545     24.000000
  0.363636  0.090909  0.454545     24.000000
  0.454545  0.090909  0.454545     12.000000
  0.181818  0.181818  0.454545     12.000000
  0.272727  0.181818  0.454545     24.000000
  0.363636  0.181818  0.454545     24.000000
  0.272727  0.272727  0.454545     12.000000
  0.363636  0.272727  0.454545     12.000000
 
 Following cartesian coordinates:
            Coordinates               Weight
  0.000000  0.000000  0.000000      1.000000
  0.038252  0.022085  0.000000      6.000000
  0.076503  0.044169  0.000000      6.000000
  0.114755  0.066254  0.000000      6.000000
  0.153007  0.088339  0.000000      6.000000
  0.191259  0.110423  0.000000      6.000000
  0.038252  0.066254  0.000000      6.000000
  0.076503  0.088339  0.000000     12.000000
  0.114755  0.110423  0.000000     12.000000
  0.153007  0.132508  0.000000     12.000000
  0.191259  0.154593  0.000000      6.000000
  0.076503  0.132508  0.000000      6.000000
  0.114755  0.154593  0.000000     12.000000
  0.153007  0.176677  0.000000     12.000000
  0.114755  0.198762  0.000000      6.000000
  0.153007  0.220847  0.000000      6.000000
  0.000000  0.000000  0.021738      2.000000
  0.038252  0.022085  0.021738     12.000000
  0.076503  0.044169  0.021738     12.000000
  0.114755  0.066254  0.021738     12.000000
  0.153007  0.088339  0.021738     12.000000
  0.191259  0.110423  0.021738     12.000000
  0.038252  0.066254  0.021738     12.000000
  0.076503  0.088339  0.021738     24.000000
  0.114755  0.110423  0.021738     24.000000
  0.153007  0.132508  0.021738     24.000000
  0.191259  0.154593  0.021738     12.000000
  0.076503  0.132508  0.021738     12.000000
  0.114755  0.154593  0.021738     24.000000
  0.153007  0.176677  0.021738     24.000000
  0.114755  0.198762  0.021738     12.000000
  0.153007  0.220847  0.021738     12.000000
  0.000000  0.000000  0.043476      2.000000
  0.038252  0.022085  0.043476     12.000000
  0.076503  0.044169  0.043476     12.000000
  0.114755  0.066254  0.043476     12.000000
  0.153007  0.088339  0.043476     12.000000
  0.191259  0.110423  0.043476     12.000000
  0.038252  0.066254  0.043476     12.000000
  0.076503  0.088339  0.043476     24.000000
  0.114755  0.110423  0.043476     24.000000
  0.153007  0.132508  0.043476     24.000000
  0.191259  0.154593  0.043476     12.000000
  0.076503  0.132508  0.043476     12.000000
  0.114755  0.154593  0.043476     24.000000
  0.153007  0.176677  0.043476     24.000000
  0.114755  0.198762  0.043476     12.000000
  0.153007  0.220847  0.043476     12.000000
  0.000000  0.000000  0.065215      2.000000
  0.038252  0.022085  0.065215     12.000000
  0.076503  0.044169  0.065215     12.000000
  0.114755  0.066254  0.065215     12.000000
  0.153007  0.088339  0.065215     12.000000
  0.191259  0.110423  0.065215     12.000000
  0.038252  0.066254  0.065215     12.000000
  0.076503  0.088339  0.065215     24.000000
  0.114755  0.110423  0.065215     24.000000
  0.153007  0.132508  0.065215     24.000000
  0.191259  0.154593  0.065215     12.000000
  0.076503  0.132508  0.065215     12.000000
  0.114755  0.154593  0.065215     24.000000
  0.153007  0.176677  0.065215     24.000000
  0.114755  0.198762  0.065215     12.000000
  0.153007  0.220847  0.065215     12.000000
  0.000000  0.000000  0.086953      2.000000
  0.038252  0.022085  0.086953     12.000000
  0.076503  0.044169  0.086953     12.000000
  0.114755  0.066254  0.086953     12.000000
  0.153007  0.088339  0.086953     12.000000
  0.191259  0.110423  0.086953     12.000000
  0.038252  0.066254  0.086953     12.000000
  0.076503  0.088339  0.086953     24.000000
  0.114755  0.110423  0.086953     24.000000
  0.153007  0.132508  0.086953     24.000000
  0.191259  0.154593  0.086953     12.000000
  0.076503  0.132508  0.086953     12.000000
  0.114755  0.154593  0.086953     24.000000
  0.153007  0.176677  0.086953     24.000000
  0.114755  0.198762  0.086953     12.000000
  0.153007  0.220847  0.086953     12.000000
  0.000000  0.000000  0.108691      2.000000
  0.038252  0.022085  0.108691     12.000000
  0.076503  0.044169  0.108691     12.000000
  0.114755  0.066254  0.108691     12.000000
  0.153007  0.088339  0.108691     12.000000
  0.191259  0.110423  0.108691     12.000000
  0.038252  0.066254  0.108691     12.000000
  0.076503  0.088339  0.108691     24.000000
  0.114755  0.110423  0.108691     24.000000
  0.153007  0.132508  0.108691     24.000000
  0.191259  0.154593  0.108691     12.000000
  0.076503  0.132508  0.108691     12.000000
  0.114755  0.154593  0.108691     24.000000
  0.153007  0.176677  0.108691     24.000000
  0.114755  0.198762  0.108691     12.000000
  0.153007  0.220847  0.108691     12.000000
 


--------------------------------------------------------------------------------------------------------




 Dimension of arrays:
   k-points           NKPTS =     96   k-points in BZ     NKDIM =     96   number of bands    NBANDS=     40
   number of dos      NEDOS =    301   number of ions     NIONS =      2
   non local maximal  LDIM  =      6   non local SUM 2l+1 LMDIM =     18
   total plane-waves  NPLWV =   1800
   max r-space proj   IRMAX =      1   max aug-charges    IRDMAX=   3334
   dimension x,y,z NGX =    10 NGY =   10 NGZ =   18
   dimension x,y,z NGXF=    20 NGYF=   20 NGZF=   36
   support grid    NGXF=    20 NGYF=   20 NGZF=   36
   ions per type =               2
   NGX,Y,Z   is equivalent  to a cutoff of   7.00,  7.00,  7.16 a.u.
   NGXF,Y,Z  is equivalent  to a cutoff of  13.99, 13.99, 14.31 a.u.

 SYSTEM =  unknown system                          
 POSCAR =  Fe                                      

 Startparameter for this run:
   NWRITE =      2    write-flag & timer
   PREC   = normal    normal or accurate (medium, high low for compatibility)
   ISTART =      0    job   : 0-new  1-cont  2-samecut
   ICHARG =      1    charge: 1-file 2-atom 10-const
   ISPIN  =      1    spin polarized calculation?
   LNONCOLLINEAR =      F non collinear calculations
   LSORBIT =      F    spin-orbit coupling
   INIWAV =      1    electr: 0-lowe 1-rand  2-diag
   LASPH  =      F    aspherical Exc in radial PAW
   METAGGA=      F    non-selfconsistent MetaGGA calc.

 Electronic Relaxation 1
   ENCUT  =  280.0 eV  20.58 Ry    4.54 a.u.   3.24  3.24  5.71*2*pi/ulx,y,z
   ENINI  =  280.0     initial cutoff
   ENAUG  =  511.4 eV  augmentation charge cutoff
   NELM   =     60;   NELMIN=  2; NELMDL= -5     # of ELM steps 
   EDIFF  = 0.1E-05   stopping-criterion for ELM
   LREAL  =      F    real-space projection
   NLSPLINE    = F    spline interpolate recip. space projectors
   LCOMPAT=      F    compatible to vasp.4.4
   GGA_COMPAT  = T    GGA compatible to vasp.4.4-vasp.4.6
   LMAXPAW     = -100 max onsite density
   LMAXMIX     =    2 max onsite mixed and CHGCAR
   VOSKOWN=      0    Vosko Wilk Nusair interpolation
   ROPT   =    0.00000
 Ionic relaxation
   EDIFFG = 0.1E-04   stopping-criterion for IOM
   NSW    =      0    number of steps for IOM
   NBLOCK =      1;   KBLOCK =      1    inner block; outer block 
   IBRION =     -1    ionic relax: 0-MD 1-quasi-New 2-CG
   NFREE  =      0    steps in history (QN), initial steepest desc. (CG)
   ISIF   =      2    stress and relaxation
   IWAVPR =      0    prediction:  0-non 1-charg 2-wave 3-comb
   ISYM   =      2    0-nonsym 1-usesym 2-fastsym
   LCORR  =      T    Harris-Foulkes like correction to forces

   POTIM  = 0.5000    time-step for ionic-motion
   TEIN   =    0.0    initial temperature
   TEBEG  =    0.0;   TEEND  =   0.0 temperature during run
   SMASS  =  -3.00    Nose mass-parameter (am)
   estimated Nose-frequenzy (Omega)   =  0.10E-29 period in steps = 0.13E+47 mass=  -0.129E-27a.u.
   SCALEE = 1.0000    scale energy and forces
   NPACO  =    256;   APACO  = 16.0  distance and # of slots for P.C.
   PSTRESS=    0.0 pullay stress

  Mass of Ions in am
   POMASS =  55.85
  Ionic Valenz
   ZVAL   =   8.00
  Atomic Wigner-Seitz radii
   RWIGS  =  -1.00
  virtual crystal weights 
   VCA    =   1.00
   NELECT =      16.0000    total number of electrons
   NUPDOWN=      -1.0000    fix difference up-down

 DOS related values:
   EMIN   =  10.00;   EMAX   =-10.00  energy-range for DOS
   EFERMI =   0.00
   ISMEAR =     1;   SIGMA  =   0.20  broadening in eV -4-tet -1-fermi 0-gaus

 Electronic relaxation 2 (details)
   IALGO  =     38    algorithm
   LDIAG  =      T    sub-space diagonalisation (order eigenvalues)
   LSUBROT=      F    optimize rotation matrix (better conditioning)
   TURBO    =      0    0=normal 1=particle mesh
   IRESTART =      0    0=no restart 2=restart with 2 vectors
   NREBOOT  =      0    no. of reboots
   NMIN     =      0    reboot dimension
   EREF     =   0.00    reference energy to select bands
   IMIX   =      4    mixing-type and parameters
     AMIX     =   0.40;   BMIX     =  1.00
     AMIX_MAG =   1.60;   BMIX_MAG =  1.00
     AMIN     =   0.10
     WC   =   100.;   INIMIX=   1;  MIXPRE=   1;  MAXMIX= -45

 Intra band minimization:
   WEIMIN = 0.0000     energy-eigenvalue tresh-hold
   EBREAK =  0.62E-08  absolut break condition
   DEPER  =   0.30     relativ break condition  

   TIME   =   0.40     timestep for ELM

  volume/ion in A,a.u.               =      10.23        69.02
  Fermi-wavevector in a.u.,A,eV,Ry     =   1.508363  2.850393 30.955417  2.275159
  Thomas-Fermi vector in A             =   2.618827
 
 Write flags
   LWAVE        =      T    write WAVECAR
   LDOWNSAMPLE  =      F    k-point downsampling of WAVECAR
   LCHARG       =      T    write CHGCAR
   LVTOT        =      F    write LOCPOT, total local potential
   LVHAR        =      F    write LOCPOT, Hartree potential only
   LELF         =      F    write electronic localiz. function (ELF)
   LORBIT       =      0    0 simple, 1 ext, 2 COOP (PROOUT), +10 PAW based schemes


 Dipole corrections
   LMONO  =      F    monopole corrections only (constant potential shift)
   LDIPOL =      F    correct potential (dipole corrections)
   IDIPOL =      0    1-x, 2-y, 3-z, 4-all directions 
   EPSILON=  1.0000000 bulk dielectric constant

 Exchange correlation treatment:
   GGA     =    PE    GGA type
   LEXCH   =     8    internal setting for exchange type
   VOSKOWN=      0    Vosko Wilk Nusair interpolation
   LHFCALC =     F    Hartree Fock is set to
   LHFONE  =     F    Hartree Fock one center treatment
   AEXX    =    0.0000 exact exchange contribution

 Linear response parameters
   LEPSILON=     F    determine dielectric tensor
   LRPA    =     F    only Hartree local field effects (RPA)
   LNABLA  =     F    use nabla operator in PAW spheres
   LVEL    =     F    velocity operator in full k-point grid
   LINTERFAST=   F  fast interpolation
   KINTER  =     0    interpolate to denser k-point grid
   CSHIFT  =0.1000    complex shift for real part using Kramers Kronig
   OMEGAMAX=  -1.0    maximum frequency
   DEG_THRESHOLD= 0.2000000E-02 threshold for treating states as degnerate
   RTIME   =   -0.100 relaxation time in fs
  (WPLASMAI=    0.000 imaginary part of plasma frequency in eV, 0.658/RTIME)
   DFIELD  = 0.0000000 0.0000000 0.0000000 field for delta impulse in time
 
 Orbital magnetization related:
   ORBITALMAG=     F  switch on orbital magnetization
   LCHIMAG   =     F  perturbation theory with respect to B field
   DQ        =  0.001000  dq finite difference perturbation B field
   LLRAUG    =     F  two centre corrections for induced B field



--------------------------------------------------------------------------------------------------------


 Static calculation
 charge density and potential will be updated during run
 non-spin polarized calculation
 Variant of blocked Davidson
 Davidson routine will perform the subspace rotation
 perform sub-space diagonalisation
    after iterative eigenvector-optimisation
 modified Broyden-mixing scheme, WC =      100.0
 initial mixing is a Kerker type mixing with AMIX =  0.4000 and BMIX =      1.0000
 Hartree-type preconditioning will be used
 using additional bands           32
 reciprocal scheme for non local part
 use partial core corrections
 calculate Harris-corrections to forces 
   (improved forces if not selfconsistent)
 use gradient corrections 
 use of overlap-Matrix (Vanderbilt PP)
 Methfessel and Paxton  Order N= 1 SIGMA  =   0.20


--------------------------------------------------------------------------------------------------------


  energy-cutoff  :      280.00
  volume of cell :       20.46
      direct lattice vectors                 reciprocal lattice vectors
     2.376600000  0.000000000  0.000000000     0.420769166  0.242931191  0.000000000
    -1.188300000  2.058195975  0.000000000     0.000000000  0.485862383  0.000000000
     0.000000000  0.000000000  4.182000000     0.000000000  0.000000000  0.239120038

  length of vectors
     2.376600000  2.376600000  4.182000000     0.485862383  0.485862383  0.239120038


 
 k-points in units of 2pi/SCALE and weight: KPOINTS created by Atomic Simulation Env
   0.00000000  0.00000000  0.00000000       0.001
   0.03825174  0.02208465  0.00000000       0.005
   0.07650348  0.04416931  0.00000000       0.005
   0.11475523  0.06625396  0.00000000       0.005
   0.15300697  0.08833862  0.00000000       0.005
   0.19125871  0.11042327  0.00000000       0.005
   0.03825174  0.06625396  0.00000000       0.005
   0.07650348  0.08833862  0.00000000       0.009
   0.11475523  0.11042327  0.00000000       0.009
   0.15300697  0.13250792  0.00000000       0.009
   0.19125871  0.15459258  0.00000000       0.005
   0.07650348  0.13250792  0.00000000       0.005
   0.11475523  0.15459258  0.00000000       0.009
   0.15300697  0.17667723  0.00000000       0.009
   0.11475523  0.19876188  0.00000000       0.005
   0.15300697  0.22084654  0.00000000       0.005
   0.00000000  0.00000000  0.02173819       0.002
   0.03825174  0.02208465  0.02173819       0.009
   0.07650348  0.04416931  0.02173819       0.009
   0.11475523  0.06625396  0.02173819       0.009
   0.15300697  0.08833862  0.02173819       0.009
   0.19125871  0.11042327  0.02173819       0.009
   0.03825174  0.06625396  0.02173819       0.009
   0.07650348  0.08833862  0.02173819       0.018
   0.11475523  0.11042327  0.02173819       0.018
   0.15300697  0.13250792  0.02173819       0.018
   0.19125871  0.15459258  0.02173819       0.009
   0.07650348  0.13250792  0.02173819       0.009
   0.11475523  0.15459258  0.02173819       0.018
   0.15300697  0.17667723  0.02173819       0.018
   0.11475523  0.19876188  0.02173819       0.009
   0.15300697  0.22084654  0.02173819       0.009
   0.00000000  0.00000000  0.04347637       0.002
   0.03825174  0.02208465  0.04347637       0.009
   0.07650348  0.04416931  0.04347637       0.009
   0.11475523  0.06625396  0.04347637       0.009
   0.15300697  0.08833862  0.04347637       0.009
   0.19125871  0.11042327  0.04347637       0.009
   0.03825174  0.06625396  0.04347637       0.009
   0.07650348  0.08833862  0.04347637       0.018
   0.11475523  0.11042327  0.04347637       0.018
   0.15300697  0.13250792  0.04347637       0.018
   0.19125871  0.15459258  0.04347637       0.009
   0.07650348  0.13250792  0.04347637       0.009
   0.11475523  0.15459258  0.04347637       0.018
   0.15300697  0.17667723  0.04347637       0.018
   0.11475523  0.19876188  0.04347637       0.009
   0.15300697  0.22084654  0.04347637       0.009
   0.00000000  0.00000000  0.06521456       0.002
   0.03825174  0.02208465  0.06521456       0.009
   0.07650348  0.04416931  0.06521456       0.009
   0.11475523  0.06625396  0.06521456       0.009
   0.15300697  0.08833862  0.06521456       0.009
   0.19125871  0.11042327  0.06521456       0.009
   0.03825174  0.06625396  0.06521456       0.009
   0.07650348  0.08833862  0.06521456       0.018
   0.11475523  0.11042327  0.06521456       0.018
   0.15300697  0.13250792  0.06521456       0.018
   0.19125871  0.15459258  0.06521456       0.009
   0.07650348  0.13250792  0.06521456       0.009
   0.11475523  0.15459258  0.06521456       0.018
   0.15300697  0.17667723  0.06521456       0.018
   0.11475523  0.19876188  0.06521456       0.009
   0.15300697  0.22084654  0.06521456       0.009
   0.00000000  0.00000000  0.08695274       0.002
   0.03825174  0.02208465  0.08695274       0.009
   0.07650348  0.04416931  0.08695274       0.009
   0.11475523  0.06625396  0.08695274       0.009
   0.15300697  0.08833862  0.08695274       0.009
   0.19125871  0.11042327  0.08695274       0.009
   0.03825174  0.06625396  0.08695274       0.009
   0.07650348  0.08833862  0.08695274       0.018
   0.11475523  0.11042327  0.08695274       0.018
   0.15300697  0.13250792  0.08695274       0.018
   0.19125871  0.15459258  0.08695274       0.009
   0.07650348  0.13250792  0.08695274       0.009
   0.11475523  0.15459258  0.08695274       0.018
   0.15300697  0.17667723  0.08695274       0.018
   0.11475523  0.19876188  0.08695274       0.009
   0.15300697  0.22084654  0.08695274       0.009
   0.00000000  0.00000000  0.10869093       0.002
   0.03825174  0.02208465  0.10869093       0.009
   0.07650348  0.04416931  0.10869093       0.009
   0.11475523  0.06625396  0.10869093       0.009
   0.15300697  0.08833862  0.10869093       0.009
   0.19125871  0.11042327  0.10869093       0.009
   0.03825174  0.06625396  0.10869093       0.009
   0.07650348  0.08833862  0.10869093       0.018
   0.11475523  0.11042327  0.10869093       0.018
   0.15300697  0.13250792  0.10869093       0.018
   0.19125871  0.15459258  0.10869093       0.009
   0.07650348  0.13250792  0.10869093       0.009
   0.11475523  0.15459258  0.10869093       0.018
   0.15300697  0.17667723  0.10869093       0.018
   0.11475523  0.19876188  0.10869093       0.009
   0.15300697  0.22084654  0.10869093       0.009
 
 k-points in reciprocal lattice and weights: KPOINTS created by Atomic Simulation Env
   0.00000000  0.00000000  0.00000000       0.001
   0.09090909  0.00000000  0.00000000       0.005
   0.18181818  0.00000000  0.00000000       0.005
   0.27272727  0.00000000  0.00000000       0.005
   0.36363636  0.00000000  0.00000000       0.005
   0.45454545  0.00000000  0.00000000       0.005
   0.09090909  0.09090909  0.00000000       0.005
   0.18181818  0.09090909  0.00000000       0.009
   0.27272727  0.09090909  0.00000000       0.009
   0.36363636  0.09090909  0.00000000       0.009
   0.45454545  0.09090909  0.00000000       0.005
   0.18181818  0.18181818  0.00000000       0.005
   0.27272727  0.18181818  0.00000000       0.009
   0.36363636  0.18181818  0.00000000       0.009
   0.27272727  0.27272727  0.00000000       0.005
   0.36363636  0.27272727  0.00000000       0.005
   0.00000000  0.00000000  0.09090909       0.002
   0.09090909  0.00000000  0.09090909       0.009
   0.18181818  0.00000000  0.09090909       0.009
   0.27272727  0.00000000  0.09090909       0.009
   0.36363636  0.00000000  0.09090909       0.009
   0.45454545  0.00000000  0.09090909       0.009
   0.09090909  0.09090909  0.09090909       0.009
   0.18181818  0.09090909  0.09090909       0.018
   0.27272727  0.09090909  0.09090909       0.018
   0.36363636  0.09090909  0.09090909       0.018
   0.45454545  0.09090909  0.09090909       0.009
   0.18181818  0.18181818  0.09090909       0.009
   0.27272727  0.18181818  0.09090909       0.018
   0.36363636  0.18181818  0.09090909       0.018
   0.27272727  0.27272727  0.09090909       0.009
   0.36363636  0.27272727  0.09090909       0.009
   0.00000000  0.00000000  0.18181818       0.002
   0.09090909  0.00000000  0.18181818       0.009
   0.18181818  0.00000000  0.18181818       0.009
   0.27272727  0.00000000  0.18181818       0.009
   0.36363636  0.00000000  0.18181818       0.009
   0.45454545  0.00000000  0.18181818       0.009
   0.09090909  0.09090909  0.18181818       0.009
   0.18181818  0.09090909  0.18181818       0.018
   0.27272727  0.09090909  0.18181818       0.018
   0.36363636  0.09090909  0.18181818       0.018
   0.45454545  0.09090909  0.18181818       0.009
   0.18181818  0.18181818  0.18181818       0.009
   0.27272727  0.18181818  0.18181818       0.018
   0.36363636  0.18181818  0.18181818       0.018
   0.27272727  0.27272727  0.18181818       0.009
   0.36363636  0.27272727  0.18181818       0.009
   0.00000000  0.00000000  0.27272727       0.002
   0.09090909  0.00000000  0.27272727       0.009
   0.18181818  0.00000000  0.27272727       0.009
   0.27272727  0.00000000  0.27272727       0.009
   0.36363636  0.00000000  0.27272727       0.009
   0.45454545  0.00000000  0.27272727       0.009
   0.09090909  0.09090909  0.27272727       0.009
   0.18181818  0.09090909  0.27272727       0.018
   0.27272727  0.09090909  0.27272727       0.018
   0.36363636  0.09090909  0.27272727       0.018
   0.45454545  0.09090909  0.27272727       0.009
   0.18181818  0.18181818  0.27272727       0.009
   0.27272727  0.18181818  0.27272727       0.018
   0.36363636  0.18181818  0.27272727       0.018
   0.27272727  0.27272727  0.27272727       0.009
   0.36363636  0.27272727  0.27272727       0.009
   0.00000000  0.00000000  0.36363636       0.002
   0.09090909  0.00000000  0.36363636       0.009
   0.18181818  0.00000000  0.36363636       0.009
   0.27272727  0.00000000  0.36363636       0.009
   0.36363636  0.00000000  0.36363636       0.009
   0.45454545  0.00000000  0.36363636       0.009
   0.09090909  0.09090909  0.36363636       0.009
   0.18181818  0.09090909  0.36363636       0.018
   0.27272727  0.09090909  0.36363636       0.018
   0.36363636  0.09090909  0.36363636       0.018
   0.45454545  0.09090909  0.36363636       0.009
   0.18181818  0.18181818  0.36363636       0.009
   0.27272727  0.18181818  0.36363636       0.018
   0.36363636  0.18181818  0.36363636       0.018
   0.27272727  0.27272727  0.36363636       0.009
   0.36363636  0.27272727  0.36363636       0.009
   0.00000000  0.00000000  0.45454545       0.002
   0.09090909  0.00000000  0.45454545       0.009
   0.18181818  0.00000000  0.45454545       0.009
   0.27272727  0.00000000  0.45454545       0.009
   0.36363636  0.00000000  0.45454545       0.009
   0.45454545  0.00000000  0.45454545       0.009
   0.09090909  0.09090909  0.45454545       0.009
   0.18181818  0.09090909  0.45454545       0.018
   0.27272727  0.09090909  0.45454545       0.018
   0.36363636  0.09090909  0.45454545       0.018
   0.45454545  0.09090909  0.45454545       0.009
   0.18181818  0.18181818  0.45454545       0.009
   0.27272727  0.18181818  0.45454545       0.018
   0.36363636  0.18181818  0.45454545       0.018
   0.27272727  0.27272727  0.45454545       0.009
   0.36363636  0.27272727  0.45454545       0.009
 
 position of ions in fractional coordinates (direct lattice) 
   0.00000000  0.00000000  0.00000000
   0.33333333  0.66666667  0.50000000
 
 position of ions in cartesian coordinates  (Angst):
   0.00000000  0.00000000  0.00000000
   0.00000000  1.37213065  2.09100000
 


--------------------------------------------------------------------------------------------------------


 k-point   1 :   0.0000 0.0000 0.0000  plane waves:     221
 k-point   2 :   0.0909 0.0000 0.0000  plane waves:     223
 k-point   3 :   0.1818 0.0000 0.0000  plane waves:     217
 k-point   4 :   0.2727 0.0000 0.0000  plane waves:     218
 k-point   5 :   0.3636 0.0000 0.0000  plane waves:     220
 k-point   6 :   0.4545 0.0000 0.0000  plane waves:     218
 k-point   7 :   0.0909 0.0909 0.0000  plane waves:     221
 k-point   8 :   0.1818 0.0909 0.0000  plane waves:     215
 k-point   9 :   0.2727 0.0909 0.0000  plane waves:     219
 k-point  10 :   0.3636 0.0909 0.0000  plane waves:     218
 k-point  11 :   0.4545 0.0909 0.0000  plane waves:     218
 k-point  12 :   0.1818 0.1818 0.0000  plane waves:     217
 k-point  13 :   0.2727 0.1818 0.0000  plane waves:     222
 k-point  14 :   0.3636 0.1818 0.0000  plane waves:     218
 k-point  15 :   0.2727 0.2727 0.0000  plane waves:     213
 k-point  16 :   0.3636 0.2727 0.0000  plane waves:     213
 k-point  17 :   0.0000 0.0000 0.0909  plane waves:     227
 k-point  18 :   0.0909 0.0000 0.0909  plane waves:     225
 k-point  19 :   0.1818 0.0000 0.0909  plane waves:     215
 k-point  20 :   0.2727 0.0000 0.0909  plane waves:     217
 k-point  21 :   0.3636 0.0000 0.0909  plane waves:     221
 k-point  22 :   0.4545 0.0000 0.0909  plane waves:     220
 k-point  23 :   0.0909 0.0909 0.0909  plane waves:     223
 k-point  24 :   0.1818 0.0909 0.0909  plane waves:     213
 k-point  25 :   0.2727 0.0909 0.0909  plane waves:     217
 k-point  26 :   0.3636 0.0909 0.0909  plane waves:     219
 k-point  27 :   0.4545 0.0909 0.0909  plane waves:     218
 k-point  28 :   0.1818 0.1818 0.0909  plane waves:     220
 k-point  29 :   0.2727 0.1818 0.0909  plane waves:     217
 k-point  30 :   0.3636 0.1818 0.0909  plane waves:     216
 k-point  31 :   0.2727 0.2727 0.0909  plane waves:     215
 k-point  32 :   0.3636 0.2727 0.0909  plane waves:     214
 k-point  33 :   0.0000 0.0000 0.1818  plane waves:     227
 k-point  34 :   0.0909 0.0000 0.1818  plane waves:     225
 k-point  35 :   0.1818 0.0000 0.1818  plane waves:     212
 k-point  36 :   0.2727 0.0000 0.1818  plane waves:     217
 k-point  37 :   0.3636 0.0000 0.1818  plane waves:     219
 k-point  38 :   0.4545 0.0000 0.1818  plane waves:     219
 k-point  39 :   0.0909 0.0909 0.1818  plane waves:     219
 k-point  40 :   0.1818 0.0909 0.1818  plane waves:     217
 k-point  41 :   0.2727 0.0909 0.1818  plane waves:     216
 k-point  42 :   0.3636 0.0909 0.1818  plane waves:     220
 k-point  43 :   0.4545 0.0909 0.1818  plane waves:     218
 k-point  44 :   0.1818 0.1818 0.1818  plane waves:     219
 k-point  45 :   0.2727 0.1818 0.1818  plane waves:     217
 k-point  46 :   0.3636 0.1818 0.1818  plane waves:     218
 k-point  47 :   0.2727 0.2727 0.1818  plane waves:     216
 k-point  48 :   0.3636 0.2727 0.1818  plane waves:     214
 k-point  49 :   0.0000 0.0000 0.2727  plane waves:     227
 k-point  50 :   0.0909 0.0000 0.2727  plane waves:     224
 k-point  51 :   0.1818 0.0000 0.2727  plane waves:     210
 k-point  52 :   0.2727 0.0000 0.2727  plane waves:     215
 k-point  53 :   0.3636 0.0000 0.2727  plane waves:     215
 k-point  54 :   0.4545 0.0000 0.2727  plane waves:     219
 k-point  55 :   0.0909 0.0909 0.2727  plane waves:     214
 k-point  56 :   0.1818 0.0909 0.2727  plane waves:     217
 k-point  57 :   0.2727 0.0909 0.2727  plane waves:     216
 k-point  58 :   0.3636 0.0909 0.2727  plane waves:     217
 k-point  59 :   0.4545 0.0909 0.2727  plane waves:     216
 k-point  60 :   0.1818 0.1818 0.2727  plane waves:     219
 k-point  61 :   0.2727 0.1818 0.2727  plane waves:     217
 k-point  62 :   0.3636 0.1818 0.2727  plane waves:     220
 k-point  63 :   0.2727 0.2727 0.2727  plane waves:     216
 k-point  64 :   0.3636 0.2727 0.2727  plane waves:     219
 k-point  65 :   0.0000 0.0000 0.3636  plane waves:     222
 k-point  66 :   0.0909 0.0000 0.3636  plane waves:     217
 k-point  67 :   0.1818 0.0000 0.3636  plane waves:     218
 k-point  68 :   0.2727 0.0000 0.3636  plane waves:     216
 k-point  69 :   0.3636 0.0000 0.3636  plane waves:     215
 k-point  70 :   0.4545 0.0000 0.3636  plane waves:     219
 k-point  71 :   0.0909 0.0909 0.3636  plane waves:     214
 k-point  72 :   0.1818 0.0909 0.3636  plane waves:     215
 k-point  73 :   0.2727 0.0909 0.3636  plane waves:     218
 k-point  74 :   0.3636 0.0909 0.3636  plane waves:     218
 k-point  75 :   0.4545 0.0909 0.3636  plane waves:     219
 k-point  76 :   0.1818 0.1818 0.3636  plane waves:     214
 k-point  77 :   0.2727 0.1818 0.3636  plane waves:     217
 k-point  78 :   0.3636 0.1818 0.3636  plane waves:     219
 k-point  79 :   0.2727 0.2727 0.3636  plane waves:     218
 k-point  80 :   0.3636 0.2727 0.3636  plane waves:     219
 k-point  81 :   0.0000 0.0000 0.4545  plane waves:     222
 k-point  82 :   0.0909 0.0000 0.4545  plane waves:     216
 k-point  83 :   0.1818 0.0000 0.4545  plane waves:     219
 k-point  84 :   0.2727 0.0000 0.4545  plane waves:     214
 k-point  85 :   0.3636 0.0000 0.4545  plane waves:     212
 k-point  86 :   0.4545 0.0000 0.4545  plane waves:     212
 k-point  87 :   0.0909 0.0909 0.4545  plane waves:     214
 k-point  88 :   0.1818 0.0909 0.4545  plane waves:     216
 k-point  89 :   0.2727 0.0909 0.4545  plane waves:     218
 k-point  90 :   0.3636 0.0909 0.4545  plane waves:     218
 k-point  91 :   0.4545 0.0909 0.4545  plane waves:     222
 k-point  92 :   0.1818 0.1818 0.4545  plane waves:     214
 k-point  93 :   0.2727 0.1818 0.4545  plane waves:     220
 k-point  94 :   0.3636 0.1818 0.4545  plane waves:     223
 k-point  95 :   0.2727 0.2727 0.4545  plane waves:     223
 k-point  96 :   0.3636 0.2727 0.4545  plane waves:     224

 maximum number of plane-waves:       227
 maximum index in each direction: 
   IXMAX=    3   IYMAX=    3   IZMAX=    5
   IXMIN=   -3   IYMIN=   -3   IZMIN=   -6


 total amount of memory used by VASP MPI-rank0    50146. kBytes
=======================================================================

   base      :      30000. kBytes
   nonl-proj :       3145. kBytes
   grid      :        812. kBytes
   one-center:         31. kBytes
   wavefun   :      16158. kBytes
 
     INWAV:  cpu time    0.0000: real time    0.0000
 Broyden mixing: mesh for mixing (old mesh)
   NGX =  7   NGY =  7   NGZ = 11
  (NGX  = 20   NGY  = 20   NGZ  = 36)
  gives a total of    539 points

 initial charge density was supplied:
 charge density of overlapping atoms calculated
 number of electron      16.0000000 magnetization 
 keeping initial charge density in first step


--------------------------------------------------------------------------------------------------------


 Maximum index for augmentation-charges         3036 (set IRDMAX)


--------------------------------------------------------------------------------------------------------


 First call to EWALD:  gamma=   0.648
 Maximum number of real-space cells 3x 3x 2
 Maximum number of reciprocal cells 2x 2x 4

    FEWALD:  cpu time    0.0008: real time    0.0008


--------------------------------------- Iteration      1(   1)  ---------------------------------------


    POTLOK:  cpu time    0.0035: real time    0.0035
    SETDIJ:  cpu time    0.0021: real time    0.0021
     EDDAV:  cpu time    0.7803: real time    0.7994
       DOS:  cpu time    0.0055: real time    0.0055
    --------------------------------------------
      LOOP:  cpu time    0.7915: real time    0.8106

 eigenvalue-minimisations  :  9120
 total energy-change (2. order) : 0.6098274E+02  (-0.2637190E+03)
 number of electron      16.0000000 magnetization 
 augmentation part       16.0000000 magnetization 

 Free energy of the ion-electron system (eV)
  ---------------------------------------------------
  alpha Z        PSCENC =       135.14431044
  Ewald energy   TEWEN  =     -1225.18981601
  -Hartree energ DENC   =      -208.09165746
  -exchange      EXHF   =         0.00000000
  -V(xc)+E(xc)   XCENC  =         8.46945956
  PAW double counting   =      1109.69170683    -1125.09647265
  entropy T*S    EENTRO =        -0.00158686
  eigenvalues    EBANDS =       177.48188888
  atomic energy  EATOM  =      1188.57490811
  Solvation  Ediel_sol  =         0.00000000
  ---------------------------------------------------
  free energy    TOTEN  =        60.98274085 eV

  energy without entropy =       60.98432771  energy(sigma->0) =       60.98326980


--------------------------------------------------------------------------------------------------------




--------------------------------------- Iteration      1(   2)  ---------------------------------------


     EDDAV:  cpu time    0.6987: real time    0.6987
       DOS:  cpu time    0.0061: real time    0.0061
    --------------------------------------------
      LOOP:  cpu time    0.7047: real time    0.7048

 eigenvalue-minimisations  :  7944
 total energy-change (2. order) :-0.7572367E+02  (-0.6434356E+02)
 number of electron      16.0000000 magnetization 
 augmentation part       16.0000000 magnetization 

 Free energy of the ion-electron system (eV)
  ---------------------------------------------------
  alpha Z        PSCENC =       135.14431044
  Ewald energy   TEWEN  =     -1225.18981601
  -Hartree energ DENC   =      -208.09165746
  -exchange      EXHF   =         0.00000000
  -V(xc)+E(xc)   XCENC  =         8.46945956
  PAW double counting   =      1109.69170683    -1125.09647265
  entropy T*S    EENTRO =         0.00237588
  eigenvalues    EBANDS =       101.75425417
  atomic energy  EATOM  =      1188.57490811
  Solvation  Ediel_sol  =         0.00000000
  ---------------------------------------------------
  free energy    TOTEN  =       -14.74093112 eV

  energy without entropy =      -14.74330700  energy(sigma->0) =      -14.74172308


--------------------------------------------------------------------------------------------------------




--------------------------------------- Iteration      1(   3)  ---------------------------------------


     EDDAV:  cpu time    0.7963: real time    0.7963
       DOS:  cpu time    0.0066: real time    0.0065
    --------------------------------------------
      LOOP:  cpu time    0.8028: real time    0.8028

 eigenvalue-minimisations  :  9520
 total energy-change (2. order) :-0.4450290E+01  (-0.4206284E+01)
 number of electron      16.0000000 magnetization 
 augmentation part       16.0000000 magnetization 

 Free energy of the ion-electron system (eV)
  ---------------------------------------------------
  alpha Z        PSCENC =       135.14431044
  Ewald energy   TEWEN  =     -1225.18981601
  -Hartree energ DENC   =      -208.09165746
  -exchange      EXHF   =         0.00000000
  -V(xc)+E(xc)   XCENC  =         8.46945956
  PAW double counting   =      1109.69170683    -1125.09647265
  entropy T*S    EENTRO =         0.00072788
  eigenvalues    EBANDS =        97.30561243
  atomic energy  EATOM  =      1188.57490811
  Solvation  Ediel_sol  =         0.00000000
  ---------------------------------------------------
  free energy    TOTEN  =       -19.19122087 eV

  energy without entropy =      -19.19194875  energy(sigma->0) =      -19.19146349


--------------------------------------------------------------------------------------------------------




--------------------------------------- Iteration      1(   4)  ---------------------------------------


     EDDAV:  cpu time    0.7708: real time    0.7709
       DOS:  cpu time    0.0066: real time    0.0066
    --------------------------------------------
      LOOP:  cpu time    0.7774: real time    0.7775

 eigenvalue-minimisations  :  9200
 total energy-change (2. order) :-0.2103121E-01  (-0.2101686E-01)
 number of electron      16.0000000 magnetization 
 augmentation part       16.0000000 magnetization 

 Free energy of the ion-electron system (eV)
  ---------------------------------------------------
  alpha Z        PSCENC =       135.14431044
  Ewald energy   TEWEN  =     -1225.18981601
  -Hartree energ DENC   =      -208.09165746
  -exchange      EXHF   =         0.00000000
  -V(xc)+E(xc)   XCENC  =         8.46945956
  PAW double counting   =      1109.69170683    -1125.09647265
  entropy T*S    EENTRO =         0.00069556
  eigenvalues    EBANDS =        97.28461354
  atomic energy  EATOM  =      1188.57490811
  Solvation  Ediel_sol  =         0.00000000
  ---------------------------------------------------
  free energy    TOTEN  =       -19.21225207 eV

  energy without entropy =      -19.21294763  energy(sigma->0) =      -19.21248393


--------------------------------------------------------------------------------------------------------




--------------------------------------- Iteration      1(   5)  ---------------------------------------


     EDDAV:  cpu time    0.7671: real time    0.7671
       DOS:  cpu time    0.0062: real time    0.0062
    CHARGE:  cpu time    0.0199: real time    0.0199
    MIXING:  cpu time    0.0002: real time    0.0002
    --------------------------------------------
      LOOP:  cpu time    0.7934: real time    0.7935

 eigenvalue-minimisations  :  9192
 total energy-change (2. order) :-0.2631669E-04  (-0.2631616E-04)
 number of electron      15.9999882 magnetization 
 augmentation part        7.0737509 magnetization 

 Broyden mixing:
  rms(total) = 0.16918E+01    rms(broyden)= 0.16918E+01
  rms(prec ) = 0.29028E+01
  weight for this iteration     100.00

 Free energy of the ion-electron system (eV)
  ---------------------------------------------------
  alpha Z        PSCENC =       135.14431044
  Ewald energy   TEWEN  =     -1225.18981601
  -Hartree energ DENC   =      -208.09165746
  -exchange      EXHF   =         0.00000000
  -V(xc)+E(xc)   XCENC  =         8.46945956
  PAW double counting   =      1109.69170683    -1125.09647265
  entropy T*S    EENTRO =         0.00069547
  eigenvalues    EBANDS =        97.28458732
  atomic energy  EATOM  =      1188.57490811
  Solvation  Ediel_sol  =         0.00000000
  ---------------------------------------------------
  free energy    TOTEN  =       -19.21227839 eV

  energy without entropy =      -19.21297386  energy(sigma->0) =      -19.21251021


--------------------------------------------------------------------------------------------------------




--------------------------------------- Iteration      1(   6)  ---------------------------------------


    POTLOK:  cpu time    0.0034: real time    0.0034
    SETDIJ:  cpu time    0.0022: real time    0.0022
     EDDAV:  cpu time    0.9180: real time    0.9180
       DOS:  cpu time    0.0068: real time    0.0068
    CHARGE:  cpu time    0.0195: real time    0.0195
    MIXING:  cpu time    0.0002: real time    0.0002
    --------------------------------------------
      LOOP:  cpu time    0.9500: real time    0.9500

 eigenvalue-minimisations  : 11176
 total energy-change (2. order) : 0.2866854E+01  (-0.1839810E+00)
 number of electron      15.9999851 magnetization 
 augmentation part        8.4928191 magnetization 

 Broyden mixing:
  rms(total) = 0.25346E+00    rms(broyden)= 0.25335E+00
  rms(prec ) = 0.43917E+00
  weight for this iteration     100.00

 eigenvalues of (default mixing * dielectric matrix)
  average eigenvalue GAMMA=   0.9189
  0.9189

 Free energy of the ion-electron system (eV)
  ---------------------------------------------------
  alpha Z        PSCENC =       135.14431044
  Ewald energy   TEWEN  =     -1225.18981601
  -Hartree energ DENC   =      -173.49276073
  -exchange      EXHF   =         0.00000000
  -V(xc)+E(xc)   XCENC  =         6.78034220
  PAW double counting   =      1253.12463687    -1264.04508391
  entropy T*S    EENTRO =         0.00266992
  eigenvalues    EBANDS =        62.75536890
  atomic energy  EATOM  =      1188.57490811
  Solvation  Ediel_sol  =         0.00000000
  ---------------------------------------------------
  free energy    TOTEN  =       -16.34542420 eV

  energy without entropy =      -16.34809412  energy(sigma->0) =      -16.34631418


--------------------------------------------------------------------------------------------------------




--------------------------------------- Iteration      1(   7)  ---------------------------------------


    POTLOK:  cpu time    0.0034: real time    0.0034
    SETDIJ:  cpu time    0.0021: real time    0.0021
     EDDAV:  cpu time    0.8385: real time    0.8386
       DOS:  cpu time    0.0061: real time    0.0061
    CHARGE:  cpu time    0.0200: real time    0.0200
    MIXING:  cpu time    0.0002: real time    0.0002
    --------------------------------------------
      LOOP:  cpu time    0.8702: real time    0.8703

 eigenvalue-minimisations  : 10168
 total energy-change (2. order) : 0.2043117E+00  (-0.1267802E-01)
 number of electron      15.9999858 magnetization 
 augmentation part        8.1816029 magnetization 

 Broyden mixing:
  rms(total) = 0.10530E+00    rms(broyden)= 0.10529E+00
  rms(prec ) = 0.20191E+00
  weight for this iteration     100.00

 eigenvalues of (default mixing * dielectric matrix)
  average eigenvalue GAMMA=   0.9708
  1.2014  0.7402

 Free energy of the ion-electron system (eV)
  ---------------------------------------------------
  alpha Z        PSCENC =       135.14431044
  Ewald energy   TEWEN  =     -1225.18981601
  -Hartree energ DENC   =      -177.89762624
  -exchange      EXHF   =         0.00000000
  -V(xc)+E(xc)   XCENC  =         7.02641870
  PAW double counting   =      1330.22611240    -1344.71783420
  entropy T*S    EENTRO =         0.00263317
  eigenvalues    EBANDS =        70.68978110
  atomic energy  EATOM  =      1188.57490811
  Solvation  Ediel_sol  =         0.00000000
  ---------------------------------------------------
  free energy    TOTEN  =       -16.14111252 eV

  energy without entropy =      -16.14374569  energy(sigma->0) =      -16.14199025


--------------------------------------------------------------------------------------------------------




--------------------------------------- Iteration      1(   8)  ---------------------------------------


    POTLOK:  cpu time    0.0034: real time    0.0034
    SETDIJ:  cpu time    0.0021: real time    0.0021
     EDDAV:  cpu time    0.8331: real time    0.8331
       DOS:  cpu time    0.0064: real time    0.0064
    CHARGE:  cpu time    0.0197: real time    0.0197
    MIXING:  cpu time    0.0002: real time    0.0002
    --------------------------------------------
      LOOP:  cpu time    0.8648: real time    0.8649

 eigenvalue-minimisations  : 10072
 total energy-change (2. order) : 0.2652187E-01  (-0.3591882E-03)
 number of electron      15.9999857 magnetization 
 augmentation part        8.2112612 magnetization 

 Broyden mixing:
  rms(total) = 0.48851E-01    rms(broyden)= 0.48850E-01
  rms(prec ) = 0.92137E-01
  weight for this iteration     100.00

 eigenvalues of (default mixing * dielectric matrix)
  average eigenvalue GAMMA=   1.4525
  0.7862  1.0416  2.5297

 Free energy of the ion-electron system (eV)
  ---------------------------------------------------
  alpha Z        PSCENC =       135.14431044
  Ewald energy   TEWEN  =     -1225.18981601
  -Hartree energ DENC   =      -175.84195116
  -exchange      EXHF   =         0.00000000
  -V(xc)+E(xc)   XCENC  =         6.94503067
  PAW double counting   =      1390.29416732    -1406.10009634
  entropy T*S    EENTRO =         0.00268124
  eigenvalues    EBANDS =        70.05617506
  atomic energy  EATOM  =      1188.57490811
  Solvation  Ediel_sol  =         0.00000000
  ---------------------------------------------------
  free energy    TOTEN  =       -16.11459065 eV

  energy without entropy =      -16.11727189  energy(sigma->0) =      -16.11548440


--------------------------------------------------------------------------------------------------------




--------------------------------------- Iteration      1(   9)  ---------------------------------------


    POTLOK:  cpu time    0.0034: real time    0.0034
    SETDIJ:  cpu time    0.0021: real time    0.0021
     EDDAV:  cpu time    0.9129: real time    0.9130
       DOS:  cpu time    0.0066: real time    0.0066
    CHARGE:  cpu time    0.0200: real time    0.0200
    MIXING:  cpu time    0.0002: real time    0.0002
    --------------------------------------------
      LOOP:  cpu time    0.9452: real time    0.9453

 eigenvalue-minimisations  : 11168
 total energy-change (2. order) : 0.1075255E-01  (-0.9064040E-04)
 number of electron      15.9999857 magnetization 
 augmentation part        8.2268673 magnetization 

 Broyden mixing:
  rms(total) = 0.58242E-02    rms(broyden)= 0.58219E-02
  rms(prec ) = 0.62869E-02
  weight for this iteration     100.00

 eigenvalues of (default mixing * dielectric matrix)
  average eigenvalue GAMMA=   1.5247
  2.5834  0.7855  0.9989  1.7308

 Free energy of the ion-electron system (eV)
  ---------------------------------------------------
  alpha Z        PSCENC =       135.14431044
  Ewald energy   TEWEN  =     -1225.18981601
  -Hartree energ DENC   =      -173.77777579
  -exchange      EXHF   =         0.00000000
  -V(xc)+E(xc)   XCENC  =         6.86980428
  PAW double counting   =      1469.15733414    -1486.68106397
  entropy T*S    EENTRO =         0.00267527
  eigenvalues    EBANDS =        69.79578543
  atomic energy  EATOM  =      1188.57490811
  Solvation  Ediel_sol  =         0.00000000
  ---------------------------------------------------
  free energy    TOTEN  =       -16.10383811 eV

  energy without entropy =      -16.10651337  energy(sigma->0) =      -16.10472986


--------------------------------------------------------------------------------------------------------




--------------------------------------- Iteration      1(  10)  ---------------------------------------


    POTLOK:  cpu time    0.0034: real time    0.0035
    SETDIJ:  cpu time    0.0022: real time    0.0022
     EDDAV:  cpu time    0.7446: real time    0.7446
       DOS:  cpu time    0.0067: real time    0.0067
    CHARGE:  cpu time    0.0197: real time    0.0197
    MIXING:  cpu time    0.0002: real time    0.0002
    --------------------------------------------
      LOOP:  cpu time    0.7768: real time    0.7768

 eigenvalue-minimisations  :  8920
 total energy-change (2. order) :-0.2925105E-04  (-0.3557395E-05)
 number of electron      15.9999857 magnetization 
 augmentation part        8.2272476 magnetization 

 Broyden mixing:
  rms(total) = 0.25159E-02    rms(broyden)= 0.25145E-02
  rms(prec ) = 0.32160E-02
  weight for this iteration     100.00

 eigenvalues of (default mixing * dielectric matrix)
  average eigenvalue GAMMA=   1.6218
  2.5451  2.5451  0.7854  1.0087  1.2249

 Free energy of the ion-electron system (eV)
  ---------------------------------------------------
  alpha Z        PSCENC =       135.14431044
  Ewald energy   TEWEN  =     -1225.18981601
  -Hartree energ DENC   =      -173.78495653
  -exchange      EXHF   =         0.00000000
  -V(xc)+E(xc)   XCENC  =         6.87123342
  PAW double counting   =      1471.89046409    -1489.39412472
  entropy T*S    EENTRO =         0.00266981
  eigenvalues    EBANDS =        69.78144403
  atomic energy  EATOM  =      1188.57490811
  Solvation  Ediel_sol  =         0.00000000
  ---------------------------------------------------
  free energy    TOTEN  =       -16.10386736 eV

  energy without entropy =      -16.10653717  energy(sigma->0) =      -16.10475729


--------------------------------------------------------------------------------------------------------




--------------------------------------- Iteration      1(  11)  ---------------------------------------


    POTLOK:  cpu time    0.0034: real time    0.0034
    SETDIJ:  cpu time    0.0021: real time    0.0021
     EDDAV:  cpu time    0.7511: real time    0.7512
       DOS:  cpu time    0.0066: real time    0.0066
    CHARGE:  cpu time    0.0193: real time    0.0193
    MIXING:  cpu time    0.0002: real time    0.0002
    --------------------------------------------
      LOOP:  cpu time    0.7829: real time    0.7829

 eigenvalue-minimisations  :  8856
 total energy-change (2. order) : 0.7364990E-05  (-0.4026866E-07)
 number of electron      15.9999857 magnetization 
 augmentation part        8.2269459 magnetization 

 Broyden mixing:
  rms(total) = 0.18844E-03    rms(broyden)= 0.18815E-03
  rms(prec ) = 0.23015E-03
  weight for this iteration     100.00

 eigenvalues of (default mixing * dielectric matrix)
  average eigenvalue GAMMA=   1.5465
  2.5728  2.5728  0.7852  1.0047  1.0047  1.3387

 Free energy of the ion-electron system (eV)
  ---------------------------------------------------
  alpha Z        PSCENC =       135.14431044
  Ewald energy   TEWEN  =     -1225.18981601
  -Hartree energ DENC   =      -173.84214365
  -exchange      EXHF   =         0.00000000
  -V(xc)+E(xc)   XCENC  =         6.87401152
  PAW double counting   =      1471.70083280    -1489.15167249
  entropy T*S    EENTRO =         0.00266979
  eigenvalues    EBANDS =        69.78303950
  atomic energy  EATOM  =      1188.57490811
  Solvation  Ediel_sol  =         0.00000000
  ---------------------------------------------------
  free energy    TOTEN  =       -16.10385999 eV

  energy without entropy =      -16.10652978  energy(sigma->0) =      -16.10474992


--------------------------------------------------------------------------------------------------------




--------------------------------------- Iteration      1(  12)  ---------------------------------------


    POTLOK:  cpu time    0.0034: real time    0.0034
    SETDIJ:  cpu time    0.0021: real time    0.0021
     EDDAV:  cpu time    0.5803: real time    0.5804
       DOS:  cpu time    0.0067: real time    0.0067
    --------------------------------------------
      LOOP:  cpu time    0.5924: real time    0.5925

 eigenvalue-minimisations  :  5992
 total energy-change (2. order) : 0.7140372E-06  (-0.5834499E-08)
 number of electron      15.9999857 magnetization 
 augmentation part        8.2269459 magnetization 

 Free energy of the ion-electron system (eV)
  ---------------------------------------------------
  alpha Z        PSCENC =       135.14431044
  Ewald energy   TEWEN  =     -1225.18981601
  -Hartree energ DENC   =      -173.84694623
  -exchange      EXHF   =         0.00000000
  -V(xc)+E(xc)   XCENC  =         6.87425047
  PAW double counting   =      1471.77006451    -1489.21570808
  entropy T*S    EENTRO =         0.00267009
  eigenvalues    EBANDS =        69.78240741
  atomic energy  EATOM  =      1188.57490811
  Solvation  Ediel_sol  =         0.00000000
  ---------------------------------------------------
  free energy    TOTEN  =       -16.10385928 eV

  energy without entropy =      -16.10652936  energy(sigma->0) =      -16.10474931


--------------------------------------------------------------------------------------------------------




 average (electrostatic) potential at core
  the test charge radii are     1.0103
  (the norm of the test charge is              1.0000)
       1 -42.6720       2 -42.6719
 
 
 
 E-fermi :   6.8471     XC(G=0): -13.7677     alpha+bet :-15.1547

 Fermi energy:         6.8470581538

 k-point     1 :       0.0000    0.0000    0.0000
  band No.  band energies     occupation 
      1      -2.0226      2.00000
      2       1.8670      2.00000
      3       4.6733      2.00000
      4       5.2923      2.00000
      5       5.2924      2.00000
      6       5.5957      2.00000
      7       5.5958      2.00000
      8       6.1611      2.00001
      9       6.5304      2.04766
     10       6.5304      2.04767
     11       7.5874     -0.00000
     12       7.5875     -0.00000
     13      14.1012      0.00000
     14      30.2243      0.00000
     15      30.3101      0.00000
     16      33.1924      0.00000
     17      35.3403      0.00000
     18      35.3403      0.00000
     19      36.1891      0.00000
     20      36.1892      0.00000
     21      36.9282      0.00000
     22      39.0647      0.00000
     23      39.0647      0.00000
     24      40.0876      0.00000
     25      42.6035      0.00000
     26      42.6035      0.00000
     27      43.2533      0.00000
     28      46.2966      0.00000
     29      46.2970      0.00000
     30      48.1333      0.00000
     31      48.1334      0.00000
     32      50.5552      0.00000
     33      58.3523      0.00000
     34      61.4265      0.00000
     35      61.4274      0.00000
     36      61.8352      0.00000
     37      62.5876      0.00000
     38      63.5226      0.00000
     39      63.5287      0.00000
     40      64.2482      0.00000

 k-point     2 :       0.0909    0.0000    0.0000
  band No.  band energies     occupation 
      1      -1.6937      2.00000
      2       2.1119      2.00000
      3       4.6815      2.00000
      4       5.2334      2.00000
      5       5.3235      2.00000
      6       5.4794      2.00000
      7       5.4840      2.00000
      8       5.7714      2.00000
      9       6.3849      2.00517
     10       6.4202      2.01011
     11       7.6209     -0.00000
     12       8.6916     -0.00000
     13      14.1244      0.00000
     14      28.9053      0.00000
     15      30.6583      0.00000
     16      31.4731      0.00000
     17      32.5744      0.00000
     18      34.9951      0.00000
     19      35.0491      0.00000
     20      36.7581      0.00000
     21      38.4455      0.00000
     22      39.0793      0.00000
     23      39.2379      0.00000
     24      39.7908      0.00000
     25      43.6579      0.00000
     26      43.8094      0.00000
     27      43.9307      0.00000
     28      44.2203      0.00000
     29      47.6313      0.00000
     30      49.4630      0.00000
     31      50.5372      0.00000
     32      52.5388      0.00000
     33      57.7546      0.00000
     34      60.0210      0.00000
     35      60.1473      0.00000
     36      60.7545      0.00000
     37      61.3440      0.00000
     38      64.2457      0.00000
     39      64.5312      0.00000
     40      65.5483      0.00000

 k-point     3 :       0.1818    0.0000    0.0000
  band No.  band energies     occupation 
      1      -0.7615      2.00000
      2       2.6922      2.00000
      3       4.2780      2.00000
      4       4.4963      2.00000
      5       5.0559      2.00000
      6       5.6104      2.00000
      7       6.0110      2.00000
      8       6.0358      2.00000
      9       6.1597      2.00001
     10       6.2632      2.00029
     11       7.6716     -0.00000
     12      10.4997     -0.00000
     13      14.2298      0.00000
     14      25.1138      0.00000
     15      29.7756      0.00000
     16      30.2232      0.00000
     17      30.6199      0.00000
     18      31.6748      0.00000
     19      35.4150      0.00000
     20      36.4228      0.00000
     21      36.8737      0.00000
     22      37.5289      0.00000
     23      40.0643      0.00000
     24      40.9297      0.00000
     25      43.6463      0.00000
     26      44.8780      0.00000
     27      46.4526      0.00000
     28      48.6448      0.00000
     29      50.3542      0.00000
     30      52.9941      0.00000
     31      53.4491      0.00000
     32      56.0070      0.00000
     33      56.4436      0.00000
     34      56.9464      0.00000
     35      58.4112      0.00000
     36      60.0053      0.00000
     37      61.4228      0.00000
     38      64.0075      0.00000
     39      65.7648      0.00000
     40      66.0262      0.00000

 k-point     4 :       0.2727    0.0000    0.0000
  band No.  band energies     occupation 
      1       0.5688      2.00000
      2       2.9871      2.00000
      3       3.4729      2.00000
      4       4.4416      2.00000
      5       4.8770      2.00000
      6       5.5968      2.00000
      7       5.8633      2.00000
      8       6.3404      2.00199
      9       6.7647      1.63553
     10       6.9471      0.25939
     11       7.7015     -0.00000
     12      12.5498      0.00000
     13      14.4666      0.00000
     14      21.1141      0.00000
     15      26.9968      0.00000
     16      27.3690      0.00000
     17      28.5281      0.00000
     18      31.6042      0.00000
     19      33.4940      0.00000
     20      36.6683      0.00000
     21      36.8398      0.00000
     22      37.2824      0.00000
     23      37.6567      0.00000
     24      41.3347      0.00000
     25      47.2669      0.00000
     26      48.7877      0.00000
     27      49.9310      0.00000
     28      51.0935      0.00000
     29      52.0995      0.00000
     30      53.3544      0.00000
     31      54.8052      0.00000
     32      56.0802      0.00000
     33      58.1895      0.00000
     34      58.2914      0.00000
     35      59.1819      0.00000
     36      60.7345      0.00000
     37      62.6426      0.00000
     38      63.7592      0.00000
     39      65.8556      0.00000
     40      66.3688      0.00000

 k-point     5 :       0.3636    0.0000    0.0000
  band No.  band energies     occupation 
      1       1.7830      2.00000
      2       2.7357      2.00000
      3       2.9418      2.00000
      4       4.6041      2.00000
      5       5.2059      2.00000
      6       5.2627      2.00000
      7       5.6168      2.00000
      8       7.5213     -0.00002
      9       7.5428     -0.00001
     10       7.6353     -0.00000
     11       7.7067     -0.00000
     12      14.4100      0.00000
     13      14.7528      0.00000
     14      18.2125      0.00000
     15      23.7145      0.00000
     16      25.5364      0.00000
     17      25.6695      0.00000
     18      30.7553      0.00000
     19      32.4338      0.00000
     20      35.6351      0.00000
     21      36.3991      0.00000
     22      38.1183      0.00000
     23      38.6647      0.00000
     24      41.6200      0.00000
     25      48.8173      0.00000
     26      50.0671      0.00000
     27      50.7823      0.00000
     28      53.9862      0.00000
     29      54.0118      0.00000
     30      54.6592      0.00000
     31      56.8506      0.00000
     32      57.9227      0.00000
     33      58.0279      0.00000
     34      59.6366      0.00000
     35      61.5303      0.00000
     36      63.1738      0.00000
     37      63.4307      0.00000
     38      64.6117      0.00000
     39      66.2638      0.00000
     40      66.5209      0.00000

 k-point     6 :       0.4545    0.0000    0.0000
  band No.  band energies     occupation 
      1       2.2904      2.00000
      2       2.4955      2.00000
      3       2.6812      2.00000
      4       4.9767      2.00000
      5       5.1296      2.00000
      6       5.4791      2.00000
      7       5.4974      2.00000
      8       7.7039     -0.00000
      9       7.9882     -0.00000
     10       8.1020     -0.00000
     11       9.1938     -0.00000
     12      12.5879      0.00000
     13      16.8488      0.00000
     14      18.1895      0.00000
     15      21.0983      0.00000
     16      22.9852      0.00000
     17      24.5169      0.00000
     18      30.1429      0.00000
     19      32.1219      0.00000
     20      34.5210      0.00000
     21      36.1931      0.00000
     22      38.9718      0.00000
     23      40.9804      0.00000
     24      41.4603      0.00000
     25      45.4421      0.00000
     26      50.4292      0.00000
     27      52.1378      0.00000
     28      56.2961      0.00000
     29      56.4154      0.00000
     30      57.1900      0.00000
     31      58.1864      0.00000
     32      59.7793      0.00000
     33      60.0627      0.00000
     34      61.4041      0.00000
     35      62.0056      0.00000
     36      62.6442      0.00000
     37      64.8119      0.00000
     38      65.3026      0.00000
     39      65.6839      0.00000
     40      66.4424      0.00000

 k-point     7 :       0.0909    0.0909    0.0000
  band No.  band energies     occupation 
      1      -1.0607      2.00000
      2       2.5423      2.00000
      3       4.5333      2.00000
      4       4.5515      2.00000
      5       5.2695      2.00000
      6       5.3030      2.00000
      7       5.8681      2.00000
      8       6.0033      2.00000
      9       6.1524      2.00001
     10       6.3847      2.00515
     11       7.6318     -0.00000
     12       9.9952     -0.00000
     13      14.1928      0.00000
     14      26.8581      0.00000
     15      28.0873      0.00000
     16      31.1537      0.00000
     17      32.2960      0.00000
     18      33.6764      0.00000
     19      33.9541      0.00000
     20      35.3918      0.00000
     21      36.4023      0.00000
     22      40.7021      0.00000
     23      41.0677      0.00000
     24      41.6829      0.00000
     25      42.7377      0.00000
     26      42.8721      0.00000
     27      43.0950      0.00000
     28      49.2252      0.00000
     29      51.1908      0.00000
     30      51.2815      0.00000
     31      51.4383      0.00000
     32      55.4560      0.00000
     33      56.8947      0.00000
     34      57.7573      0.00000
     35      58.6051      0.00000
     36      59.9919      0.00000
     37      61.0727      0.00000
     38      64.4718      0.00000
     39      65.7803      0.00000
     40      66.1739      0.00000

 k-point     8 :       0.1818    0.0909    0.0000
  band No.  band energies     occupation 
      1       0.0943      2.00000
      2       3.0985      2.00000
      3       3.7642      2.00000
      4       4.2310      2.00000
      5       4.9776      2.00000
      6       5.5785      2.00000
      7       5.7305      2.00000
      8       6.1363      2.00001
      9       6.5616      2.06145
     10       6.8586      0.90244
     11       7.6295     -0.00000
     12      11.8293     -0.00000
     13      14.4078      0.00000
     14      23.1586      0.00000
     15      25.7481      0.00000
     16      28.8279      0.00000
     17      30.9933      0.00000
     18      31.3311      0.00000
     19      34.4128      0.00000
     20      34.6647      0.00000
     21      35.6212      0.00000
     22      39.9842      0.00000
     23      40.4280      0.00000
     24      41.3792      0.00000
     25      44.5036      0.00000
     26      45.5071      0.00000
     27      47.4390      0.00000
     28      51.3006      0.00000
     29      53.6139      0.00000
     30      53.9015      0.00000
     31      54.2845      0.00000
     32      56.3481      0.00000
     33      57.4092      0.00000
     34      57.4248      0.00000
     35      58.5478      0.00000
     36      58.9832      0.00000
     37      61.8765      0.00000
     38      64.6625      0.00000
     39      66.0962      0.00000
     40      66.5884      0.00000

 k-point     9 :       0.2727    0.0909    0.0000
  band No.  band energies     occupation 
      1       1.4527      2.00000
      2       3.0592      2.00000
      3       3.1782      2.00000
      4       4.2969      2.00000
      5       5.0373      2.00000
      6       5.2269      2.00000
      7       5.7785      2.00000
      8       6.4836      2.02757
      9       7.3218     -0.00400
     10       7.6206     -0.00000
     11       7.7763     -0.00000
     12      13.9288      0.00000
     13      14.7679      0.00000
     14      19.4736      0.00000
     15      24.0493      0.00000
     16      25.4344      0.00000
     17      27.9790      0.00000
     18      29.8467      0.00000
     19      33.5856      0.00000
     20      34.7827      0.00000
     21      36.1532      0.00000
     22      39.5900      0.00000
     23      39.8988      0.00000
     24      42.6632      0.00000
     25      46.4411      0.00000
     26      49.2041      0.00000
     27      50.5318      0.00000
     28      50.9217      0.00000
     29      52.5344      0.00000
     30      54.8829      0.00000
     31      56.1957      0.00000
     32      57.6418      0.00000
     33      58.5330      0.00000
     34      59.1283      0.00000
     35      60.7777      0.00000
     36      62.6518      0.00000
     37      63.9471      0.00000
     38      64.5206      0.00000
     39      65.1099      0.00000
     40      66.7143      0.00000

 k-point    10 :       0.3636    0.0909    0.0000
  band No.  band energies     occupation 
      1       2.3364      2.00000
      2       2.7533      2.00000
      3       2.8309      2.00000
      4       4.6843      2.00000
      5       5.0112      2.00000
      6       5.4013      2.00000
      7       5.4690      2.00000
      8       7.3854     -0.00094
      9       7.6054     -0.00000
     10       7.8465     -0.00000
     11       8.9559     -0.00000
     12      13.9859      0.00000
     13      16.1516      0.00000
     14      17.9836      0.00000
     15      22.4486      0.00000
     16      22.7206      0.00000
     17      24.7624      0.00000
     18      28.9721      0.00000
     19      32.6376      0.00000
     20      34.2710      0.00000
     21      37.3798      0.00000
     22      40.0124      0.00000
     23      40.8217      0.00000
     24      42.2572      0.00000
     25      47.4163      0.00000
     26      49.1896      0.00000
     27      50.8978      0.00000
     28      52.8256      0.00000
     29      54.1929      0.00000
     30      56.4806      0.00000
     31      57.3793      0.00000
     32      59.1106      0.00000
     33      60.0760      0.00000
     34      62.2674      0.00000
     35      62.2676      0.00000
     36      63.4493      0.00000
     37      63.9504      0.00000
     38      65.0500      0.00000
     39      66.1298      0.00000
     40      66.6941      0.00000

 k-point    11 :       0.4545    0.0909    0.0000
  band No.  band energies     occupation 
      1       2.5132      2.00000
      2       2.6411      2.00000
      3       2.7171      2.00000
      4       4.9432      2.00000
      5       5.0591      2.00000
      6       5.3425      2.00000
      7       5.5100      2.00000
      8       7.5990     -0.00000
      9       7.9000     -0.00000
     10       7.9234     -0.00000
     11      10.1708     -0.00000
     12      12.2901     -0.00000
     13      17.6689      0.00000
     14      18.6394      0.00000
     15      20.6761      0.00000
     16      21.8482      0.00000
     17      23.3478      0.00000
     18      28.6623      0.00000
     19      32.2475      0.00000
[...]
     18      26.7758      0.00000
     19      32.0118      0.00000
     20      32.8177      0.00000
     21      35.9997      0.00000
     22      36.5698      0.00000
     23      41.5238      0.00000
     24      42.6831      0.00000
     25      48.3389      0.00000
     26      50.0866      0.00000
     27      52.1750      0.00000
     28      53.0449      0.00000
     29      55.4466      0.00000
     30      57.2918      0.00000
     31      59.0117      0.00000
     32      59.1451      0.00000
     33      61.3275      0.00000
     34      61.5735      0.00000
     35      62.4505      0.00000
     36      62.8282      0.00000
     37      64.0559      0.00000
     38      64.3967      0.00000
     39      66.2120      0.00000
     40      66.7367      0.00000

 k-point    91 :       0.4545    0.0909    0.4545
  band No.  band energies     occupation 
      1       2.1876      2.00000
      2       2.3274      2.00000
      3       3.5393      2.00000
      4       3.6274      2.00000
      5       5.8094      2.00000
      6       6.2041      2.00005
      7       6.8355      1.09751
      8       7.1329     -0.06130
      9       7.7573     -0.00000
     10       7.7815     -0.00000
     11      10.0925     -0.00000
     12      10.5740     -0.00000
     13      16.3947      0.00000
     14      16.4294      0.00000
     15      24.6266      0.00000
     16      25.3811      0.00000
     17      26.3111      0.00000
     18      26.7953      0.00000
     19      31.6461      0.00000
     20      31.9282      0.00000
     21      35.4094      0.00000
     22      35.5355      0.00000
     23      41.5891      0.00000
     24      42.7726      0.00000
     25      48.4690      0.00000
     26      50.2011      0.00000
     27      55.0245      0.00000
     28      56.2850      0.00000
     29      56.7718      0.00000
     30      57.2404      0.00000
     31      57.4277      0.00000
     32      58.0187      0.00000
     33      61.8631      0.00000
     34      62.0662      0.00000
     35      63.5652      0.00000
     36      63.7571      0.00000
     37      64.4609      0.00000
     38      64.4877      0.00000
     39      67.2509      0.00000
     40      67.4399      0.00000

 k-point    92 :       0.1818    0.1818    0.4545
  band No.  band energies     occupation 
      1       2.1785      2.00000
      2       2.4580      2.00000
      3       4.0832      2.00000
      4       4.1470      2.00000
      5       4.5873      2.00000
      6       4.6421      2.00000
      7       6.1590      2.00001
      8       6.3915      2.00590
      9       7.5491     -0.00001
     10       7.6828     -0.00000
     11       8.1585     -0.00000
     12       8.6727     -0.00000
     13      22.5753      0.00000
     14      22.6588      0.00000
     15      23.2240      0.00000
     16      24.1347      0.00000
     17      24.6086      0.00000
     18      25.7223      0.00000
     19      36.0722      0.00000
     20      37.1425      0.00000
     21      37.8558      0.00000
     22      38.9429      0.00000
     23      40.3705      0.00000
     24      40.5128      0.00000
     25      46.5189      0.00000
     26      46.9316      0.00000
     27      50.8577      0.00000
     28      51.7766      0.00000
     29      53.4040      0.00000
     30      54.4375      0.00000
     31      56.1915      0.00000
     32      56.7435      0.00000
     33      58.7722      0.00000
     34      58.9088      0.00000
     35      60.7946      0.00000
     36      61.0431      0.00000
     37      63.8260      0.00000
     38      64.9691      0.00000
     39      65.8880      0.00000
     40      66.2596      0.00000

 k-point    93 :       0.2727    0.1818    0.4545
  band No.  band energies     occupation 
      1       2.5865      2.00000
      2       2.6945      2.00000
      3       3.8981      2.00000
      4       4.0866      2.00000
      5       4.8934      2.00000
      6       5.0364      2.00000
      7       6.0687      2.00000
      8       6.2989      2.00074
      9       7.6477     -0.00000
     10       7.8975     -0.00000
     11       9.6329     -0.00000
     12      10.1454     -0.00000
     13      19.4408      0.00000
     14      20.0091      0.00000
     15      22.1611      0.00000
     16      22.8800      0.00000
     17      25.0307      0.00000
     18      26.7338      0.00000
     19      33.8225      0.00000
     20      35.4027      0.00000
     21      36.4546      0.00000
     22      37.9456      0.00000
     23      41.1716      0.00000
     24      41.6334      0.00000
     25      47.9518      0.00000
     26      48.4653      0.00000
     27      51.9478      0.00000
     28      53.7954      0.00000
     29      55.4811      0.00000
     30      57.2571      0.00000
     31      58.1809      0.00000
     32      58.9323      0.00000
     33      60.1596      0.00000
     34      60.2902      0.00000
     35      61.5587      0.00000
     36      61.7748      0.00000
     37      63.3483      0.00000
     38      64.6020      0.00000
     39      66.0990      0.00000
     40      66.4029      0.00000

 k-point    94 :       0.3636    0.1818    0.4545
  band No.  band energies     occupation 
      1       2.6387      2.00000
      2       2.7834      2.00000
      3       3.7967      2.00000
      4       3.9777      2.00000
      5       5.0200      2.00000
      6       5.3318      2.00000
      7       6.3822      2.00489
      8       6.4974      2.03298
      9       7.6194     -0.00000
     10       7.7854     -0.00000
     11      11.3306     -0.00000
     12      11.7609     -0.00000
     13      16.8434      0.00000
     14      17.2169      0.00000
     15      21.5511      0.00000
     16      22.2837      0.00000
     17      26.6273      0.00000
     18      27.7245      0.00000
     19      32.1716      0.00000
     20      33.2261      0.00000
     21      35.5211      0.00000
     22      37.0221      0.00000
     23      41.8158      0.00000
     24      42.1745      0.00000
     25      51.3497      0.00000
     26      52.0225      0.00000
     27      52.3776      0.00000
     28      54.0312      0.00000
     29      56.0659      0.00000
     30      56.6584      0.00000
     31      57.1202      0.00000
     32      58.5590      0.00000
     33      60.7025      0.00000
     34      61.2044      0.00000
     35      62.8587      0.00000
     36      63.3540      0.00000
     37      64.7290      0.00000
     38      64.8472      0.00000
     39      65.6906      0.00000
     40      66.1288      0.00000

 k-point    95 :       0.2727    0.2727    0.4545
  band No.  band energies     occupation 
      1       3.0343      2.00000
      2       3.0832      2.00000
      3       3.9957      2.00000
      4       4.2108      2.00000
      5       4.5883      2.00000
      6       4.7915      2.00000
      7       5.9701      2.00000
      8       6.1679      2.00002
      9       7.6324     -0.00000
     10       7.8127     -0.00000
     11      11.7481     -0.00000
     12      12.2656     -0.00000
     13      17.9425      0.00000
     14      18.3595      0.00000
     15      19.7044      0.00000
     16      20.0926      0.00000
     17      26.7782      0.00000
     18      28.3734      0.00000
     19      32.2752      0.00000
     20      33.6427      0.00000
     21      35.2744      0.00000
     22      36.3523      0.00000
     23      44.1120      0.00000
     24      44.5117      0.00000
     25      48.2420      0.00000
     26      48.3455      0.00000
     27      54.7180      0.00000
     28      55.6168      0.00000
     29      56.1376      0.00000
     30      56.9202      0.00000
     31      58.4560      0.00000
     32      58.6428      0.00000
     33      59.4745      0.00000
     34      59.5434      0.00000
     35      61.6285      0.00000
     36      62.5179      0.00000
     37      64.5631      0.00000
     38      64.6735      0.00000
     39      65.6003      0.00000
     40      65.7352      0.00000

 k-point    96 :       0.3636    0.2727    0.4545
  band No.  band energies     occupation 
      1       3.2376      2.00000
      2       3.3624      2.00000
      3       3.9321      2.00000
      4       4.0206      2.00000
      5       4.5941      2.00000
      6       4.7175      2.00000
      7       6.0255      2.00000
      8       6.1750      2.00002
      9       7.6098     -0.00000
     10       7.6756     -0.00000
     11      13.5665      0.00000
     12      13.6974      0.00000
     13      16.2668      0.00000
     14      16.5926      0.00000
     15      19.0569      0.00000
     16      19.5015      0.00000
     17      28.4793      0.00000
     18      29.1835      0.00000
     19      31.3423      0.00000
     20      31.6849      0.00000
     21      34.9932      0.00000
     22      35.8128      0.00000
     23      45.2612      0.00000
     24      45.8940      0.00000
     25      49.9568      0.00000
     26      50.3751      0.00000
     27      52.5141      0.00000
     28      52.8941      0.00000
     29      56.1806      0.00000
     30      57.2659      0.00000
     31      58.6035      0.00000
     32      59.5814      0.00000
     33      59.6467      0.00000
     34      60.3329      0.00000
     35      61.2152      0.00000
     36      62.3124      0.00000
     37      63.8053      0.00000
     38      64.2349      0.00000
     39      67.2117      0.00000
     40      67.2834      0.00000


--------------------------------------------------------------------------------------------------------


 soft charge-density along one line, spin component           1
         0         1         2         3         4         5         6         7         8         9
x     7.7730    0.0000    0.1040   -0.1802   -0.0593   -0.1028    0.0174   -0.0000    0.0017   -0.0029
x     0.0000    0.0000
y     7.7730    0.0000    0.1040    0.1802   -0.0593    0.1028    0.0174    0.0000    0.0017    0.0029
y     0.0000    0.0000
z     7.7730    0.0000    0.0000    0.0000    0.5173    0.0000    0.0000    0.0000   -0.1698   -0.0000
z     0.0000   -0.0000    0.0167   -0.0000    0.0000    0.0000    0.0077   -0.0000    0.0000    0.0000
 total charge-density along one line
x    16.0000    0.0000    1.4957   -2.5906    0.3116    0.5397    0.0357    0.0000    0.0007   -0.0013
x     0.0003    0.0005   -0.0006    0.0000    0.0001   -0.0001   -0.0001   -0.0001    0.0001   -0.0000
x    -0.0000    0.0000
y    16.0000    0.0000    1.4957    2.5906    0.3116   -0.5397    0.0357   -0.0000    0.0007    0.0013
y     0.0003   -0.0005   -0.0006   -0.0000    0.0001    0.0001   -0.0001    0.0001    0.0001    0.0000
y    -0.0000   -0.0000
z    16.0000    0.0000   -0.0000    0.0000    6.1550   -0.0000   -0.0000    0.0000    1.4032   -0.0000
z    -0.0000   -0.0000    0.0547   -0.0000    0.0000   -0.0000    0.0019    0.0000   -0.0000    0.0000
z     0.0025   -0.0000    0.0000   -0.0000   -0.0012   -0.0000    0.0000   -0.0000    0.0006    0.0000
z     0.0000    0.0000   -0.0004   -0.0000   -0.0000    0.0000    0.0004   -0.0000
 
 pseudopotential strength for first ion, spin component:           1
 -4.466  -0.000  -0.000  -0.000  -0.000  -5.029  -0.000  -0.000
 -0.000  -4.459  -0.000  -0.000   0.000  -0.000  -5.022  -0.000
 -0.000  -0.000  -4.467  -0.000  -0.000  -0.000  -0.000  -5.030
 -0.000  -0.000  -0.000  -4.459  -0.000  -0.000  -0.000  -0.000
 -0.000   0.000  -0.000  -0.000  -4.466  -0.000   0.000  -0.000
 -5.029  -0.000  -0.000  -0.000  -0.000  -5.550  -0.000  -0.000
 -0.000  -5.022  -0.000  -0.000   0.000  -0.000  -5.542  -0.000
 -0.000  -0.000  -5.030  -0.000  -0.000  -0.000  -0.000  -5.550
 -0.000  -0.000  -0.000  -5.022  -0.000  -0.000  -0.000  -0.000
 -0.000   0.000  -0.000  -0.000  -5.029  -0.000   0.000  -0.000
  0.000   0.000   0.001   0.000  -0.000   0.000   0.000   0.001
  0.000   0.000   0.002   0.000  -0.000   0.000   0.000   0.002
 -0.000   0.000   0.000  -0.000  -0.001  -0.000   0.000   0.000
 -0.000  -0.000   0.000   0.000  -0.000  -0.000  -0.000   0.000
 -0.001  -0.000   0.000   0.000  -0.000  -0.001  -0.000   0.000
 -0.000   0.000   0.000  -0.000  -0.001  -0.000   0.000   0.000
 -0.000  -0.000   0.000   0.000  -0.000  -0.000  -0.000   0.000
 -0.001  -0.000   0.000   0.000  -0.000  -0.001  -0.000   0.000
 total augmentation occupancy for first ion, spin component:           1
  1.597  -0.000   0.000   0.000  -0.000  -0.925   0.000  -0.000   0.000   0.000   0.000  -0.000   0.000  -0.000   0.033  -0.000
 -0.000   2.065  -0.000  -0.000   0.000   0.000  -1.161  -0.000   0.000   0.000   0.000   0.000   0.000   0.000   0.000   0.000
  0.000  -0.000   1.305   0.000  -0.000  -0.000   0.000  -0.681   0.000   0.000   0.038  -0.011  -0.000   0.000   0.000   0.000
  0.000  -0.000  -0.000   2.065   0.000   0.000   0.000   0.000  -1.161  -0.000  -0.000   0.000   0.000   0.000   0.000   0.000
 -0.000   0.000  -0.000   0.000   1.597   0.000   0.000   0.000   0.000  -0.925  -0.000  -0.000   0.033  -0.000  -0.000  -0.002
 -0.925   0.000  -0.000   0.000  -0.000   1.620   0.000   0.000  -0.000  -0.000  -0.000   0.000  -0.000  -0.000  -0.047   0.000
  0.000  -1.161  -0.000   0.000   0.000   0.000   1.595  -0.000  -0.000   0.000   0.000  -0.000  -0.000   0.000  -0.000   0.000
 -0.000  -0.000  -0.681   0.000   0.000   0.000   0.000   1.406  -0.000  -0.000  -0.114   0.010   0.000   0.000  -0.000  -0.000
  0.000   0.000   0.000  -1.161  -0.000   0.000  -0.000  -0.000   1.595   0.000   0.000  -0.000   0.000  -0.000   0.000   0.000
  0.000   0.000   0.000   0.000  -0.925   0.000   0.000  -0.000   0.000   1.620   0.000   0.000  -0.047   0.000   0.000   0.003
  0.000   0.000   0.038  -0.000  -0.000  -0.000   0.000  -0.114   0.000   0.000   2.651  -0.303   0.000   0.000   0.000   0.000
 -0.000   0.000  -0.011   0.000   0.000   0.000  -0.000   0.010  -0.000   0.000  -0.303   0.039   0.000   0.000   0.000  -0.000
  0.000   0.000  -0.000  -0.000   0.033  -0.000   0.000   0.000   0.000  -0.047   0.000   0.000   0.349   0.000  -0.000  -0.028
 -0.000   0.000   0.000  -0.000   0.000   0.000   0.000   0.000  -0.000   0.000   0.000   0.000  -0.000   0.326  -0.000  -0.000
  0.033   0.000   0.000  -0.000  -0.000  -0.047   0.000  -0.000   0.000   0.000  -0.000   0.000  -0.000   0.000   0.349   0.000
 -0.000   0.000   0.000   0.000  -0.002   0.000   0.000  -0.000   0.000   0.003  -0.000  -0.000  -0.028  -0.000   0.000   0.003
 -0.000   0.000   0.000  -0.000  -0.000   0.000  -0.000   0.000  -0.000   0.000   0.000   0.000  -0.000  -0.029   0.000   0.000
 -0.002  -0.000  -0.000   0.000   0.000   0.003   0.000   0.000  -0.000  -0.000   0.000   0.000   0.000  -0.000  -0.028  -0.000


------------------------ aborting loop because EDIFF is reached ----------------------------------------


    CHARGE:  cpu time    0.0209: real time    0.0209
    FORLOC:  cpu time    0.0002: real time    0.0002
    FORNL :  cpu time    0.0975: real time    0.0975
    STRESS:  cpu time    0.1518: real time    0.1518
    FORCOR:  cpu time    0.0034: real time    0.0034
    FORHAR:  cpu time    0.0007: real time    0.0007
    MIXING:  cpu time    0.0002: real time    0.0002

  FORCE on cell =-STRESS in cart. coord.  units (eV):
  Direction    XX          YY          ZZ          XY          YZ          ZX
  --------------------------------------------------------------------------------------
  Alpha Z   135.14431   135.14431   135.14431
  Ewald    -394.07188  -394.07188  -437.04672     0.00000    -0.00000    -0.00000
  Hartree    63.40930    63.40931    47.02723    -0.00000    -0.00000    -0.00000
  E(xc)     -78.56017   -78.56023   -78.31450     0.00028    -0.00000     0.00000
  Local     102.72188   102.72211   159.89776    -0.00092     0.00000     0.00000
  n-local   -52.86598   -52.08724   -54.61217    -3.84804     1.40875     0.93671
  augment    75.76600    75.76532    76.02297     0.00121     0.00000    -0.00000
  Kinetic   153.10904   146.79441   147.81950     1.39942    -0.95604     0.18997
  Fock        0.00000     0.00000     0.00000     0.00000     0.00000     0.00000
  -------------------------------------------------------------------------------------
  Total       1.88430     1.88430    -4.06163    -0.00000    -0.00000     0.00000
  in kB     147.58252   147.58252  -318.11496    -0.00000    -0.00000     0.00000
  external pressure =       -7.65 kB  Pullay stress =        0.00 kB


 VOLUME and BASIS-vectors are now :
 -----------------------------------------------------------------------------
  energy-cutoff  :      280.00
  volume of cell :       20.46
      direct lattice vectors                 reciprocal lattice vectors
     2.376600000  0.000000000  0.000000000     0.420769166  0.242931191  0.000000000
    -1.188300000  2.058195975  0.000000000     0.000000000  0.485862383  0.000000000
     0.000000000  0.000000000  4.182000000     0.000000000  0.000000000  0.239120038

  length of vectors
     2.376600000  2.376600000  4.182000000     0.485862383  0.485862383  0.239120038


 FORCES acting on ions
    electron-ion (+dipol)            ewald-force                    non-local-force                 convergence-correction
 -----------------------------------------------------------------------------------------------
   0.272E-06 -.937E-06 -.230E-14   0.536E-12 -.308E-12 -.226E-13   -.407E-17 0.168E-17 -.161E-20   -.565E-08 0.314E-08 0.147E-13
   -.188E-05 0.852E-05 0.243E-12   -.528E-12 0.303E-12 0.226E-13   0.541E-17 0.812E-18 -.401E-19   0.584E-08 -.325E-08 -.162E-13
 -----------------------------------------------------------------------------------------------
   -.161E-05 0.758E-05 0.240E-12   0.779E-14 -.566E-14 0.122E-16   0.134E-17 0.249E-17 -.417E-19   0.191E-09 -.109E-09 -.150E-14
 
 
 POSITION                                       TOTAL-FORCE (eV/Angst)
 -----------------------------------------------------------------------------------
      0.00000      0.00000      0.00000        -0.000000      0.000000     -0.000000
      0.00000      1.37213      2.09100         0.000000     -0.000000      0.000000
 -----------------------------------------------------------------------------------
    total drift:                               -0.000002      0.000008      0.000000


--------------------------------------------------------------------------------------------------------



  FREE ENERGIE OF THE ION-ELECTRON SYSTEM (eV)
  ---------------------------------------------------
  free  energy   TOTEN  =       -16.10385928 eV

  energy  without entropy=      -16.10652936  energy(sigma->0) =      -16.10474931
 


--------------------------------------------------------------------------------------------------------


    POTLOK:  cpu time    0.0054: real time    0.0054


--------------------------------------------------------------------------------------------------------


 writing wavefunctions
     LOOP+:  cpu time    9.9726: real time    9.9922
    4ORBIT:  cpu time    0.0000: real time    0.0000

 total amount of memory used by VASP MPI-rank0    50146. kBytes
=======================================================================

   base      :      30000. kBytes
   nonl-proj :       3145. kBytes
   grid      :        812. kBytes
   one-center:         31. kBytes
   wavefun   :      16158. kBytes
 
  
  
 General timing and accounting informations for this job:
 ========================================================
  
                  Total CPU time used (sec):       10.147
                            User time (sec):       10.083
                          System time (sec):        0.064
                         Elapsed time (sec):       10.156
  
                   Maximum memory used (kb):       55144.
                   Average memory used (kb):          N/A
  
                          Minor page faults:         7393
                          Major page faults:            0
                 Voluntary context switches:           26
