 vasp.6.2.0 18Jan21 (build Mar 17 2021 09:06:54) complex                        
  
 POSCAR found type information on POSCAR Fe
 POSCAR found :  1 types and       2 ions
 LDA part: xc-table for Pade appr. of Perdew
 POSCAR, INCAR and KPOINTS ok, starting setup
 FFT: planning ...
 WAVECAR not read
 WARNING: chargedensity file is incomplete
 entering main loop
       N       E                     dE             d eps       ncg     rms          rms(c)
DAV:   1     0.609827408492E+02    0.60983E+02   -0.26372E+03  9120   0.319E+02
DAV:   2    -0.147409311209E+02   -0.75724E+02   -0.64344E+02  7944   0.955E+01
DAV:   3    -0.191912208682E+02   -0.44503E+01   -0.42063E+01  9520   0.242E+01
DAV:   4    -0.192122520745E+02   -0.21031E-01   -0.21017E-01  9200   0.173E+00
DAV:   5    -0.192122783912E+02   -0.26317E-04   -0.26316E-04  9192   0.578E-02    0.169E+01
DAV:   6    -0.163454242035E+02    0.28669E+01   -0.18398E+00 11176   0.252E+01    0.253E+00
DAV:   7    -0.161411125238E+02    0.20431E+00   -0.12678E-01 10168   0.560E+00    0.105E+00
DAV:   8    -0.161145906535E+02    0.26522E-01   -0.35919E-03 10072   0.395E-01    0.489E-01
DAV:   9    -0.161038381073E+02    0.10753E-01   -0.90640E-04 11168   0.171E-01    0.582E-02
DAV:  10    -0.161038673583E+02   -0.29251E-04   -0.35574E-05  8920   0.239E-02    0.252E-02
DAV:  11    -0.161038599933E+02    0.73650E-05   -0.40269E-07  8856   0.612E-03    0.188E-03
DAV:  12    -0.161038592793E+02    0.71404E-06   -0.58345E-08  5992   0.128E-03
   1 F= -.16103859E+02 E0= -.16104749E+02  d E =0.267009E-02
 writing wavefunctions
