unknown system                          
   1.00000000000000     
     3.635000    0.000000    0.000000
     0.000000    3.635000    0.000000
     0.000000    0.000000    3.635000
   Cu
     4
Direct
  0.000000  0.000000  0.000000
  0.500000  0.500000  0.000000
  0.500000  0.000000  0.500000
  0.000000  0.500000  0.500000
 
   28   28   28
  843.17      780.65      617.86      414.07      230.59      104.68      41.542      20.980      13.934      10.567    
  9.1224      7.9497      7.3157      7.6014      7.9360      7.6014      7.3157      7.9497      9.1224      10.567    
  13.934      20.980      41.542      104.68      230.59      414.07      617.86      780.65      780.65      722.41    
  570.82      381.29      211.29      95.625      38.636      20.457      13.748      10.509      9.0722      7.8832    
  7.1807      7.3378      7.6014      7.3378      7.1807      7.8832      9.0722      10.509      13.748      20.457    
  38.636      95.625      211.29      381.29      570.82      722.41      617.86      570.82      448.58      296.59    
  162.05      73.149      31.810      19.124      13.241      10.382      9.0466      7.9422      7.2197      7.1807    
  7.3157      7.1807      7.2197      7.9422      9.0466      10.382      13.241      19.124      31.810      73.149    
  162.05      296.59      448.58      570.82      414.07      381.29      296.59      192.71      103.52      48.108    
  25.004      17.256      12.556      10.287      9.2238      8.4361      7.9422      7.8832      7.9497      7.8832    
  7.9422      8.4361      9.2238      10.287      12.556      17.256      25.004      48.108      103.52      192.71    
  296.59      381.29      230.59      211.29      162.05      103.52      56.307      30.178      20.464      15.211    
  11.887      10.309      9.6150      9.2238      9.0466      9.0722      9.1224      9.0722      9.0466      9.2238    
  9.6150      10.309      11.887      15.211      20.464      30.178      56.307      103.52      162.05      211.29    
  104.68      95.625      73.149      48.108      30.178      21.619      16.898      13.427      11.446      10.583    
  10.309      10.287      10.382      10.509      10.567      10.509      10.382      10.287      10.309      10.583    
  11.446      13.427      16.898      21.619      30.178      48.108      73.149      95.625      41.542      38.636    
  31.810      25.004      20.464      16.898      14.034      12.241      11.469      11.446      11.887      12.556    
  13.241      13.748      13.934      13.748      13.241      12.556      11.887      11.446      11.469      12.241    
  14.034      16.898      20.464      25.004      31.810      38.636      20.980      20.457      19.124      17.256    
  15.211      13.427      12.241      11.829      12.241      13.427      15.211      17.256      19.124      20.457    
  20.980      20.457      19.124      17.256      15.211      13.427      12.241      11.829      12.241      13.427    
  15.211      17.256      19.124      20.457      13.934      13.748      13.241      12.556      11.887      11.446    
  11.469      12.241      14.034      16.898      20.464      25.004      31.810      38.636      41.542      38.636    
  31.810      25.004      20.464      16.898      14.034      12.241      11.469      11.446      11.887      12.556    
  13.241      13.748      10.567      10.509      10.382      10.287      10.309      10.583      11.446      13.427    
  16.898      21.619      30.178      48.108      73.149      95.625      104.68      95.625      73.149      48.108    
  30.178      21.619      16.898      13.427      11.446      10.583      10.309      10.287      10.382      10.509    
  9.1224      9.0722      9.0466      9.2238      9.6150      10.309      11.887      15.211      20.464      30.178    
  56.307      103.52      162.05      211.29      230.59      211.29      162.05      103.52      56.307      30.178    
  20.464      15.211      11.887      10.309      9.6150      9.2238      9.0466      9.0722      7.9497      7.8832    
  7.9422      8.4361      9.2238      10.287      12.556      17.256      25.004      48.108      103.52      192.71    
  296.59      381.29      414.07      381.29      296.59      192.71      103.52      48.108      25.004      17.256    
  12.556      10.287      9.2238      8.4361      7.9422      7.8832      7.3157      7.1807      7.2197      7.9422    
  9.0466      10.382      13.241      19.124      31.810      73.149      162.05      296.59      448.58      570.82    
  617.86      570.82      448.58      296.59      162.05      73.149      31.810      19.124      13.241      10.382    
  9.0466      7.9422      7.2197      7.1807      7.6014      7.3378      7.1807      7.8832      9.0722      10.509    
  13.748      20.457      38.636      95.625      211.29      381.29      570.82      722.41      780.65      722.41    
  570.82      381.29      211.29      95.625      38.636      20.457      13.748      10.509      9.0722      7.8832    
  7.1807      7.3378      7.9360      7.6014      7.3157      7.9497      9.1224      10.567      13.934      20.980    
  41.542      104.68      230.59      414.07      617.86      780.65      843.17      780.65      617.86      414.07    
  230.59      104.68      41.542      20.980      13.934      10.567      9.1224      7.9497      7.3157      7.6014    
  7.6014      7.3378      7.1807      7.8832      9.0722      10.509      13.748      20.457      38.636      95.625    
  211.29      381.29      570.82      722.41      780.65      722.41      570.82      381.29      211.29      95.625    
  38.636      20.457      13.748      10.509      9.0722      7.8832      7.1807      7.3378      7.3157      7.1807    
  7.2197      7.9422      9.0466      10.382      13.241      19.124      31.810      73.149      162.05      296.59    
  448.58      570.82      617.86      570.82      448.58      296.59      162.05      73.149      31.810      19.124    
  13.241      10.382      9.0466      7.9422      7.2197      7.1807      7.9497      7.8832      7.9422      8.4361    
  9.2238      10.287      12.556      17.256      25.004      48.108      103.52      192.71      296.59      381.29    
  414.07      381.29      296.59      192.71      103.52      48.108      25.004      17.256      12.556      10.287    
  9.2238      8.4361      7.9422      7.8832      9.1224      9.0722      9.0466      9.2238      9.6150      10.309    
  11.887      15.211      20.464      30.178      56.307      103.52      162.05      211.29      230.59      211.29    
  162.05      103.52      56.307      30.178      20.464      15.211      11.887      10.309      9.6150      9.2238    
  9.0466      9.0722      10.567      10.509      10.382      10.287      10.309      10.583      11.446      13.427    
  16.898      21.619      30.178      48.108      73.149      95.625      104.68      95.625      73.149      48.108    
  30.178      21.619      16.898      13.427      11.446      10.583      10.309      10.287      10.382      10.509    
  13.934      13.748      13.241      12.556      11.887      11.446      11.469      12.241      14.034      16.898    
  20.464      25.004      31.810      38.636      41.542      38.636      31.810      25.004      20.464      16.898    
  14.034      12.241      11.469      11.446      11.887      12.556      13.241      13.748      20.980      20.457    
  19.124      17.256      15.211      13.427      12.241      11.829      12.241      13.427      15.211      17.256    
  19.124      20.457      20.980      20.457      19.124      17.256      15.211      13.427      12.241      11.829    
  12.241      13.427      15.211      17.256      19.124      20.457      41.542      38.636      31.810      25.004    
  20.464      16.898      14.034      12.241      11.469      11.446      11.887      12.556      13.241      13.748    
  13.934      13.748      13.241      12.556      11.887      11.446      11.469      12.241      14.034      16.898    
  20.464      25.004      31.810      38.636      104.68      95.625      73.149      48.108      30.178      21.619    
  16.898      13.427      11.446      10.583      10.309      10.287      10.382      10.509      10.567      10.509    
  10.382      10.287      10.309      10.583      11.446      13.427      16.898      21.619      30.178      48.108    
  73.149      95.625      230.59      211.29      162.05      103.52      56.307      30.178      20.464      15.211    
  11.887      10.309      9.6150      9.2238      9.0466      9.0722      9.1224      9.0722      9.0466      9.2238    
  9.6150      10.309      11.887      15.211      20.464      30.178      56.307      103.52      162.05      211.29    
  414.07      381.29      296.59      192.71      103.52      48.108      25.004      17.256      12.556      10.287    
  9.2238      8.4361      7.9422      7.8832      7.9497      7.8832      7.9422      8.4361      9.2238      10.287    
  12.556      17.256      25.004      48.108      103.52      192.71      296.59      381.29      617.86      570.82    
  448.58      296.59      162.05      73.149      31.810      19.124      13.241      10.382      9.0466      7.9422    
  7.2197      7.1807      7.3157      7.1807      7.2197      7.9422      9.0466      10.382      13.241      19.124    
  31.810      73.149      162.05      296.59      448.58      570.82      780.65      722.41      570.82      381.29    
  211.29      95.625      38.636      20.457      13.748      10.509      9.0722      7.8832      7.1807      7.3378    
  7.6014      7.3378      7.1807      7.8832      9.0722      10.509      13.748      20.457      38.636      95.625    
  211.29      381.29      570.82      722.41      780.65      722.41      570.82      381.29      211.29      95.625    
  38.636      20.457      13.748      10.509      9.0722      7.8832      7.1807      7.3378      7.6014      7.3378    
  7.1807      7.8832      9.0722      10.509      13.748      20.457      38.636      95.625      211.29      381.29    
  570.82      722.41      722.41      668.17      527.04      350.87      193.49      87.379      36.057      19.975    
  13.568      10.458      9.0398      7.8463      7.0907      7.1367      7.3378      7.1367      7.0907      7.8463    
  9.0398      10.458      13.568      19.975      36.057      87.379      193.49      350.87      527.04      668.17    
  570.82      527.04      413.38      272.36      148.17      67.000      30.030      18.698      13.078      10.348    
  9.0467      7.9560      7.2062      7.0907      7.1807      7.0907      7.2062      7.9560      9.0467      10.348    
  13.078      18.698      30.030      67.000      148.17      272.36      413.38      527.04      381.29      350.87    
  272.36      176.41      94.601      44.489      24.056      16.882      12.416      10.263      9.2387      8.4668    
  7.9560      7.8463      7.8832      7.8463      7.9560      8.4668      9.2387      10.263      12.416      16.882    
  24.056      44.489      94.601      176.41      272.36      350.87      211.29      193.49      148.17      94.601    
  51.837      28.603      19.941      14.911      11.770      10.282      9.6210      9.2387      9.0467      9.0398    
  9.0722      9.0398      9.0467      9.2387      9.6210      10.282      11.770      14.911      19.941      28.603    
  51.837      94.601      148.17      193.49      95.625      87.379      67.000      44.489      28.603      21.026    
  16.501      13.206      11.344      10.537      10.282      10.263      10.348      10.458      10.509      10.458    
  10.348      10.263      10.282      10.537      11.344      13.206      16.501      21.026      28.603      44.489    
  67.000      87.379      38.636      36.057      30.030      24.056      19.941      16.501      13.771      12.078    
  11.357      11.344      11.770      12.416      13.078      13.568      13.748      13.568      13.078      12.416    
  11.770      11.344      11.357      12.078      13.771      16.501      19.941      24.056      30.030      36.057    
  20.457      19.975      18.698      16.882      14.911      13.206      12.078      11.688      12.078      13.206    
  14.911      16.882      18.698      19.975      20.457      19.975      18.698      16.882      14.911      13.206    
  12.078      11.688      12.078      13.206      14.911      16.882      18.698      19.975      13.748      13.568    
  13.078      12.416      11.770      11.344      11.357      12.078      13.771      16.501      19.941      24.056    
  30.030      36.057      38.636      36.057      30.030      24.056      19.941      16.501      13.771      12.078    
  11.357      11.344      11.770      12.416      13.078      13.568      10.509      10.458      10.348      10.263    
  10.282      10.537      11.344      13.206      16.501      21.026      28.603      44.489      67.000      87.379    
  95.625      87.379      67.000      44.489      28.603      21.026      16.501      13.206      11.344      10.537    
  10.282      10.263      10.348      10.458      9.0722      9.0398      9.0467      9.2387      9.6210      10.282    
  11.770      14.911      19.941      28.603      51.837      94.601      148.17      193.49      211.29      193.49    
  148.17      94.601      51.837      28.603      19.941      14.911      11.770      10.282      9.6210      9.2387    
  9.0467      9.0398      7.8832      7.8463      7.9560      8.4668      9.2387      10.263      12.416      16.882    
  24.056      44.489      94.601      176.41      272.36      350.87      381.29      350.87      272.36      176.41    
  94.601      44.489      24.056      16.882      12.416      10.263      9.2387      8.4668      7.9560      7.8463    
  7.1807      7.0907      7.2062      7.9560      9.0467      10.348      13.078      18.698      30.030      67.000    
  148.17      272.36      413.38      527.04      570.82      527.04      413.38      272.36      148.17      67.000    
  30.030      18.698      13.078      10.348      9.0467      7.9560      7.2062      7.0907      7.3378      7.1367    
  7.0907      7.8463      9.0398      10.458      13.568      19.975      36.057      87.379      193.49      350.87    
  527.04      668.17      722.41      668.17      527.04      350.87      193.49      87.379      36.057      19.975    
  13.568      10.458      9.0398      7.8463      7.0907      7.1367      7.6014      7.3378      7.1807      7.8832    
  9.0722      10.509      13.748      20.457      38.636      95.625      211.29      381.29      570.82      722.41    
  780.65      722.41      570.82      381.29      211.29      95.625      38.636      20.457      13.748      10.509    
  9.0722      7.8832      7.1807      7.3378      7.3378      7.1367      7.0907      7.8463      9.0398      10.458    
  13.568      19.975      36.057      87.379      193.49      350.87      527.04      668.17      722.41      668.17    
  527.04      350.87      193.49      87.379      36.057      19.975      13.568      10.458      9.0398      7.8463    
  7.0907      7.1367      7.1807      7.0907      7.2062      7.9560      9.0467      10.348      13.078      18.698    
  30.030      67.000      148.17      272.36      413.38      527.04      570.82      527.04      413.38      272.36    
  148.17      67.000      30.030      18.698      13.078      10.348      9.0467      7.9560      7.2062      7.0907    
  7.8832      7.8463      7.9560      8.4668      9.2387      10.263      12.416      16.882      24.056      44.489    
  94.601      176.41      272.36      350.87      381.29      350.87      272.36      176.41      94.601      44.489    
  24.056      16.882      12.416      10.263      9.2387      8.4668      7.9560      7.8463      9.0722      9.0398    
  9.0467      9.2387      9.6210      10.282      11.770      14.911      19.941      28.603      51.837      94.601    
  148.17      193.49      211.29      193.49      148.17      94.601      51.837      28.603      19.941      14.911    
  11.770      10.282      9.6210      9.2387      9.0467      9.0398      10.509      10.458      10.348      10.263    
  10.282      10.537      11.344      13.206      16.501      21.026      28.603      44.489      67.000      87.379    
  95.625      87.379      67.000      44.489      28.603      21.026      16.501      13.206      11.344      10.537    
  10.282      10.263      10.348      10.458      13.748      13.568      13.078      12.416      11.770      11.344    
  11.357      12.078      13.771      16.501      19.941      24.056      30.030      36.057      38.636      36.057    
  30.030      24.056      19.941      16.501      13.771      12.078      11.357      11.344      11.770      12.416    
  13.078      13.568      20.457      19.975      18.698      16.882      14.911      13.206      12.078      11.688    
  12.078      13.206      14.911      16.882      18.698      19.975      20.457      19.975      18.698      16.882    
  14.911      13.206      12.078      11.688      12.078      13.206      14.911      16.882      18.698      19.975    
  38.636      36.057      30.030      24.056      19.941      16.501      13.771      12.078      11.357      11.344    
  11.770      12.416      13.078      13.568      13.748      13.568      13.078      12.416      11.770      11.344    
  11.357      12.078      13.771      16.501      19.941      24.056      30.030      36.057      95.625      87.379    
  67.000      44.489      28.603      21.026      16.501      13.206      11.344      10.537      10.282      10.263    
  10.348      10.458      10.509      10.458      10.348      10.263      10.282      10.537      11.344      13.206    
  16.501      21.026      28.603      44.489      67.000      87.379      211.29      193.49      148.17      94.601    
  51.837      28.603      19.941      14.911      11.770      10.282      9.6210      9.2387      9.0467      9.0398    
  9.0722      9.0398      9.0467      9.2387      9.6210      10.282      11.770      14.911      19.941      28.603    
  51.837      94.601      148.17      193.49      381.29      350.87      272.36      176.41      94.601      44.489    
  24.056      16.882      12.416      10.263      9.2387      8.4668      7.9560      7.8463      7.8832      7.8463    
  7.9560      8.4668      9.2387      10.263      12.416      16.882      24.056      44.489      94.601      176.41    
  272.36      350.87      570.82      527.04      413.38      272.36      148.17      67.000      30.030      18.698    
  13.078      10.348      9.0467      7.9560      7.2062      7.0907      7.1807      7.0907      7.2062      7.9560    
  9.0467      10.348      13.078      18.698      30.030      67.000      148.17      272.36      413.38      527.04    
  722.41      668.17      527.04      350.87      193.49      87.379      36.057      19.975      13.568      10.458    
  9.0398      7.8463      7.0907      7.1367      7.3378      7.1367      7.0907      7.8463      9.0398      10.458    
  13.568      19.975      36.057      87.379      193.49      350.87      527.04      668.17      617.86      570.82    
  448.58      296.59      162.05      73.149      31.810      19.124      13.241      10.382      9.0466      7.9422    
  7.2197      7.1807      7.3157      7.1807      7.2197      7.9422      9.0466      10.382      13.241      19.124    
  31.810      73.149      162.05      296.59      448.58      570.82      570.82      527.04      413.38      272.36    
  148.17      67.000      30.030      18.698      13.078      10.348      9.0467      7.9560      7.2062      7.0907    
  7.1807      7.0907      7.2062      7.9560      9.0467      10.348      13.078      18.698      30.030      67.000    
  148.17      272.36      413.38      527.04      448.58      413.38      322.27      210.13      113.12      51.990    
  25.918      17.519      12.635      10.270      9.1070      8.1351      7.4223      7.2062      7.2197      7.2062    
  7.4223      8.1351      9.1070      10.270      12.635      17.519      25.918      51.990      113.12      210.13    
  322.27      413.38      296.59      272.36      210.13      134.97      72.430      35.863      21.827      15.862    
  12.040      10.205      9.3079      8.6244      8.1351      7.9560      7.9422      7.9560      8.1351      8.6244    
  9.3079      10.205      12.040      15.862      21.827      35.863      72.430      134.97      210.13      272.36    
  162.05      148.17      113.12      72.430      41.064      24.948      18.500      14.107      11.463      10.217    
  9.6493      9.3079      9.1070      9.0467      9.0466      9.0467      9.1070      9.3079      9.6493      10.217    
  11.463      14.107      18.500      24.948      41.064      72.430      113.12      148.17      73.149      67.000    
  51.990      35.863      24.948      19.452      15.432      12.621      11.079      10.421      10.217      10.205    
  10.270      10.348      10.382      10.348      10.270      10.205      10.217      10.421      11.079      12.621    
  15.432      19.452      24.948      35.863      51.990      67.000      31.810      30.030      25.918      21.827    
  18.500      15.432      13.076      11.656      11.069      11.079      11.463      12.040      12.635      13.078    
  13.241      13.078      12.635      12.040      11.463      11.079      11.069      11.656      13.076      15.432    
  18.500      21.827      25.918      30.030      19.124      18.698      17.519      15.862      14.107      12.621    
  11.656      11.325      11.656      12.621      14.107      15.862      17.519      18.698      19.124      18.698    
  17.519      15.862      14.107      12.621      11.656      11.325      11.656      12.621      14.107      15.862    
  17.519      18.698      13.241      13.078      12.635      12.040      11.463      11.079      11.069      11.656    
  13.076      15.432      18.500      21.827      25.918      30.030      31.810      30.030      25.918      21.827    
  18.500      15.432      13.076      11.656      11.069      11.079      11.463      12.040      12.635      13.078    
  10.382      10.348      10.270      10.205      10.217      10.421      11.079      12.621      15.432      19.452    
  24.948      35.863      51.990      67.000      73.149      67.000      51.990      35.863      24.948      19.452    
  15.432      12.621      11.079      10.421      10.217      10.205      10.270      10.348      9.0466      9.0467    
  9.1070      9.3079      9.6493      10.217      11.463      14.107      18.500      24.948      41.064      72.430    
  113.12      148.17      162.05      148.17      113.12      72.430      41.064      24.948      18.500      14.107    
  11.463      10.217      9.6493      9.3079      9.1070      9.0467      7.9422      7.9560      8.1351      8.6244    
  9.3079      10.205      12.040      15.862      21.827      35.863      72.430      134.97      210.13      272.36    
  296.59      272.36      210.13      134.97      72.430      35.863      21.827      15.862      12.040      10.205    
  9.3079      8.6244      8.1351      7.9560      7.2197      7.2062      7.4223      8.1351      9.1070      10.270    
  12.635      17.519      25.918      51.990      113.12      210.13      322.27      413.38      448.58      413.38    
  322.27      210.13      113.12      51.990      25.918      17.519      12.635      10.270      9.1070      8.1351    
  7.4223      7.2062      7.1807      7.0907      7.2062      7.9560      9.0467      10.348      13.078      18.698    
  30.030      67.000      148.17      272.36      413.38      527.04      570.82      527.04      413.38      272.36    
  148.17      67.000      30.030      18.698      13.078      10.348      9.0467      7.9560      7.2062      7.0907    
  7.3157      7.1807      7.2197      7.9422      9.0466      10.382      13.241      19.124      31.810      73.149    
  162.05      296.59      448.58      570.82      617.86      570.82      448.58      296.59      162.05      73.149    
  31.810      19.124      13.241      10.382      9.0466      7.9422      7.2197      7.1807      7.1807      7.0907    
  7.2062      7.9560      9.0467      10.348      13.078      18.698      30.030      67.000      148.17      272.36    
  413.38      527.04      570.82      527.04      413.38      272.36      148.17      67.000      30.030      18.698    
  13.078      10.348      9.0467      7.9560      7.2062      7.0907      7.2197      7.2062      7.4223      8.1351    
  9.1070      10.270      12.635      17.519      25.918      51.990      113.12      210.13      322.27      413.38    
  448.58      413.38      322.27      210.13      113.12      51.990      25.918      17.519      12.635      10.270    
  9.1070      8.1351      7.4223      7.2062      7.9422      7.9560      8.1351      8.6244      9.3079      10.205    
  12.040      15.862      21.827      35.863      72.430      134.97      210.13      272.36      296.59      272.36    
  210.13      134.97      72.430      35.863      21.827      15.862      12.040      10.205      9.3079      8.6244    
  8.1351      7.9560      9.0466      9.0467      9.1070      9.3079      9.6493      10.217      11.463      14.107    
  18.500      24.948      41.064      72.430      113.12      148.17      162.05      148.17      113.12      72.430    
  41.064      24.948      18.500      14.107      11.463      10.217      9.6493      9.3079      9.1070      9.0467    
  10.382      10.348      10.270      10.205      10.217      10.421      11.079      12.621      15.432      19.452    
  24.948      35.863      51.990      67.000      73.149      67.000      51.990      35.863      24.948      19.452    
  15.432      12.621      11.079      10.421      10.217      10.205      10.270      10.348      13.241      13.078    
  12.635      12.040      11.463      11.079      11.069      11.656      13.076      15.432      18.500      21.827    
  25.918      30.030      31.810      30.030      25.918      21.827      18.500      15.432      13.076      11.656    
  11.069      11.079      11.463      12.040      12.635      13.078      19.124      18.698      17.519      15.862    
  14.107      12.621      11.656      11.325      11.656      12.621      14.107      15.862      17.519      18.698    
  19.124      18.698      17.519      15.862      14.107      12.621      11.656      11.325      11.656      12.621    
  14.107      15.862      17.519      18.698      31.810      30.030      25.918      21.827      18.500      15.432    
  13.076      11.656      11.069      11.079      11.463      12.040      12.635      13.078      13.241      13.078    
  12.635      12.040      11.463      11.079      11.069      11.656      13.076      15.432      18.500      21.827    
  25.918      30.030      73.149      67.000      51.990      35.863      24.948      19.452      15.432      12.621    
  11.079      10.421      10.217      10.205      10.270      10.348      10.382      10.348      10.270      10.205    
  10.217      10.421      11.079      12.621      15.432      19.452      24.948      35.863      51.990      67.000    
  162.05      148.17      113.12      72.430      41.064      24.948      18.500      14.107      11.463      10.217    
  9.6493      9.3079      9.1070      9.0467      9.0466      9.0467      9.1070      9.3079      9.6493      10.217    
  11.463      14.107      18.500      24.948      41.064      72.430      113.12      148.17      296.59      272.36    
  210.13      134.97      72.430      35.863      21.827      15.862      12.040      10.205      9.3079      8.6244    
  8.1351      7.9560      7.9422      7.9560      8.1351      8.6244      9.3079      10.205      12.040      15.862    
  21.827      35.863      72.430      134.97      210.13      272.36      448.58      413.38      322.27      210.13    
  113.12      51.990      25.918      17.519      12.635      10.270      9.1070      8.1351      7.4223      7.2062    
  7.2197      7.2062      7.4223      8.1351      9.1070      10.270      12.635      17.519      25.918      51.990    
  113.12      210.13      322.27      413.38      570.82      527.04      413.38      272.36      148.17      67.000    
  30.030      18.698      13.078      10.348      9.0467      7.9560      7.2062      7.0907      7.1807      7.0907    
  7.2062      7.9560      9.0467      10.348      13.078      18.698      30.030      67.000      148.17      272.36    
  413.38      527.04      414.07      381.29      296.59      192.71      103.52      48.108      25.004      17.256    
  12.556      10.287      9.2238      8.4361      7.9422      7.8832      7.9497      7.8832      7.9422      8.4361    
  9.2238      10.287      12.556      17.256      25.004      48.108      103.52      192.71      296.59      381.29    
  381.29      350.87      272.36      176.41      94.601      44.489      24.056      16.882      12.416      10.263    
  9.2387      8.4668      7.9560      7.8463      7.8832      7.8463      7.9560      8.4668      9.2387      10.263    
  12.416      16.882      24.056      44.489      94.601      176.41      272.36      350.87      296.59      272.36    
  210.13      134.97      72.430      35.863      21.827      15.862      12.040      10.205      9.3079      8.6244    
  8.1351      7.9560      7.9422      7.9560      8.1351      8.6244      9.3079      10.205      12.040      15.862    
  21.827      35.863      72.430      134.97      210.13      272.36      192.71      176.41      134.97      86.206    
  47.641      27.032      19.248      14.469      11.543      10.150      9.4659      8.9757      8.6244      8.4668    