unknown system                          
   1.00000000000000     
     3.635000    0.000000    0.000000
     0.000000    3.635000    0.000000
     0.000000    0.000000    3.635000
   Cu
     4
Direct
  0.000000  0.000000  0.000000
  0.500000  0.500000  0.000000
  0.500000  0.000000  0.500000
  0.000000  0.500000  0.500000
 
   28   28   28
 0.84317480718E+03 0.78065428074E+03 0.61786211072E+03 0.41406902633E+03 0.23059435192E+03
 0.10468413888E+03 0.41542020932E+02 0.20979598823E+02 0.13934344682E+02 0.10567312071E+02
 0.91223875177E+01 0.79496907084E+01 0.73157420650E+01 0.76013596804E+01 0.79359976491E+01
 0.76013596804E+01 0.73157420650E+01 0.79496907084E+01 0.91223875177E+01 0.10567312071E+02
 0.13934344682E+02 0.20979598823E+02 0.41542020932E+02 0.10468413888E+03 0.23059435192E+03
 0.41406902633E+03 0.61786211072E+03 0.78065428074E+03 0.78065428074E+03 0.72241249472E+03
 0.57081707436E+03 0.38129320166E+03 0.21129162188E+03 0.95624664396E+02 0.38635894041E+02
 0.20456546922E+02 0.13748131299E+02 0.10508629839E+02 0.90721796148E+01 0.78831621858E+01
 0.71807338329E+01 0.73377507429E+01 0.76013596804E+01 0.73377507429E+01 0.71807338329E+01
 0.78831621858E+01 0.90721796148E+01 0.10508629839E+02 0.13748131299E+02 0.20456546922E+02
 0.38635894041E+02 0.95624664396E+02 0.21129162188E+03 0.38129320166E+03 0.57081707436E+03
 0.72241249472E+03 0.61786211072E+03 0.57081707436E+03 0.44858175991E+03 0.29658513405E+03
 0.16204712873E+03 0.73148709980E+02 0.31809802253E+02 0.19124272297E+02 0.13241306435E+02
 0.10382224002E+02 0.90465797332E+01 0.79422492986E+01 0.72196559989E+01 0.71807338329E+01
 0.73157420650E+01 0.71807338329E+01 0.72196559989E+01 0.79422492986E+01 0.90465797332E+01
 0.10382224002E+02 0.13241306435E+02 0.19124272297E+02 0.31809802253E+02 0.73148709980E+02
 0.16204712873E+03 0.29658513405E+03 0.44858175991E+03 0.57081707436E+03 0.41406902633E+03
 0.38129320166E+03 0.29658513405E+03 0.19271256797E+03 0.10352105890E+03 0.48107652913E+02
 0.25004133725E+02 0.17255933026E+02 0.12555996308E+02 0.10287042484E+02 0.92237855400E+01
 0.84361094803E+01 0.79422492986E+01 0.78831621858E+01 0.79496907084E+01 0.78831621858E+01
 0.79422492986E+01 0.84361094803E+01 0.92237855400E+01 0.10287042484E+02 0.12555996308E+02
 0.17255933026E+02 0.25004133725E+02 0.48107652913E+02 0.10352105890E+03 0.19271256797E+03
 0.29658513405E+03 0.38129320166E+03 0.23059435192E+03 0.21129162188E+03 0.16204712873E+03
 0.10352105890E+03 0.56306635303E+02 0.30177729560E+02 0.20464454852E+02 0.15211428451E+02
 0.11887053648E+02 0.10308804984E+02 0.96149515919E+01 0.92237855400E+01 0.90465797332E+01
 0.90721796148E+01 0.91223875177E+01 0.90721796148E+01 0.90465797332E+01 0.92237855400E+01
 0.96149515919E+01 0.10308804984E+02 0.11887053648E+02 0.15211428451E+02 0.20464454852E+02
 0.30177729560E+02 0.56306635303E+02 0.10352105890E+03 0.16204712873E+03 0.21129162188E+03
 0.10468413888E+03 0.95624664396E+02 0.73148709980E+02 0.48107652913E+02 0.30177729560E+02
 0.21618501786E+02 0.16898205665E+02 0.13427283291E+02 0.11446110816E+02 0.10583021279E+02
 0.10308804984E+02 0.10287042484E+02 0.10382224002E+02 0.10508629839E+02 0.10567312071E+02
 0.10508629839E+02 0.10382224002E+02 0.10287042484E+02 0.10308804984E+02 0.10583021279E+02
 0.11446110816E+02 0.13427283291E+02 0.16898205665E+02 0.21618501786E+02 0.30177729560E+02
 0.48107652913E+02 0.73148709980E+02 0.95624664396E+02 0.41542020932E+02 0.38635894041E+02
 0.31809802253E+02 0.25004133725E+02 0.20464454852E+02 0.16898205665E+02 0.14033975946E+02
 0.12240535768E+02 0.11468598186E+02 0.11446110816E+02 0.11887053648E+02 0.12555996308E+02
 0.13241306435E+02 0.13748131299E+02 0.13934344682E+02 0.13748131299E+02 0.13241306435E+02
 0.12555996308E+02 0.11887053648E+02 0.11446110816E+02 0.11468598186E+02 0.12240535768E+02
 0.14033975946E+02 0.16898205665E+02 0.20464454852E+02 0.25004133725E+02 0.31809802253E+02
 0.38635894041E+02 0.20979598823E+02 0.20456546922E+02 0.19124272297E+02 0.17255933026E+02
 0.15211428451E+02 0.13427283291E+02 0.12240535768E+02 0.11828646064E+02 0.12240535768E+02
 0.13427283291E+02 0.15211428451E+02 0.17255933026E+02 0.19124272297E+02 0.20456546922E+02
 0.20979598823E+02 0.20456546922E+02 0.19124272297E+02 0.17255933026E+02 0.15211428451E+02
 0.13427283291E+02 0.12240535768E+02 0.11828646064E+02 0.12240535768E+02 0.13427283291E+02
 0.15211428451E+02 0.17255933026E+02 0.19124272297E+02 0.20456546922E+02 0.13934344682E+02
 0.13748131299E+02 0.13241306435E+02 0.12555996308E+02 0.11887053648E+02 0.11446110816E+02
 0.11468598186E+02 0.12240535768E+02 0.14033975946E+02 0.16898205665E+02 0.20464454852E+02
 0.25004133725E+02 0.31809802253E+02 0.38635894041E+02 0.41542020932E+02 0.38635894041E+02
 0.31809802253E+02 0.25004133725E+02 0.20464454852E+02 0.16898205665E+02 0.14033975946E+02
 0.12240535768E+02 0.11468598186E+02 0.11446110816E+02 0.11887053648E+02 0.12555996308E+02
 0.13241306435E+02 0.13748131299E+02 0.10567312071E+02 0.10508629839E+02 0.10382224002E+02
 0.10287042484E+02 0.10308804984E+02 0.10583021279E+02 0.11446110816E+02 0.13427283291E+02
 0.16898205665E+02 0.21618501786E+02 0.30177729560E+02 0.48107652913E+02 0.73148709980E+02
 0.95624664396E+02 0.10468413888E+03 0.95624664396E+02 0.73148709980E+02 0.48107652913E+02
 0.30177729560E+02 0.21618501786E+02 0.16898205665E+02 0.13427283291E+02 0.11446110816E+02
 0.10583021279E+02 0.10308804984E+02 0.10287042484E+02 0.10382224002E+02 0.10508629839E+02
 0.91223875177E+01 0.90721796148E+01 0.90465797332E+01 0.92237855400E+01 0.96149515919E+01
 0.10308804984E+02 0.11887053648E+02 0.15211428451E+02 0.20464454852E+02 0.30177729560E+02
 0.56306635303E+02 0.10352105890E+03 0.16204712873E+03 0.21129162188E+03 0.23059435192E+03
 0.21129162188E+03 0.16204712873E+03 0.10352105890E+03 0.56306635303E+02 0.30177729560E+02
 0.20464454852E+02 0.15211428451E+02 0.11887053648E+02 0.10308804984E+02 0.96149515919E+01
 0.92237855400E+01 0.90465797332E+01 0.90721796148E+01 0.79496907084E+01 0.78831621858E+01
 0.79422492986E+01 0.84361094803E+01 0.92237855400E+01 0.10287042484E+02 0.12555996308E+02
 0.17255933026E+02 0.25004133725E+02 0.48107652913E+02 0.10352105890E+03 0.19271256797E+03
 0.29658513405E+03 0.38129320166E+03 0.41406902633E+03 0.38129320166E+03 0.29658513405E+03
 0.19271256797E+03 0.10352105890E+03 0.48107652913E+02 0.25004133725E+02 0.17255933026E+02
 0.12555996308E+02 0.10287042484E+02 0.92237855400E+01 0.84361094803E+01 0.79422492986E+01
 0.78831621858E+01 0.73157420650E+01 0.71807338329E+01 0.72196559989E+01 0.79422492986E+01
 0.90465797332E+01 0.10382224002E+02 0.13241306435E+02 0.19124272297E+02 0.31809802253E+02
 0.73148709980E+02 0.16204712873E+03 0.29658513405E+03 0.44858175991E+03 0.57081707436E+03
 0.61786211072E+03 0.57081707436E+03 0.44858175991E+03 0.29658513405E+03 0.16204712873E+03
 0.73148709980E+02 0.31809802253E+02 0.19124272297E+02 0.13241306435E+02 0.10382224002E+02
 0.90465797332E+01 0.79422492986E+01 0.72196559989E+01 0.71807338329E+01 0.76013596804E+01
 0.73377507429E+01 0.71807338329E+01 0.78831621858E+01 0.90721796148E+01 0.10508629839E+02
 0.13748131299E+02 0.20456546922E+02 0.38635894041E+02 0.95624664396E+02 0.21129162188E+03
 0.38129320166E+03 0.57081707436E+03 0.72241249472E+03 0.78065428074E+03 0.72241249472E+03
 0.57081707436E+03 0.38129320166E+03 0.21129162188E+03 0.95624664396E+02 0.38635894041E+02
 0.20456546922E+02 0.13748131299E+02 0.10508629839E+02 0.90721796148E+01 0.78831621858E+01
 0.71807338329E+01 0.73377507429E+01 0.79359976491E+01 0.76013596804E+01 0.73157420650E+01
 0.79496907084E+01 0.91223875177E+01 0.10567312071E+02 0.13934344682E+02 0.20979598823E+02
 0.41542020932E+02 0.10468413888E+03 0.23059435192E+03 0.41406902633E+03 0.61786211072E+03
 0.78065428074E+03 0.84317480718E+03 0.78065428074E+03 0.61786211072E+03 0.41406902633E+03
 0.23059435192E+03 0.10468413888E+03 0.41542020932E+02 0.20979598823E+02 0.13934344682E+02
 0.10567312071E+02 0.91223875177E+01 0.79496907084E+01 0.73157420650E+01 0.76013596804E+01
 0.76013596804E+01 0.73377507429E+01 0.71807338329E+01 0.78831621858E+01 0.90721796148E+01
 0.10508629839E+02 0.13748131299E+02 0.20456546922E+02 0.38635894041E+02 0.95624664396E+02
 0.21129162188E+03 0.38129320166E+03 0.57081707436E+03 0.72241249472E+03 0.78065428074E+03
 0.72241249472E+03 0.57081707436E+03 0.38129320166E+03 0.21129162188E+03 0.95624664396E+02
 0.38635894041E+02 0.20456546922E+02 0.13748131299E+02 0.10508629839E+02 0.90721796148E+01
 0.78831621858E+01 0.71807338329E+01 0.73377507429E+01 0.73157420650E+01 0.71807338329E+01
 0.72196559989E+01 0.79422492986E+01 0.90465797332E+01 0.10382224002E+02 0.13241306435E+02
 0.19124272297E+02 0.31809802253E+02 0.73148709980E+02 0.16204712873E+03 0.29658513405E+03
 0.44858175991E+03 0.57081707436E+03 0.61786211072E+03 0.57081707436E+03 0.44858175991E+03
 0.29658513405E+03 0.16204712873E+03 0.73148709980E+02 0.31809802253E+02 0.19124272297E+02
 0.13241306435E+02 0.10382224002E+02 0.90465797332E+01 0.79422492986E+01 0.72196559989E+01
 0.71807338329E+01 0.79496907084E+01 0.78831621858E+01 0.79422492986E+01 0.84361094803E+01
 0.92237855400E+01 0.10287042484E+02 0.12555996308E+02 0.17255933026E+02 0.25004133725E+02
 0.48107652913E+02 0.10352105890E+03 0.19271256797E+03 0.29658513405E+03 0.38129320166E+03
 0.41406902633E+03 0.38129320166E+03 0.29658513405E+03 0.19271256797E+03 0.10352105890E+03
 0.48107652913E+02 0.25004133725E+02 0.17255933026E+02 0.12555996308E+02 0.10287042484E+02
 0.92237855400E+01 0.84361094803E+01 0.79422492986E+01 0.78831621858E+01 0.91223875177E+01
 0.90721796148E+01 0.90465797332E+01 0.92237855400E+01 0.96149515919E+01 0.10308804984E+02
 0.11887053648E+02 0.15211428451E+02 0.20464454852E+02 0.30177729560E+02 0.56306635303E+02
 0.10352105890E+03 0.16204712873E+03 0.21129162188E+03 0.23059435192E+03 0.21129162188E+03
 0.16204712873E+03 0.10352105890E+03 0.56306635303E+02 0.30177729560E+02 0.20464454852E+02
 0.15211428451E+02 0.11887053648E+02 0.10308804984E+02 0.96149515919E+01 0.92237855400E+01
 0.90465797332E+01 0.90721796148E+01 0.10567312071E+02 0.10508629839E+02 0.10382224002E+02
 0.10287042484E+02 0.10308804984E+02 0.10583021279E+02 0.11446110816E+02 0.13427283291E+02
 0.16898205665E+02 0.21618501786E+02 0.30177729560E+02 0.48107652913E+02 0.73148709980E+02
 0.95624664396E+02 0.10468413888E+03 0.95624664396E+02 0.73148709980E+02 0.48107652913E+02
 0.30177729560E+02 0.21618501786E+02 0.16898205665E+02 0.13427283291E+02 0.11446110816E+02
 0.10583021279E+02 0.10308804984E+02 0.10287042484E+02 0.10382224002E+02 0.10508629839E+02
 0.13934344682E+02 0.13748131299E+02 0.13241306435E+02 0.12555996308E+02 0.11887053648E+02
 0.11446110816E+02 0.11468598186E+02 0.12240535768E+02 0.14033975946E+02 0.16898205665E+02
 0.20464454852E+02 0.25004133725E+02 0.31809802253E+02 0.38635894041E+02 0.41542020932E+02
 0.38635894041E+02 0.31809802253E+02 0.25004133725E+02 0.20464454852E+02 0.16898205665E+02
 0.14033975946E+02 0.12240535768E+02 0.11468598186E+02 0.11446110816E+02 0.11887053648E+02
 0.12555996308E+02 0.13241306435E+02 0.13748131299E+02 0.20979598823E+02 0.20456546922E+02
 0.19124272297E+02 0.17255933026E+02 0.15211428451E+02 0.13427283291E+02 0.12240535768E+02
 0.11828646064E+02 0.12240535768E+02 0.13427283291E+02 0.15211428451E+02 0.17255933026E+02
 0.19124272297E+02 0.20456546922E+02 0.20979598823E+02 0.20456546922E+02 0.19124272297E+02
 0.17255933026E+02 0.15211428451E+02 0.13427283291E+02 0.12240535768E+02 0.11828646064E+02
 0.12240535768E+02 0.13427283291E+02 0.15211428451E+02 0.17255933026E+02 0.19124272297E+02
 0.20456546922E+02 0.41542020932E+02 0.38635894041E+02 0.31809802253E+02 0.25004133725E+02
 0.20464454852E+02 0.16898205665E+02 0.14033975946E+02 0.12240535768E+02 0.11468598186E+02
 0.11446110816E+02 0.11887053648E+02 0.12555996308E+02 0.13241306435E+02 0.13748131299E+02
 0.13934344682E+02 0.13748131299E+02 0.13241306435E+02 0.12555996308E+02 0.11887053648E+02
 0.11446110816E+02 0.11468598186E+02 0.12240535768E+02 0.14033975946E+02 0.16898205665E+02
 0.20464454852E+02 0.25004133725E+02 0.31809802253E+02 0.38635894041E+02 0.10468413888E+03
 0.95624664396E+02 0.73148709980E+02 0.48107652913E+02 0.30177729560E+02 0.21618501786E+02
 0.16898205665E+02 0.13427283291E+02 0.11446110816E+02 0.10583021279E+02 0.10308804984E+02
 0.10287042484E+02 0.10382224002E+02 0.10508629839E+02 0.10567312071E+02 0.10508629839E+02
 0.10382224002E+02 0.10287042484E+02 0.10308804984E+02 0.10583021279E+02 0.11446110816E+02
 0.13427283291E+02 0.16898205665E+02 0.21618501786E+02 0.30177729560E+02 0.48107652913E+02
 0.73148709980E+02 0.95624664396E+02 0.23059435192E+03 0.21129162188E+03 0.16204712873E+03
 0.10352105890E+03 0.56306635303E+02 0.30177729560E+02 0.20464454852E+02 0.15211428451E+02
 0.11887053648E+02 0.10308804984E+02 0.96149515919E+01 0.92237855400E+01 0.90465797332E+01
 0.90721796148E+01 0.91223875177E+01 0.90721796148E+01 0.90465797332E+01 0.92237855400E+01
 0.96149515919E+01 0.10308804984E+02 0.11887053648E+02 0.15211428451E+02 0.20464454852E+02
 0.30177729560E+02 0.56306635303E+02 0.10352105890E+03 0.16204712873E+03 0.21129162188E+03
 0.41406902633E+03 0.38129320166E+03 0.29658513405E+03 0.19271256797E+03 0.10352105890E+03
 0.48107652913E+02 0.25004133725E+02 0.17255933026E+02 0.12555996308E+02 0.10287042484E+02
 0.92237855400E+01 0.84361094803E+01 0.79422492986E+01 0.78831621858E+01 0.79496907084E+01
 0.78831621858E+01 0.79422492986E+01 0.84361094803E+01 0.92237855400E+01 0.10287042484E+02
 0.12555996308E+02 0.17255933026E+02 0.25004133725E+02 0.48107652913E+02 0.10352105890E+03
 0.19271256797E+03 0.29658513405E+03 0.38129320166E+03 0.61786211072E+03 0.57081707436E+03
 0.44858175991E+03 0.29658513405E+03 0.16204712873E+03 0.73148709980E+02 0.31809802253E+02
 0.19124272297E+02 0.13241306435E+02 0.10382224002E+02 0.90465797332E+01 0.79422492986E+01
 0.72196559989E+01 0.71807338329E+01 0.73157420650E+01 0.71807338329E+01 0.72196559989E+01
 0.79422492986E+01 0.90465797332E+01 0.10382224002E+02 0.13241306435E+02 0.19124272297E+02
 0.31809802253E+02 0.73148709980E+02 0.16204712873E+03 0.29658513405E+03 0.44858175991E+03
 0.57081707436E+03 0.78065428074E+03 0.72241249472E+03 0.57081707436E+03 0.38129320166E+03
 0.21129162188E+03 0.95624664396E+02 0.38635894041E+02 0.20456546922E+02 0.13748131299E+02
 0.10508629839E+02 0.90721796148E+01 0.78831621858E+01 0.71807338329E+01 0.73377507429E+01
 0.76013596804E+01 0.73377507429E+01 0.71807338329E+01 0.78831621858E+01 0.90721796148E+01
 0.10508629839E+02 0.13748131299E+02 0.20456546922E+02 0.38635894041E+02 0.95624664396E+02
 0.21129162188E+03 0.38129320166E+03 0.57081707436E+03 0.72241249472E+03 0.78065428074E+03
 0.72241249472E+03 0.57081707436E+03 0.38129320166E+03 0.21129162188E+03 0.95624664396E+02
 0.38635894041E+02 0.20456546922E+02 0.13748131299E+02 0.10508629839E+02 0.90721796148E+01
 0.78831621858E+01 0.71807338329E+01 0.73377507429E+01 0.76013596804E+01 0.73377507429E+01
 0.71807338329E+01 0.78831621858E+01 0.90721796148E+01 0.10508629839E+02 0.13748131299E+02
 0.20456546922E+02 0.38635894041E+02 0.95624664396E+02 0.21129162188E+03 0.38129320166E+03
 0.57081707436E+03 0.72241249472E+03 0.72241249472E+03 0.66816678533E+03 0.52703866215E+03
 0.35087295821E+03 0.19348849137E+03 0.87379454144E+02 0.36057281542E+02 0.19974620853E+02
 0.13568063840E+02 0.10458177260E+02 0.90397883257E+01 0.78462891094E+01 0.70907298081E+01
 0.71367410724E+01 0.73377507429E+01 0.71367410724E+01 0.70907298081E+01 0.78462891094E+01
 0.90397883257E+01 0.10458177260E+02 0.13568063840E+02 0.19974620853E+02 0.36057281542E+02
 0.87379454144E+02 0.19348849137E+03 0.35087295821E+03 0.52703866215E+03 0.66816678533E+03
 0.57081707436E+03 0.52703866215E+03 0.41337962461E+03 0.27235808330E+03 0.14817143677E+03
 0.67000088489E+02 0.30030217297E+02 0.18698284287E+02 0.13078017682E+02 0.10348122561E+02
 0.90467118255E+01 0.79560492772E+01 0.72061565910E+01 0.70907298081E+01 0.71807338329E+01
 0.70907298081E+01 0.72061565910E+01 0.79560492772E+01 0.90467118255E+01 0.10348122561E+02
 0.13078017682E+02 0.18698284287E+02 0.30030217297E+02 0.67000088489E+02 0.14817143677E+03
 0.27235808330E+03 0.41337962461E+03 0.52703866215E+03 0.38129320166E+03 0.35087295821E+03
 0.27235808330E+03 0.17640573025E+03 0.94600776584E+02 0.44488716840E+02 0.24055703028E+02
 0.16881584067E+02 0.12415825963E+02 0.10263031695E+02 0.92386788315E+01 0.84668459994E+01
 0.79560492772E+01 0.78462891094E+01 0.78831621858E+01 0.78462891094E+01 0.79560492772E+01
 0.84668459994E+01 0.92386788315E+01 0.10263031695E+02 0.12415825963E+02 0.16881584067E+02
 0.24055703028E+02 0.44488716840E+02 0.94600776584E+02 0.17640573025E+03 0.27235808330E+03
 0.35087295821E+03 0.21129162188E+03 0.19348849137E+03 0.14817143677E+03 0.94600776584E+02
 0.51837338586E+02 0.28603156455E+02 0.19940897956E+02 0.14911177016E+02 0.11770199172E+02
 0.10282375032E+02 0.96210403043E+01 0.92386788315E+01 0.90467118254E+01 0.90397883257E+01
 0.90721796148E+01 0.90397883257E+01 0.90467118254E+01 0.92386788315E+01 0.96210403043E+01
 0.10282375032E+02 0.11770199172E+02 0.14911177016E+02 0.19940897956E+02 0.28603156455E+02
 0.51837338586E+02 0.94600776584E+02 0.14817143677E+03 0.19348849137E+03 0.95624664396E+02
 0.87379454144E+02 0.67000088489E+02 0.44488716840E+02 0.28603156455E+02 0.21026297540E+02
 0.16501395771E+02 0.13205584429E+02 0.11343541664E+02 0.10536932736E+02 0.10282375032E+02
 0.10263031695E+02 0.10348122561E+02 0.10458177260E+02 0.10508629839E+02 0.10458177260E+02
 0.10348122561E+02 0.10263031695E+02 0.10282375032E+02 0.10536932736E+02 0.11343541664E+02
 0.13205584429E+02 0.16501395771E+02 0.21026297540E+02 0.28603156455E+02 0.44488716840E+02
 0.67000088489E+02 0.87379454144E+02 0.38635894041E+02 0.36057281542E+02 0.30030217297E+02
 0.24055703028E+02 0.19940897956E+02 0.16501395771E+02 0.13771261945E+02 0.12078077828E+02
 0.11356677937E+02 0.11343541664E+02 0.11770199172E+02 0.12415825963E+02 0.13078017682E+02
 0.13568063840E+02 0.13748131299E+02 0.13568063840E+02 0.13078017682E+02 0.12415825963E+02
 0.11770199172E+02 0.11343541664E+02 0.11356677937E+02 0.12078077828E+02 0.13771261945E+02
 0.16501395771E+02 0.19940897956E+02 0.24055703028E+02 0.30030217297E+02 0.36057281542E+02
 0.20456546922E+02 0.19974620853E+02 0.18698284287E+02 0.16881584067E+02 0.14911177016E+02
 0.13205584429E+02 0.12078077828E+02 0.11688069633E+02 0.12078077828E+02 0.13205584429E+02
 0.14911177016E+02 0.16881584067E+02 0.18698284287E+02 0.19974620853E+02 0.20456546922E+02
 0.19974620853E+02 0.18698284287E+02 0.16881584067E+02 0.14911177016E+02 0.13205584429E+02
 0.12078077828E+02 0.11688069633E+02 0.12078077828E+02 0.13205584429E+02 0.14911177016E+02
 0.16881584067E+02 0.18698284287E+02 0.19974620853E+02 0.13748131299E+02 0.13568063840E+02
 0.13078017682E+02 0.12415825963E+02 0.11770199172E+02 0.11343541664E+02 0.11356677937E+02
 0.12078077828E+02 0.13771261945E+02 0.16501395771E+02 0.19940897956E+02 0.24055703028E+02
 0.30030217297E+02 0.36057281542E+02 0.38635894041E+02 0.36057281542E+02 0.30030217297E+02
 0.24055703028E+02 0.19940897956E+02 0.16501395771E+02 0.13771261945E+02 0.12078077828E+02
 0.11356677937E+02 0.11343541664E+02 0.11770199172E+02 0.12415825963E+02 0.13078017682E+02
 0.13568063840E+02 0.10508629839E+02 0.10458177260E+02 0.10348122561E+02 0.10263031695E+02
 0.10282375032E+02 0.10536932736E+02 0.11343541664E+02 0.13205584429E+02 0.16501395771E+02
 0.21026297540E+02 0.28603156455E+02 0.44488716840E+02 0.67000088489E+02 0.87379454144E+02
 0.95624664396E+02 0.87379454144E+02 0.67000088489E+02 0.44488716840E+02 0.28603156455E+02
 0.21026297540E+02 0.16501395771E+02 0.13205584429E+02 0.11343541664E+02 0.10536932736E+02
 0.10282375032E+02 0.10263031695E+02 0.10348122561E+02 0.10458177260E+02 0.90721796148E+01
 0.90397883257E+01 0.90467118255E+01 0.92386788315E+01 0.96210403043E+01 0.10282375032E+02
 0.11770199172E+02 0.14911177016E+02 0.19940897956E+02 0.28603156455E+02 0.51837338586E+02
 0.94600776584E+02 0.14817143677E+03 0.19348849137E+03 0.21129162188E+03 0.19348849137E+03
 0.14817143677E+03 0.94600776584E+02 0.51837338586E+02 0.28603156455E+02 0.19940897956E+02
 0.14911177016E+02 0.11770199172E+02 0.10282375032E+02 0.96210403043E+01 0.92386788315E+01
 0.90467118255E+01 0.90397883257E+01 0.78831621858E+01 0.78462891094E+01 0.79560492772E+01
 0.84668459994E+01 0.92386788315E+01 0.10263031695E+02 0.12415825963E+02 0.16881584067E+02
 0.24055703028E+02 0.44488716840E+02 0.94600776584E+02 0.17640573025E+03 0.27235808330E+03
 0.35087295821E+03 0.38129320166E+03 0.35087295821E+03 0.27235808330E+03 0.17640573025E+03
 0.94600776584E+02 0.44488716840E+02 0.24055703028E+02 0.16881584067E+02 0.12415825963E+02
 0.10263031695E+02 0.92386788315E+01 0.84668459994E+01 0.79560492772E+01 0.78462891094E+01
 0.71807338329E+01 0.70907298081E+01 0.72061565910E+01 0.79560492772E+01 0.90467118255E+01
 0.10348122561E+02 0.13078017682E+02 0.18698284287E+02 0.30030217297E+02 0.67000088489E+02
 0.14817143677E+03 0.27235808330E+03 0.41337962461E+03 0.52703866215E+03 0.57081707436E+03
 0.52703866215E+03 0.41337962461E+03 0.27235808330E+03 0.14817143677E+03 0.67000088489E+02
 0.30030217297E+02 0.18698284287E+02 0.13078017682E+02 0.10348122561E+02 0.90467118255E+01
 0.79560492772E+01 0.72061565910E+01 0.70907298081E+01 0.73377507429E+01 0.71367410724E+01
 0.70907298081E+01 0.78462891094E+01 0.90397883257E+01 0.10458177260E+02 0.13568063840E+02
 0.19974620853E+02 0.36057281542E+02 0.87379454144E+02 0.19348849137E+03 0.35087295821E+03
 0.52703866215E+03 0.66816678533E+03 0.72241249472E+03 0.66816678533E+03 0.52703866215E+03
 0.35087295821E+03 0.19348849137E+03 0.87379454144E+02 0.36057281542E+02 0.19974620853E+02
 0.13568063840E+02 0.10458177260E+02 0.90397883257E+01 0.78462891094E+01 0.70907298081E+01
 0.71367410724E+01 0.76013596804E+01 0.73377507429E+01 0.71807338329E+01 0.78831621858E+01
 0.90721796148E+01 0.10508629839E+02 0.13748131299E+02 0.20456546922E+02 0.38635894041E+02
 0.95624664396E+02 0.21129162188E+03 0.38129320166E+03 0.57081707436E+03 0.72241249472E+03
 0.78065428074E+03 0.72241249472E+03 0.57081707436E+03 0.38129320166E+03 0.21129162188E+03
 0.95624664396E+02 0.38635894041E+02 0.20456546922E+02 0.13748131299E+02 0.10508629839E+02
 0.90721796148E+01 0.78831621858E+01 0.71807338329E+01 0.73377507429E+01 0.73377507429E+01
 0.71367410724E+01 0.70907298081E+01 0.78462891094E+01 0.90397883257E+01 0.10458177260E+02
 0.13568063840E+02 0.19974620853E+02 0.36057281542E+02 0.87379454144E+02 0.19348849137E+03
 0.35087295821E+03 0.52703866215E+03 0.66816678533E+03 0.72241249472E+03 0.66816678533E+03
 0.52703866215E+03 0.35087295821E+03 0.19348849137E+03 0.87379454144E+02 0.36057281542E+02
 0.19974620853E+02 0.13568063840E+02 0.10458177260E+02 0.90397883257E+01 0.78462891094E+01
 0.70907298081E+01 0.71367410724E+01 0.71807338329E+01 0.70907298081E+01 0.72061565910E+01
 0.79560492772E+01 0.90467118255E+01 0.10348122561E+02 0.13078017682E+02 0.18698284287E+02
 0.30030217297E+02 0.67000088489E+02 0.14817143677E+03 0.27235808330E+03 0.41337962461E+03
 0.52703866215E+03 0.57081707436E+03 0.52703866215E+03 0.41337962461E+03 0.27235808330E+03
 0.14817143677E+03 0.67000088489E+02 0.30030217297E+02 0.18698284287E+02 0.13078017682E+02
 0.10348122561E+02 0.90467118255E+01 0.79560492772E+01 0.72061565910E+01 0.70907298081E+01
 0.78831621858E+01 0.78462891094E+01 0.79560492772E+01 0.84668459994E+01 0.92386788315E+01
 0.10263031695E+02 0.12415825963E+02 0.16881584067E+02 0.24055703028E+02 0.44488716840E+02
 0.94600776584E+02 0.17640573025E+03 0.27235808330E+03 0.35087295821E+03 0.38129320166E+03
 0.35087295821E+03 0.27235808330E+03 0.17640573025E+03 0.94600776584E+02 0.44488716840E+02
 0.24055703028E+02 0.16881584067E+02 0.12415825963E+02 0.10263031695E+02 0.92386788315E+01
 0.84668459994E+01 0.79560492772E+01 0.78462891094E+01 0.90721796148E+01 0.90397883257E+01
 0.90467118255E+01 0.92386788315E+01 0.96210403043E+01 0.10282375032E+02 0.11770199172E+02
 0.14911177016E+02 0.19940897956E+02 0.28603156455E+02 0.51837338586E+02 0.94600776584E+02
 0.14817143677E+03 0.19348849137E+03 0.21129162188E+03 0.19348849137E+03 0.14817143677E+03
 0.94600776584E+02 0.51837338586E+02 0.28603156455E+02 0.19940897956E+02 0.14911177016E+02
 0.11770199172E+02 0.10282375032E+02 0.96210403043E+01 0.92386788315E+01 0.90467118255E+01
 0.90397883257E+01 0.10508629839E+02 0.10458177260E+02 0.10348122561E+02 0.10263031695E+02
 0.10282375032E+02 0.10536932736E+02 0.11343541664E+02 0.13205584429E+02 0.16501395771E+02
 0.21026297540E+02 0.28603156455E+02 0.44488716840E+02 0.67000088489E+02 0.87379454144E+02
 0.95624664396E+02 0.87379454144E+02 0.67000088489E+02 0.44488716840E+02 0.28603156455E+02
 0.21026297540E+02 0.16501395771E+02 0.13205584429E+02 0.11343541664E+02 0.10536932736E+02
 0.10282375032E+02 0.10263031695E+02 0.10348122561E+02 0.10458177260E+02 0.13748131299E+02
 0.13568063840E+02 0.13078017682E+02 0.12415825963E+02 0.11770199172E+02 0.11343541664E+02
 0.11356677937E+02 0.12078077828E+02 0.13771261945E+02 0.16501395771E+02 0.19940897956E+02
 0.24055703028E+02 0.30030217297E+02 0.36057281542E+02 0.38635894041E+02 0.36057281542E+02
 0.30030217297E+02 0.24055703028E+02 0.19940897956E+02 0.16501395771E+02 0.13771261945E+02
 0.12078077828E+02 0.11356677937E+02 0.11343541664E+02 0.11770199172E+02 0.12415825963E+02
 0.13078017682E+02 0.13568063840E+02 0.20456546922E+02 0.19974620853E+02 0.18698284287E+02
 0.16881584067E+02 0.14911177016E+02 0.13205584429E+02 0.12078077828E+02 0.11688069633E+02
 0.12078077828E+02 0.13205584429E+02 0.14911177016E+02 0.16881584067E+02 0.18698284287E+02
 0.19974620853E+02 0.20456546922E+02 0.19974620853E+02 0.18698284287E+02 0.16881584067E+02
 0.14911177016E+02 0.13205584429E+02 0.12078077828E+02 0.11688069633E+02 0.12078077828E+02
 0.13205584429E+02 0.14911177016E+02 0.16881584067E+02 0.18698284287E+02 0.19974620853E+02
 0.38635894041E+02 0.36057281542E+02 0.30030217297E+02 0.24055703028E+02 0.19940897956E+02
 0.16501395771E+02 0.13771261945E+02 0.12078077828E+02 0.11356677937E+02 0.11343541664E+02
 0.11770199172E+02 0.12415825963E+02 0.13078017682E+02 0.13568063840E+02 0.13748131299E+02
 0.13568063840E+02 0.13078017682E+02 0.12415825963E+02 0.11770199172E+02 0.11343541664E+02
 0.11356677937E+02 0.12078077828E+02 0.13771261945E+02 0.16501395771E+02 0.19940897956E+02
 0.24055703028E+02 0.30030217297E+02 0.36057281542E+02 0.95624664396E+02 0.87379454144E+02
 0.67000088489E+02 0.44488716840E+02 0.28603156455E+02 0.21026297540E+02 0.16501395771E+02
 0.13205584429E+02 0.11343541664E+02 0.10536932736E+02 0.10282375032E+02 0.10263031695E+02
 0.10348122561E+02 0.10458177260E+02 0.10508629839E+02 0.10458177260E+02 0.10348122561E+02
 0.10263031695E+02 0.10282375032E+02 0.10536932736E+02 0.11343541664E+02 0.13205584429E+02
 0.16501395771E+02 0.21026297540E+02 0.28603156455E+02 0.44488716840E+02 0.67000088489E+02
 0.87379454144E+02 0.21129162188E+03 0.19348849137E+03 0.14817143677E+03 0.94600776584E+02
 0.51837338586E+02 0.28603156455E+02 0.19940897956E+02 0.14911177016E+02 0.11770199172E+02
 0.10282375032E+02 0.96210403043E+01 0.92386788315E+01 0.90467118255E+01 0.90397883257E+01
 0.90721796148E+01 0.90397883257E+01 0.90467118255E+01 0.92386788315E+01 0.96210403043E+01
 0.10282375032E+02 0.11770199172E+02 0.14911177016E+02 0.19940897956E+02 0.28603156455E+02
 0.51837338586E+02 0.94600776584E+02 0.14817143677E+03 0.19348849137E+03 0.38129320166E+03
 0.35087295821E+03 0.27235808330E+03 0.17640573025E+03 0.94600776584E+02 0.44488716840E+02
 0.24055703028E+02 0.16881584067E+02 0.12415825963E+02 0.10263031695E+02 0.92386788315E+01
 0.84668459994E+01 0.79560492772E+01 0.78462891094E+01 0.78831621858E+01 0.78462891094E+01
 0.79560492772E+01 0.84668459994E+01 0.92386788315E+01 0.10263031695E+02 0.12415825963E+02
 0.16881584067E+02 0.24055703028E+02 0.44488716840E+02 0.94600776584E+02 0.17640573025E+03
 0.27235808330E+03 0.35087295821E+03 0.57081707436E+03 0.52703866215E+03 0.41337962461E+03
 0.27235808330E+03 0.14817143677E+03 0.67000088489E+02 0.30030217297E+02 0.18698284287E+02
 0.13078017682E+02 0.10348122561E+02 0.90467118255E+01 0.79560492772E+01 0.72061565910E+01
 0.70907298081E+01 0.71807338329E+01 0.70907298081E+01 0.72061565910E+01 0.79560492772E+01
 0.90467118255E+01 0.10348122561E+02 0.13078017682E+02 0.18698284287E+02 0.30030217297E+02
 0.67000088489E+02 0.14817143677E+03 0.27235808330E+03 0.41337962461E+03 0.52703866215E+03
 0.72241249472E+03 0.66816678533E+03 0.52703866215E+03 0.35087295821E+03 0.19348849137E+03
 0.87379454144E+02 0.36057281542E+02 0.19974620853E+02 0.13568063840E+02 0.10458177260E+02
 0.90397883257E+01 0.78462891094E+01 0.70907298081E+01 0.71367410724E+01 0.73377507429E+01
 0.71367410724E+01 0.70907298081E+01 0.78462891094E+01 0.90397883257E+01 0.10458177260E+02
 0.13568063840E+02 0.19974620853E+02 0.36057281542E+02 0.87379454144E+02 0.19348849137E+03
 0.35087295821E+03 0.52703866215E+03 0.66816678533E+03 0.61786211072E+03 0.57081707436E+03
 0.44858175991E+03 0.29658513405E+03 0.16204712873E+03 0.73148709980E+02 0.31809802253E+02
 0.19124272297E+02 0.13241306435E+02 0.10382224002E+02 0.90465797332E+01 0.79422492986E+01
 0.72196559989E+01 0.71807338329E+01 0.73157420650E+01 0.71807338329E+01 0.72196559989E+01
 0.79422492986E+01 0.90465797332E+01 0.10382224002E+02 0.13241306435E+02 0.19124272297E+02
 0.31809802253E+02 0.73148709980E+02 0.16204712873E+03 0.29658513405E+03 0.44858175991E+03
 0.57081707436E+03 0.57081707436E+03 0.52703866215E+03 0.41337962461E+03 0.27235808330E+03
 0.14817143677E+03 0.67000088489E+02 0.30030217297E+02 0.18698284287E+02 0.13078017682E+02
 0.10348122561E+02 0.90467118255E+01 0.79560492772E+01 0.72061565910E+01 0.70907298081E+01
 0.71807338329E+01 0.70907298081E+01 0.72061565910E+01 0.79560492772E+01 0.90467118254E+01
 0.10348122561E+02 0.13078017682E+02 0.18698284287E+02 0.30030217297E+02 0.67000088489E+02
 0.14817143677E+03 0.27235808330E+03 0.41337962461E+03 0.52703866215E+03 0.44858175991E+03