 vasp.6.2.0 18Jan21 (build Mar 17 2021 09:06:54) complex                        
  
 POSCAR found type information on POSCAR Cu
 POSCAR found :  1 types and       4 ions
 LDA part: xc-table for Pade appr. of Perdew
 POSCAR, INCAR and KPOINTS ok, starting setup
 FFT: planning ...
 WAVECAR not read
 WARNING: chargedensity file is incomplete
 entering main loop
       N       E                     dE             d eps       ncg     rms          rms(c)
DAV:   1     0.254035162392E+03    0.25404E+03   -0.12602E+04   608   0.138E+03
DAV:   2    -0.267542630481E+01   -0.25671E+03   -0.24671E+03   600   0.300E+02
DAV:   3    -0.181195412110E+02   -0.15444E+02   -0.14992E+02   672   0.104E+02
DAV:   4    -0.183216336943E+02   -0.20209E+00   -0.20199E+00   666   0.150E+01
DAV:   5    -0.183238580752E+02   -0.22244E-02   -0.22243E-02   660   0.147E+00    0.158E+01
DAV:   6    -0.160293198696E+02    0.22945E+01   -0.31799E+01   648   0.987E+01    0.832E+00
DAV:   7    -0.144532339329E+02    0.15761E+01   -0.57755E+00   666   0.405E+01    0.827E-01
DAV:   8    -0.144290985171E+02    0.24135E-01   -0.59531E-02   722   0.237E+00    0.701E-01
DAV:   9    -0.144205487572E+02    0.85498E-02   -0.16419E-02   666   0.226E+00    0.595E-02
DAV:  10    -0.144205843131E+02   -0.35556E-04   -0.73085E-04   776   0.353E-01    0.201E-02
DAV:  11    -0.144205803299E+02    0.39832E-05   -0.21807E-05   696   0.620E-02    0.381E-03
DAV:  12    -0.144205823565E+02   -0.20265E-05   -0.17522E-06   488   0.110E-02    0.451E-04
DAV:  13    -0.144205827789E+02   -0.42250E-06   -0.10536E-07   342   0.331E-03
   1 F= -.14420583E+02 E0= -.14411674E+02  d E =-.267256E-01
 writing wavefunctions
