unknown system                          
   1.00000000000000     
     2.260100    0.000000    0.000000
    -1.130050    1.957304    0.000000
     0.000000    0.000000    3.817920
   Fe
     2
Direct
  0.000000  0.000000  0.000000
  0.333333  0.666667  0.500000
 
   20   20   32
  141.57      134.58      115.66      89.962      63.355      40.470      23.878      14.103      9.8988      8.7777    
  8.5016      8.7778      9.8989      14.103      23.878      40.470      63.355      89.962      115.66      134.58    
  134.58      134.58      121.66      99.496      73.660      49.381      30.195      17.599      11.190      9.0235    
  8.4785      8.4784      9.0234      11.190      17.599      30.194      49.380      73.662      99.502      121.66    
  115.67      121.63      115.66      99.496      77.454      54.566      34.906      20.799      12.697      9.3740    
  8.4706      8.2052      8.4703      9.3741      12.698      20.798      34.903      54.564      77.456      99.501    
  89.960      99.418      99.418      89.962      73.660      54.566      36.650      22.712      13.919      9.7780    
  8.4732      7.9963      7.9962      8.4732      9.7786      13.920      22.712      36.648      54.562      73.657    
  63.349      73.554      77.306      73.559      63.355      49.381      34.906      22.712      14.389      10.054    
  8.4847      7.8649      7.6423      7.8648      8.4847      10.055      14.391      22.714      34.906      49.377    
  40.469      49.297      54.415      54.416      49.300      40.470      30.195      20.799      13.919      10.054    
  8.4932      7.8044      7.4344      7.4344      7.8041      8.4924      10.054      13.921      20.802      30.198    
  23.882      30.170      34.827      36.545      34.825      30.166      23.878      17.599      12.697      9.7780    
  8.4847      7.8044      7.3672      7.2198      7.3674      7.8037      8.4826      9.7760      12.698      17.602    
  14.103      17.625      20.818      22.714      22.712      20.814      17.622      14.103      11.190      9.3740    
  8.4732      7.8650      7.4343      7.2198      7.2202      7.4352      7.8648      8.4710      9.3703      11.186    
  9.8940      11.240      12.784      14.021      14.492      14.019      12.784      11.243      9.8988      9.0235    
  8.4706      7.9963      7.6423      7.4344      7.3674      7.4352      7.6442      7.9983      8.4706      9.0203    
  8.7776      9.0817      9.4858      9.9300      10.227      10.228      9.9326      9.4896      9.0848      8.7778    
  8.4785      8.2052      7.9962      7.8648      7.8041      7.8037      7.8648      7.9983      8.2092      8.4817    
  8.5063      8.5439      8.5914      8.6416      8.6868      8.7085      8.6889      8.6436      8.5912      8.5406    
  8.5016      8.4784      8.4703      8.4732      8.4847      8.4924      8.4826      8.4710      8.4706      8.4817    
  8.7776      8.5439      8.3313      8.1743      8.0830      8.0454      8.0458      8.0830      8.1722      8.3273    
  8.5408      8.7778      9.0234      9.3741      9.7786      10.055      10.054      9.7760      9.3703      9.0203    
  9.8940      9.0817      8.5914      8.1743      7.8675      7.6915      7.6357      7.6907      7.8656      8.1723    
  8.5914      9.0850      9.8989      11.190      12.697      13.920      14.391      13.921      12.697      11.186    
  14.103      11.240      9.4858      8.6416      8.0830      7.6915      7.4983      7.4979      7.6907      8.0831    
  8.6437      9.4895      11.243      14.103      17.599      20.798      22.712      22.714      20.802      17.602    
  23.882      17.625      12.784      9.9300      8.6868      8.0454      7.6357      7.4979      7.6355      8.0461    
  8.6889      9.9320      12.784      17.622      23.878      30.194      34.903      36.648      34.906      30.198    
  40.469      30.170      20.818      14.021      10.227      8.7085      8.0458      7.6907      7.6907      8.0461    
  8.7093      10.227      14.019      20.814      30.167      40.470      49.380      54.564      54.562      49.377    
  63.349      49.297      34.827      22.714      14.492      10.228      8.6888      8.0830      7.8656      8.0831    
  8.6889      10.227      14.491      22.712      34.827      49.301      63.355      73.662      77.456      73.657    
  89.960      73.554      54.415      36.545      22.712      14.019      9.9325      8.6436      8.1722      8.1723    
  8.6437      9.9320      14.019      22.712      36.547      54.418      73.557      89.962      99.502      99.501    
  115.67      99.418      77.306      54.416      34.825      20.814      12.784      9.4896      8.5912      8.3273    
  8.5914      9.4895      12.784      20.814      34.827      54.418      77.304      99.412      115.66      121.66    
  134.58      121.63      99.418      73.559      49.300      30.166      17.622      11.243      9.0848      8.5406    
  8.5408      9.0850      11.243      17.622      30.167      49.301      73.557      99.412      121.62      134.58    
  133.76      127.16      109.31      85.017      59.856      38.237      22.632      13.527      9.6796      8.6530    
  8.3816      8.6530      9.6797      13.527      22.632      38.237      59.856      85.017      109.31      127.16    
  127.17      127.16      114.96      94.023      69.588      46.632      28.543      16.751      10.834      8.8717    
  8.3477      8.3476      8.8716      10.834      16.750      28.542      46.631      69.590      94.029      114.97    
  109.31      114.94      109.31      94.023      73.171      51.521      32.961      19.718      12.198      9.1710    
  8.3326      8.0735      8.3323      9.1710      12.198      19.717      32.959      51.519      73.173      94.028    
  85.015      93.964      93.965      85.017      69.588      51.521      34.599      21.497      13.312      9.5207    
  8.3309      7.8664      7.8662      8.3308      9.5212      13.312      21.497      34.597      51.518      69.585    
  59.850      69.513      73.066      69.518      59.856      46.632      32.961      21.497      13.741      9.7623    
  8.3367      7.7370      7.5220      7.7369      8.3367      9.7630      13.743      21.499      32.961      46.628    
  38.237      46.585      51.430      51.431      46.588      38.237      28.543      19.718      13.312      9.7623    
  8.3419      7.6776      7.3210      7.3210      7.6774      8.3412      9.7622      13.314      19.721      28.545    
  22.636      28.554      32.949      34.572      32.947      28.550      22.632      16.751      12.198      9.5207    
  8.3367      7.6776      7.2562      7.1148      7.2565      7.6770      8.3347      9.5188      12.198      16.754    
  13.527      16.810      19.801      21.581      21.579      19.796      16.807      13.527      10.834      9.1710    
  8.3309      7.7370      7.3210      7.1148      7.1153      7.3218      7.7369      8.3288      9.1675      10.831    
  9.6751      10.912      12.341      13.490      13.929      13.489      12.341      10.915      9.6797      8.8717    
  8.3326      7.8664      7.5220      7.3210      7.2565      7.3218      7.5237      7.8682      8.3326      8.8687    
  8.6529      8.9561      9.3337      9.7436      10.018      10.018      9.7459      9.3372      8.9590      8.6530    
  8.3477      8.0735      7.8662      7.7369      7.6774      7.6770      7.7369      7.8682      8.0773      8.3506    
  8.3860      8.4378      8.5014      8.5662      8.6184      8.6412      8.6203      8.5681      8.5012      8.4348    
  8.3816      8.3476      8.3323      8.3308      8.3367      8.3412      8.3347      8.3288      8.3326      8.3507    
  8.6529      8.4378      8.2464      8.1094      8.0331      8.0035      8.0039      8.0332      8.1074      8.2427    
  8.4349      8.6530      8.8716      9.1711      9.5212      9.7630      9.7622      9.5188      9.1675      8.8687    
  9.6751      8.9561      8.5014      8.1094      7.8245      7.6629      7.6121      7.6622      7.8228      8.1075    
  8.5014      8.9592      9.6797      10.834      12.198      13.312      13.743      13.314      12.198      10.831    
  13.527      10.912      9.3337      8.5662      8.0331      7.6629      7.4813      7.4809      7.6622      8.0332    
  8.5681      9.3371      10.915      13.527      16.750      19.717      21.497      21.499      19.721      16.754    
  22.636      16.810      12.341      9.7436      8.6183      8.0035      7.6121      7.4809      7.6119      8.0041    
  8.6203      9.7454      12.341      16.807      22.632      28.542      32.959      34.597      32.961      28.545    
  38.237      28.554      19.801      13.490      10.018      8.6412      8.0039      7.6622      7.6622      8.0041    
  8.6420      10.018      13.488      19.797      28.551      38.237      46.631      51.519      51.518      46.628    
  59.850      46.585      32.949      21.581      13.929      10.018      8.6203      8.0332      7.8228      8.0332    
  8.6203      10.018      13.928      21.579      32.949      46.589      59.856      69.590      73.173      69.585    
  85.015      69.513      51.430      34.572      21.579      13.489      9.7459      8.5681      8.1074      8.1075    
  8.5681      9.7454      13.488      21.579      34.574      51.432      69.516      85.017      94.029      94.028    
  109.31      93.964      73.066      51.431      32.947      19.796      12.341      9.3372      8.5012      8.2427    
  8.5014      9.3371      12.341      19.797      32.949      51.432      73.064      93.960      109.31      114.97    
  127.17      114.94      93.965      69.518      46.588      28.550      16.807      10.915      8.9590      8.4348    
  8.4349      8.9592      10.915      16.807      28.551      46.589      69.516      93.960      114.94      127.16    
  112.89      107.33      92.277      71.752      50.479      32.291      19.360      12.052      9.1281      8.3114    
  8.0557      8.3114      9.1281      12.052      19.360      32.291      50.479      71.752      92.277      107.33    
  107.34      107.33      97.043      79.345      58.667      39.287      24.173      14.552      9.9358      8.4744    
  7.9940      7.9939      8.4743      9.9359      14.552      24.172      39.286      58.668      79.350      97.049    
  92.280      97.041      92.277      79.345      61.683      43.374      27.801      16.896      10.927      8.6557    
  7.9584      7.7188      7.9581      8.6557      10.927      16.895      27.799      43.373      61.685      79.349    
  71.750      79.339      79.340      71.752      58.667      43.374      29.150      18.315      11.755      8.8715    
  7.9428      7.5155      7.5154      7.9427      8.8719      11.756      18.315      29.149      43.372      58.664    
  50.474      58.674      61.693      58.678      50.479      39.287      27.801      18.315      12.078      9.0262    
  7.9385      7.3900      7.1968      7.3900      7.9385      9.0267      12.080      18.316      27.801      39.284    
  32.290      39.337      43.442      43.443      39.340      32.291      24.173      16.896      11.755      9.0262    
  7.9381      7.3326      7.0135      7.0136      7.3325      7.9375      9.0261      11.757      16.899      24.175    
  19.363      24.279      27.961      29.326      27.959      24.276      19.360      14.552      10.927      8.8715    
  7.9385      7.3326      6.9549      6.8298      6.9551      7.3322      7.9370      8.8700      10.927      14.554    
  12.052      14.695      17.140      18.609      18.607      17.137      14.692      12.052      9.9358      8.6557    
  7.9428      7.3900      7.0135      6.8298      6.8301      7.0141      7.3899      7.9412      8.6528      9.9334    
  9.1243      10.088      11.213      12.129      12.482      12.128      11.213      10.090      9.1281      8.4744    
  7.9584      7.5155      7.1968      7.0136      6.9551      7.0141      7.1980      7.5170      7.9584      8.4719    
  8.3113      8.6242      8.9457      9.2716      9.4869      9.4875      9.2735      8.9486      8.6265      8.3114    
  7.9940      7.7188      7.5154      7.3900      7.3325      7.3322      7.3899      7.5170      7.7219      7.9964    
  8.0593      8.1453      8.2457      8.3435      8.4164      8.4441      8.4179      8.3450      8.2454      8.1428    
  8.0557      7.9939      7.9581      7.9427      7.9385      7.9375      7.9370      7.9412      7.9584      7.9964    
  8.3113      8.1453      8.0068      7.9173      7.8758      7.8642      7.8645      7.8759      7.9157      8.0038    
  8.1429      8.3114      8.4743      8.6557      8.8719      9.0267      9.0261      8.8700      8.6529      8.4719    
  9.1243      8.6242      8.2457      7.9173      7.6860      7.5587      7.5195      7.5582      7.6847      7.9159    
  8.2457      8.6267      9.1281      9.9359      10.927      11.756      12.080      11.757      10.927      9.9334    
  12.052      10.088      8.9457      8.3435      7.8758      7.5587      7.4056      7.4053      7.5581      7.8760    
  8.3451      8.9485      10.090      12.052      14.552      16.895      18.315      18.316      16.899      14.554    
  19.363      14.695      11.213      9.2716      8.4164      7.8642      7.5195      7.4053      7.5193      7.8646    
  8.4179      9.2731      11.212      14.692      19.360      24.172      27.799      29.149      27.801      24.175    
  32.290      24.279      17.140      12.129      9.4869      8.4441      7.8645      7.5582      7.5581      7.8646    
  8.4447      9.4870      12.127      17.137      24.277      32.291      39.286      43.373      43.372      39.284    
  50.474      39.337      27.961      18.609      12.482      9.4875      8.4179      7.8759      7.6847      7.8760    
  8.4179      9.4870      12.480      18.607      27.961      39.340      50.479      58.668      61.685      58.664    
  71.750      58.674      43.442      29.326      18.607      12.128      9.2735      8.3450      7.9157      7.9159    
  8.3451      9.2731      12.127      18.607      29.327      43.444      58.677      71.752      79.350      79.349    
  92.280      79.339      61.693      43.443      27.959      17.137      11.213      8.9486      8.2454      8.0038    
  8.2457      8.9485      11.212      17.137      27.961      43.444      61.691      79.335      92.277      97.049    
  107.34      97.041      79.340      58.678      39.340      24.276      14.692      10.090      8.6265      8.1428    
  8.1429      8.6267      10.090      14.692      24.277      39.340      58.677      79.335      97.035      107.33    
  85.161      80.973      69.601      54.083      38.052      24.536      15.233      10.292      8.4755      7.8393    
  7.6125      7.8393      8.4755      10.292      15.233      24.536      38.052      54.083      69.601      80.973    
  80.975      80.973      73.191      59.790      44.154      29.630      18.568      11.856      8.8899      7.9426    
  7.5148      7.5147      7.9425      8.8900      11.856      18.568      29.630      44.155      59.793      73.195    
  69.604      73.215      69.601      59.790      46.406      32.628      21.126      13.378      9.4247      8.0254    
  7.4481      7.2409      7.4478      8.0254      9.4249      13.378      21.125      32.627      46.407      59.793    
  54.082      59.852      59.852      54.083      44.154      32.628      22.084      14.318      9.8936      8.1023    
  7.4081      7.0409      7.0408      7.4080      8.1025      9.8940      14.318      22.083      32.626      44.152    
  38.049      44.267      46.562      44.270      38.052      29.630      21.126      14.318      10.081      8.1601    
  7.3880      6.9170      6.7559      6.9170      7.3880      8.1604      10.081      14.319      21.126      29.628    
  24.536      29.803      32.896      32.897      29.805      24.536      18.568      13.378      9.8936      8.1601    
  7.3821      6.8597      6.5944      6.5945      6.8597      7.3817      8.1600      9.8947      13.380      18.570    
  15.236      18.792      21.501      22.512      21.500      18.790      15.233      11.856      9.4247      8.1023    
  7.3880      6.8597      6.5430      6.4400      6.5432      6.8594      7.3870      8.1013      9.4249      11.858    
  10.292      12.102      13.822      14.870      14.869      13.819      12.100      10.292      8.8899      8.0254    
  7.4081      6.9170      6.5944      6.4400      6.4402      6.5947      6.9169      7.4070      8.0235      8.8882    
  8.4728      9.1306      9.8844      10.505      10.746      10.504      9.8844      9.1323      8.4755      7.9426    
  7.4481      7.0409      6.7559      6.5945      6.5432      6.5947      6.7567      7.0419      7.4480      7.9408    
  7.8392      8.1717      8.4698      8.7170      8.8694      8.8697      8.7182      8.4717      8.1734      7.8393    
  7.5148      7.2409      7.0408      6.9170      6.8597      6.8595      6.9169      7.0419      7.2431      7.5165    
  7.6150      7.7399      7.8783      8.0083      8.1024      8.1373      8.1034      8.0093      7.8781      7.7381    
  7.6125      7.5147      7.4478      7.4080      7.3880      7.3817      7.3870      7.4070      7.4481      7.5165    
  7.8392      7.7399      7.6673      7.6329      7.6292      7.6361      7.6364      7.6293      7.6318      7.6652    
  7.7382      7.8393      7.9425      8.0254      8.1025      8.1604      8.1600      8.1013      8.0235      7.9408    
  8.4728      8.1717      7.8783      7.6329      7.4670      7.3797      7.3537      7.3794      7.4662      7.6319    
  7.8783      8.1735      8.4755      8.8900      9.4249      9.8940      10.081      9.8947      9.4249      8.8882    
  10.292      9.1306      8.4698      8.0083      7.6292      7.3797      7.2616      7.2614      7.3793      7.6293    
  8.0093      8.4717      9.1322      10.292      11.856      13.378      14.318      14.319      13.380      11.858    
  15.236      12.102      9.8844      8.7170      8.1024      7.6361      7.3537      7.2614      7.3535      7.6363    
  8.1034      8.7180      9.8841      12.100      15.233      18.568      21.125      22.083      21.126      18.570    
  24.536      18.792      13.822      10.505      8.8694      8.1373      7.6364      7.3794      7.3793      7.6363    
  8.1376      8.8695      10.504      13.820      18.790      24.536      29.630      32.627      32.626      29.628    
  38.049      29.803      21.501      14.870      10.746      8.8697      8.1034      7.6293      7.4662      7.6293    
  8.1034      8.8695      10.745      14.869      21.501      29.805      38.052      44.155      46.407      44.152    
  54.082      44.267      32.896      22.512      14.869      10.504      8.7182      8.0093      7.6318      7.6319    
  8.0093      8.7180      10.504      14.869      22.513      32.897      44.269      54.083      59.793      59.793    
  69.604      59.852      46.562      32.897      21.500      13.819      9.8844      8.4717      7.8781      7.6652    
  7.8783      8.4717      9.8841      13.820      21.501      32.898      46.561      59.849      69.601      73.195    
  80.975      73.215      59.852      44.270      29.805      18.790      12.100      9.1323      8.1734      7.7381    
  7.7382      8.1735      9.1322      12.100      18.790      29.805      44.269      59.849      73.211      80.973    
  57.432      54.603      46.927      36.498      25.870      17.185      11.559      8.8577      7.8752      7.3449    
  7.1592      7.3449      7.8752      8.8577      11.559      17.185      25.870      36.498      46.927      54.603    
  54.604      54.603      49.334      40.284      29.823      20.326      13.422      9.5701      8.0342      7.3755    
  7.0225      7.0225      7.3754      8.0343      9.5703      13.422      20.326      29.823      40.285      49.336    
  46.929      49.380      46.927      40.284      31.291      22.203      14.900      10.311      8.2067      7.3982    
  6.9181      6.7526      6.9179      7.3981      8.2069      10.311      14.899      22.203      31.291      40.285    
  36.498      40.406      40.406      36.498      29.823      22.203      15.461      10.787      8.3684      7.4075    
  6.8458      6.5534      6.5533      6.8457      7.4076      8.3685      10.787      15.461      22.202      29.822    
  25.869      30.029      31.575      30.031      25.870      20.326      14.900      10.787      8.4361      7.4088    
  6.8036      6.4268      6.3020      6.4268      6.8036      7.4089      8.4364      10.787      14.900      20.325    
  17.185      20.607      22.647      22.647      20.608      17.185      13.422      10.311      8.3684      7.4088    
  6.7897      6.3665      6.1599      6.1601      6.3666      6.7896      7.4088      8.3690      10.313      13.423    
  11.561      13.750      15.463      16.111      15.463      13.748      11.559      9.5701      8.2067      7.4075    
  6.8036      6.3665      6.1146      6.0341      6.1148      6.3664      6.8031      7.4070      8.2069      9.5712    
  8.8576      9.9082      10.932      11.568      11.568      10.931      9.9073      8.8577      8.0342      7.3981    
  6.8458      6.4268      6.1599      6.0341      6.0342      6.1601      6.4267      6.8452      7.3971      8.0332    
  7.8736      8.3587      8.8280      9.1990      9.3420      9.1985      8.8280      8.3598      7.8752      7.3755    
  6.9181      6.5534      6.3020      6.1601      6.1148      6.1601      6.3023      6.5539      6.9181      7.3744    
  7.3448      7.6836      7.9946      8.2317      8.3597      8.3598      8.2323      7.9956      7.6845      7.3449    
  7.0225      6.7526      6.5533      6.4268      6.3666      6.3664      6.4267      6.5539      6.7539      7.0235    
  7.1606      7.3226      7.4940      7.6495      7.7596      7.7998      7.7601      7.6500      7.4938      7.3216    
  7.1592      7.0224      6.9179      6.8457      6.8036      6.7896      6.8031      6.8452      6.9181      7.0235    
  7.3448      7.3226      7.3215      7.3439      7.3777      7.4025      7.4027      7.3778      7.3433      7.3203    
  7.3217      7.3449      7.3754      7.3981      7.4076      7.4089      7.4088      7.4070      7.3971      7.3744    
  7.8735      7.6836      7.4940      7.3439      7.2501      7.2055      7.1935      7.2055      7.2498      7.3434    
  7.4940      7.6846      7.8752      8.0343      8.2069      8.3685      8.4364      8.3690      8.2069      8.0332    
  8.8576      8.3587      7.9946      7.6495      7.3777      7.2055      7.1264      7.1263      7.2054      7.3777    
  7.6501      7.9956      8.3597      8.8577      9.5703      10.311      10.787      10.787      10.313      9.5712    
  11.561      9.9082      8.8280      8.2317      7.7596      7.4025      7.1935      7.1263      7.1933      7.4026    
  7.7601      8.2322      8.8278      9.9072      11.559      13.422      14.899      15.461      14.900      13.423    
  17.185      13.750      10.932      9.1990      8.3597      7.7998      7.4027      7.2055      7.2054      7.4026    
  7.7999      8.3598      9.1984      10.931      13.749      17.185      20.326      22.203      22.202      20.325    
  25.869      20.607      15.463      11.568      9.3420      8.3598      7.7601      7.3778      7.2498      7.3777    
  7.7601      8.3598      9.3417      11.568      15.463      20.608      25.870      29.823      31.291      29.822    
  36.498      30.029      22.647      16.111      11.568      9.1985      8.2323      7.6500      7.3433      7.3434    
  7.6501      8.2322      9.1984      11.568      16.112      22.648      30.030      36.498      40.285      40.285    
  46.929      40.406      31.575      22.647      15.463      10.931      8.8280      7.9956      7.4938      7.3203    
  7.4940      7.9956      8.8278      10.931      15.463      22.648      31.574      40.404      46.927      49.336    
  54.604      49.380      40.406      30.031      20.608      13.748      9.9073      8.3598      7.6845      7.3216    
  7.3217      7.6846      8.3597      9.9072      13.749      20.608      30.030      40.404      49.378      54.603    
  34.722      33.041      28.509      22.447      16.467      11.865      9.1690      7.9831      7.3357      6.9227    
  6.7840      6.9227      7.3357      7.9831      9.1690      11.865      16.467      22.447      28.509      33.041    
  33.042      33.041      29.909      24.588      18.585      13.385      9.9018      8.1693      7.3940      6.8722    
  6.6058      6.6058      6.8721      7.3941      8.1695      9.9019      13.385      18.586      24.589      29.910    
  28.510      29.968      28.509      24.588      19.383      14.322      10.522      8.3743      7.4221      6.8291    
  6.4610      6.3391      6.4609      6.8291      7.4223      8.3744      10.522      14.322      19.384      24.588    
  22.447      24.745      24.745      22.447      18.585      14.322      10.766      8.5166      7.4297      6.7940    
  6.3543      6.1377      6.1376      6.3542      6.7939      7.4297      8.5165      10.765      14.322      18.585    
  16.466      18.847      19.744      18.848      16.467      13.385      10.522      8.5166      7.4320      6.7732    
  6.2887      6.0054      5.9142      6.0054      6.2887      6.7732      7.4320      8.5167      10.522      13.385    
  11.865      13.732      14.874      14.874      13.733      11.865      9.9018      8.3743      7.4297      6.7732    
  6.2665      5.9403      5.7862      5.7863      5.9405      6.2665      6.7731      7.4299      8.3748      9.9023    
  9.1696      10.298      11.208      11.559      11.208      10.297      9.1690      8.1693      7.4221      6.7940    
  6.2887      5.9403      5.7449      5.6831      5.7450      5.9404      6.2885      6.7938      7.4223      8.1698    
  7.9830      8.5780      9.1246      9.4627      9.4624      9.1242      8.5777      7.9831      7.3940      6.8291    
  6.3543      6.0054      5.7862      5.6831      5.6831      5.7862      6.0053      6.3541      6.8287      7.3936    
  7.3349      7.7937      8.1816      8.4422      8.5359      8.4420      8.1816      7.7943      7.3357      6.8722    
  6.4610      6.1377      5.9142      5.7863      5.7450      5.7862      5.9142      6.1379      6.4610      6.8717    
  6.9226      7.2594      7.5744      7.8197      7.9542      7.9542      7.8198      7.5747      7.2598      6.9227    
  6.6058      6.3391      6.1376      6.0054      5.9405      5.9404      6.0053      6.1379      6.3396      6.6062    
  6.7846      6.9859      7.1915      7.3736      7.5004      7.5461      7.5006      7.3737      7.1913      6.9854    
  6.7840      6.6058      6.4609      6.3542      6.2887      6.2665      6.2885      6.3541      6.4610      6.6062    
  6.9226      6.9859      7.0640      7.1502      7.2272      7.2734      7.2735      7.2273      7.1499      7.0635    
  6.9855      6.9227      6.8721      6.8291      6.7939      6.7732      6.7731      6.7938      6.8287      6.8717    
  7.3349      7.2594      7.1915      7.1502      7.1382      7.1428      7.1470      7.1429      7.1382      7.1500    
  7.1915      7.2599      7.3357      7.3941      7.4222      7.4297      7.4320      7.4299      7.4223      7.3936    
  7.9830      7.7937      7.5744      7.3736      7.2272      7.1428      7.1076      7.1076      7.1428      7.2272    
  7.3738      7.5748      7.7941      7.9831      8.1695      8.3744      8.5165      8.5167      8.3748      8.1698    
  9.1696      8.5780      8.1816      7.8197      7.5004      7.2734      7.1470      7.1076      7.1468      7.2733    
  7.5006      7.8199      8.1815      8.5775      9.1690      9.9019      10.522      10.765      10.522      9.9023    
  11.865      10.298      9.1246      8.4422      7.9542      7.5461      7.2735      7.1429      7.1428      7.2733    
  7.5461      7.9542      8.4420      9.1241      10.297      11.865      13.385      14.322      14.322      13.385    
  16.466      13.732      11.208      9.4627      8.5359      7.9542      7.5006      7.2273      7.1382      7.2272    
  7.5006      7.9542      8.5359      9.4625      11.208      13.733      16.467      18.586      19.384      18.585    
  22.447      18.847      14.874      11.559      9.4624      8.4420      7.8198      7.3737      7.1499      7.1500    
  7.3738      7.8199      8.4420      9.4625      11.559      14.874      18.848      22.447      24.589      24.588    
  28.510      24.745      19.744      14.874      11.208      9.1242      8.1816      7.5748      7.1913      7.0635    
  7.1915      7.5748      8.1815      9.1241      11.208      14.874      19.744      24.744      28.509      29.910    
  33.042      29.968      24.745      18.848      13.733      10.297      8.5777      7.7943      7.2598      6.9854    
  6.9855      7.2599      7.7941      8.5775      10.297      13.733      18.848      24.744      29.967      33.041    
  19.401      18.572      16.371      13.527      10.891      9.0508      8.0500      7.4131      6.9276      6.6377    
  6.5435      6.6377      6.9276      7.4131      8.0500      9.0508      10.891      13.527      16.371      18.572    
  18.572      18.572      17.029      14.470      11.719      9.5176      8.1828      7.4453      6.8826      6.5021    
  6.3171      6.3171      6.5021      6.8827      7.4455      8.1829      9.5176      11.719      14.470      17.029    
  16.371      17.090      16.371      14.470      12.040      9.8261      8.3076      7.4543      6.8429      6.3926    