unknown system                          
   1.00000000000000     
     2.260100    0.000000    0.000000
    -1.130050    1.957304    0.000000
     0.000000    0.000000    3.817920
   Fe
     2
Direct
  0.000000  0.000000  0.000000
  0.333333  0.666667  0.500000
 
   20   20   32
 0.14156890181E+03 0.13457546899E+03 0.11566068511E+03 0.89961949312E+02 0.63355215102E+02
 0.40470197958E+02 0.23877859805E+02 0.14102897236E+02 0.98988287726E+01 0.87777489778E+01
 0.85016443250E+01 0.87777833325E+01 0.98988583880E+01 0.14102897384E+02 0.23877853256E+02
 0.40470222046E+02 0.63355268143E+02 0.89961990206E+02 0.11566068665E+03 0.13457545159E+03
 0.13457858167E+03 0.13457546529E+03 0.12165595450E+03 0.99495861106E+02 0.73659636387E+02
 0.49380819721E+02 0.30195226886E+02 0.17598991638E+02 0.11189526654E+02 0.90235216303E+01
 0.84785001574E+01 0.84783771924E+01 0.90234033121E+01 0.11189558979E+02 0.17598584360E+02
 0.30193969901E+02 0.49380006697E+02 0.73661789108E+02 0.99501853166E+02 0.12166291923E+03
 0.11566530182E+03 0.12162556552E+03 0.11566068625E+03 0.99495865088E+02 0.77453517972E+02
 0.54565538199E+02 0.34905543546E+02 0.20798501831E+02 0.12697278582E+02 0.93740150934E+01
 0.84705887879E+01 0.82052165112E+01 0.84703357216E+01 0.93740917672E+01 0.12697500219E+02
 0.20797701124E+02 0.34903448128E+02 0.54564191436E+02 0.77455563406E+02 0.99501112024E+02
 0.89959834939E+02 0.99417658778E+02 0.99418376454E+02 0.89961956946E+02 0.73659634433E+02
 0.54565534414E+02 0.36649711959E+02 0.22711602767E+02 0.13919137699E+02 0.97780424616E+01
 0.84732229906E+01 0.79963138462E+01 0.79961718049E+01 0.84731714909E+01 0.97785979821E+01
 0.13919972644E+02 0.22711571080E+02 0.36647977715E+02 0.54562475480E+02 0.73656503760E+02
 0.63348552836E+02 0.73553553026E+02 0.77306132650E+02 0.73558785370E+02 0.63355215236E+02
 0.49380812461E+02 0.34905547155E+02 0.22711606466E+02 0.14388765391E+02 0.10054121539E+02
 0.84847003679E+01 0.78649453507E+01 0.76423075105E+01 0.78648422869E+01 0.84847080228E+01
 0.10054841864E+02 0.14390637236E+02 0.22713726347E+02 0.34905548265E+02 0.49376876616E+02
 0.40469384357E+02 0.49296835074E+02 0.54414511036E+02 0.54416220582E+02 0.49299947180E+02
 0.40470194856E+02 0.30195228995E+02 0.20798509152E+02 0.13919132596E+02 0.10054117761E+02
 0.84931828578E+01 0.78044068902E+01 0.74343521837E+01 0.74343825942E+01 0.78041084394E+01
 0.84923670536E+01 0.10054004175E+02 0.13921290222E+02 0.20802410036E+02 0.30197937671E+02
 0.23882468426E+02 0.30169733049E+02 0.34827111172E+02 0.36545123320E+02 0.34825061355E+02
 0.30165811651E+02 0.23877857519E+02 0.17598995419E+02 0.12697274649E+02 0.97780347413E+01
 0.84847059130E+01 0.78044102131E+01 0.73671561517E+01 0.72197725102E+01 0.73673936162E+01
 0.78037102877E+01 0.84826078857E+01 0.97760031776E+01 0.12697500219E+02 0.17602153979E+02
 0.14102865550E+02 0.17625428387E+02 0.20818269498E+02 0.22714092047E+02 0.22711973484E+02
 0.20813630098E+02 0.17621894206E+02 0.14102894554E+02 0.11189528217E+02 0.93740103665E+01
 0.84732272043E+01 0.78649520930E+01 0.74343464906E+01 0.72197702479E+01 0.72202438823E+01
 0.74351884487E+01 0.78648104522E+01 0.84710480585E+01 0.93702523791E+01 0.11186397063E+02
 0.98939988799E+01 0.11239527850E+02 0.12783819425E+02 0.14020646313E+02 0.14492417242E+02
 0.14019338554E+02 0.12783818369E+02 0.11242667687E+02 0.98988327850E+01 0.90235231882E+01
 0.84705866855E+01 0.79963178871E+01 0.76423033903E+01 0.74343783253E+01 0.73674004897E+01
 0.74351898728E+01 0.76441633097E+01 0.79983270721E+01 0.84705800595E+01 0.90202732311E+01
 0.87776399964E+01 0.90817193283E+01 0.94857680207E+01 0.99300152092E+01 0.10227173220E+02
 0.10227983530E+02 0.99325546791E+01 0.94895690284E+01 0.90848333508E+01 0.87777539195E+01
 0.84784946566E+01 0.82052150395E+01 0.79961745510E+01 0.78648405915E+01 0.78041140119E+01
 0.78037125372E+01 0.78648020145E+01 0.79983257772E+01 0.82092310702E+01 0.84816506095E+01
 0.85062594952E+01 0.85438579486E+01 0.85914354517E+01 0.86415533521E+01 0.86868044062E+01
 0.87084736480E+01 0.86888516591E+01 0.86436414133E+01 0.85912173558E+01 0.85406305124E+01
 0.85016419952E+01 0.84783728910E+01 0.84703423475E+01 0.84731737991E+01 0.84847059130E+01
 0.84923667391E+01 0.84826002307E+01 0.84710461529E+01 0.84705887879E+01 0.84816518089E+01
 0.87776323922E+01 0.85438574488E+01 0.83312816108E+01 0.81743065198E+01 0.80829863765E+01
 0.80454103152E+01 0.80458001718E+01 0.80830143832E+01 0.81721850619E+01 0.83273350955E+01
 0.85407686685E+01 0.87777806700E+01 0.90234066025E+01 0.93740951174E+01 0.97785908643E+01
 0.10054838864E+02 0.10054004953E+02 0.97760037801E+01 0.93702604562E+01 0.90202749637E+01
 0.98939923377E+01 0.90817191249E+01 0.85914419242E+01 0.81743060964E+01 0.78674664503E+01
 0.76915198791E+01 0.76357208692E+01 0.76907440260E+01 0.78656404712E+01 0.81723016475E+01
 0.85914386205E+01 0.90849766869E+01 0.98988558582E+01 0.11189560052E+02 0.12697495914E+02
 0.13919970285E+02 0.14390644263E+02 0.13921292966E+02 0.12697499847E+02 0.11186396573E+02
 0.14102866906E+02 0.11239529409E+02 0.94857730030E+01 0.86415514864E+01 0.80829804821E+01
 0.76915207775E+01 0.74983151321E+01 0.74978665405E+01 0.76907136969E+01 0.80831006398E+01
 0.86436501718E+01 0.94894560213E+01 0.11242637357E+02 0.14102896060E+02 0.17598586210E+02
 0.20797701792E+02 0.22711576136E+02 0.22713727705E+02 0.20802403383E+02 0.17602152048E+02
 0.23882474975E+02 0.17625429910E+02 0.12783816978E+02 0.99300119257E+01 0.86868000430E+01
 0.80454131943E+01 0.76357259408E+01 0.74978656278E+01 0.76354996044E+01 0.80461027613E+01
 0.86888516591E+01 0.99319921678E+01 0.12783574031E+02 0.17622281547E+02 0.23877857519E+02
 0.30193972131E+02 0.34903447018E+02 0.36647975867E+02 0.34905543546E+02 0.30197937792E+02
 0.40469388128E+02 0.30169731137E+02 0.20818262788E+02 0.14020644490E+02 0.10227175782E+02
 0.87084777284E+01 0.80458038491E+01 0.76907412766E+01 0.76907100491E+01 0.80461035595E+01
 0.87093050484E+01 0.10227317037E+02 0.14018528724E+02 0.20814408093E+02 0.30167061018E+02
 0.40470222715E+02 0.49380002631E+02 0.54564188976E+02 0.54562476806E+02 0.49376879810E+02
 0.63348550502E+02 0.49296829952E+02 0.34827107936E+02 0.22714094997E+02 0.14492423528E+02
 0.10227985612E+02 0.86888494733E+01 0.80830108112E+01 0.78656382848E+01 0.80831029621E+01
 0.86888538365E+01 0.10227316556E+02 0.14490612150E+02 0.22712005319E+02 0.34827110785E+02
 0.49300784869E+02 0.63355265943E+02 0.73661789701E+02 0.77455567403E+02 0.73656506306E+02
 0.89959830585E+02 0.73553549850E+02 0.54414513977E+02 0.36545129833E+02 0.22711976271E+02
 0.14019335594E+02 0.99325498273E+01 0.86436398838E+01 0.81721873698E+01 0.81723043788E+01
 0.86436505081E+01 0.99319905996E+01 0.14018527587E+02 0.22712005156E+02 0.36546802509E+02
 0.54417501619E+02 0.73556666644E+02 0.89961993487E+02 0.99501855037E+02 0.99501109913E+02
 0.11566530028E+03 0.99417661960E+02 0.77306137172E+02 0.54416224540E+02 0.34825058506E+02
 0.20813623668E+02 0.12783816978E+02 0.94895719640E+01 0.85912206595E+01 0.83273357351E+01
 0.85914354517E+01 0.94894539746E+01 0.12783575087E+02 0.20814408373E+02 0.34827111172E+02
 0.54417502637E+02 0.77304032513E+02 0.99412391897E+02 0.11566068625E+03 0.12166291387E+03
 0.13457858251E+03 0.12162557262E+03 0.99418377733E+02 0.73558782094E+02 0.49299943469E+02
 0.30165807790E+02 0.17621897217E+02 0.11242673256E+02 0.90848326423E+01 0.85406273457E+01
 0.85407660017E+01 0.90849761819E+01 0.11242641367E+02 0.17622283035E+02 0.30167059069E+02
 0.49300786280E+02 0.73556666543E+02 0.99412389993E+02 0.12161858078E+03 0.13457544873E+03
 0.13376210131E+03 0.12716386189E+03 0.10930556539E+03 0.85017205987E+02 0.59855852365E+02
 0.38237453546E+02 0.22631630583E+02 0.13526796687E+02 0.96796470711E+01 0.86529983532E+01
 0.83816418871E+01 0.86530332882E+01 0.96796782387E+01 0.13526798664E+02 0.22631624089E+02
 0.38237474641E+02 0.59855900847E+02 0.85017243883E+02 0.10930556692E+03 0.12716384574E+03
 0.12716677475E+03 0.12716385815E+03 0.11496497118E+03 0.94023018697E+02 0.69587677312E+02
 0.46632001439E+02 0.28542739247E+02 0.16750572191E+02 0.10833534335E+02 0.88717417934E+01
 0.83476993339E+01 0.83475779963E+01 0.88716254824E+01 0.10833581578E+02 0.16750231166E+02
 0.28541601667E+02 0.46631255196E+02 0.69589684113E+02 0.94028614627E+02 0.11497148500E+03
 0.10930988732E+03 0.11494203185E+03 0.10930556634E+03 0.94023022594E+02 0.73170887989E+02
 0.51520619553E+02 0.32961277404E+02 0.19717822105E+02 0.12197901934E+02 0.91709896333E+01
 0.83325888298E+01 0.80735423300E+01 0.83323325506E+01 0.91710497721E+01 0.12198125393E+02
 0.19717104059E+02 0.32959334139E+02 0.51519352223E+02 0.73172785946E+02 0.94027925602E+02
 0.85015234689E+02 0.93964436981E+02 0.93965104452E+02 0.85017213454E+02 0.69587675446E+02
 0.51520615885E+02 0.34599128217E+02 0.21497214345E+02 0.13311624573E+02 0.95206810941E+01
 0.83308752347E+01 0.78663719688E+01 0.78662311590E+01 0.83308085563E+01 0.95211815195E+01
 0.13312389779E+02 0.21497169583E+02 0.34597490283E+02 0.51517743382E+02 0.69584745910E+02
 0.59849632549E+02 0.69512673592E+02 0.73066324923E+02 0.69517563040E+02 0.59855852618E+02
 0.46631994435E+02 0.32961281060E+02 0.21497218010E+02 0.13741090229E+02 0.97623217880E+01
 0.83366585760E+01 0.77370203554E+01 0.75220104078E+01 0.77369332369E+01 0.83366660991E+01
 0.97629742356E+01 0.13742808095E+02 0.21499178777E+02 0.32961282041E+02 0.46628326188E+02
 0.38236706691E+02 0.46584978881E+02 0.51429627085E+02 0.51431229866E+02 0.46587891357E+02
 0.38237450660E+02 0.28542741431E+02 0.19717829350E+02 0.13311619485E+02 0.97623180178E+01
 0.83419368576E+01 0.76776245259E+01 0.73209883686E+01 0.73210336122E+01 0.76773780424E+01
 0.83411910838E+01 0.97622062857E+01 0.13313631023E+02 0.19721490043E+02 0.28545298626E+02
 0.22635944485E+02 0.28553766651E+02 0.32948921712E+02 0.34572017495E+02 0.32947019725E+02
 0.28550111922E+02 0.22631628345E+02 0.16750575882E+02 0.12197897960E+02 0.95206733864E+01
 0.83366639954E+01 0.76776277914E+01 0.72562211015E+01 0.71148359877E+01 0.72564620069E+01
 0.76769964009E+01 0.83347181968E+01 0.95187860177E+01 0.12198125393E+02 0.16753546483E+02
 0.13526751982E+02 0.16809800414E+02 0.19800551937E+02 0.21581090762E+02 0.21579115336E+02
 0.19796229260E+02 0.16806515730E+02 0.13526793894E+02 0.10833535774E+02 0.91709849149E+01
 0.83308793530E+01 0.77370269909E+01 0.73209827574E+01 0.71148337735E+01 0.71152689781E+01
 0.73217548801E+01 0.77368865549E+01 0.83288460449E+01 0.91674784198E+01 0.10830605887E+02
 0.96751100993E+01 0.10912466899E+02 0.12340893349E+02 0.13490073867E+02 0.13929368116E+02
 0.13488842427E+02 0.12340892180E+02 0.10915419836E+02 0.96796509427E+01 0.88717433646E+01
 0.83325867974E+01 0.78663759788E+01 0.75220063498E+01 0.73210294393E+01 0.72564688445E+01
 0.73217563185E+01 0.75237105670E+01 0.78682403524E+01 0.83325802936E+01 0.88686964736E+01
 0.86528911806E+01 0.89561249429E+01 0.93337029638E+01 0.97435623745E+01 0.10017547514E+02
 0.10018291038E+02 0.97459088836E+01 0.93372408395E+01 0.89590391267E+01 0.86530033382E+01
 0.83476940722E+01 0.80735409731E+01 0.78662338713E+01 0.77369315653E+01 0.76773835906E+01
 0.76769986836E+01 0.77368782479E+01 0.78682390547E+01 0.80773024719E+01 0.83506491127E+01
 0.83859622834E+01 0.84377938788E+01 0.85013720383E+01 0.85661859165E+01 0.86183534790E+01
 0.86411974109E+01 0.86202529656E+01 0.85681177678E+01 0.85011521657E+01 0.84347683232E+01
 0.83816398262E+01 0.83475738756E+01 0.83323390544E+01 0.83308107600E+01 0.83366639954E+01
 0.83411908187E+01 0.83347106737E+01 0.83288441302E+01 0.83325888298E+01 0.83506502538E+01
 0.86528836539E+01 0.84377934208E+01 0.82464375573E+01 0.81093778470E+01 0.80331163938E+01
 0.80034990428E+01 0.80038718658E+01 0.80331574616E+01 0.81073996084E+01 0.82427430546E+01
 0.84349049335E+01 0.86530307465E+01 0.88716286653E+01 0.91710529322E+01 0.95211743941E+01
 0.97629712684E+01 0.97622070888E+01 0.95187865999E+01 0.91674862982E+01 0.88686980854E+01
 0.96751036207E+01 0.89561248256E+01 0.85013785226E+01 0.81093774559E+01 0.78244560676E+01
 0.76629129537E+01 0.76120834171E+01 0.76622168668E+01 0.78227796336E+01 0.81075143076E+01
 0.85013752198E+01 0.89591812343E+01 0.96796756317E+01 0.10833582456E+02 0.12198121014E+02
 0.13312387435E+02 0.13742815077E+02 0.13313633767E+02 0.12198124988E+02 0.10830605326E+02
 0.13526753324E+02 0.10912468510E+02 0.93337079883E+01 0.85661841227E+01 0.80331105581E+01
 0.76629138204E+01 0.74813463702E+01 0.74809344630E+01 0.76621735038E+01 0.80332287979E+01
 0.85681392198E+01 0.93371420949E+01 0.10915376473E+02 0.13526797213E+02 0.16750232936E+02
 0.19717104763E+02 0.21497174647E+02 0.21499180175E+02 0.19721483502E+02 0.16753544563E+02
 0.22635950980E+02 0.16809801941E+02 0.12340890964E+02 0.97435591461E+01 0.86183491470E+01
 0.80035018498E+01 0.76120883890E+01 0.74809335304E+01 0.76118603630E+01 0.80041266434E+01
 0.86202529656E+01 0.97453972992E+01 0.12340644437E+02 0.16806838525E+02 0.22631628345E+02
 0.28541604004E+02 0.32959333157E+02 0.34597488501E+02 0.32961277404E+02 0.28545298779E+02
 0.38236710449E+02 0.28553764762E+02 0.19800545261E+02 0.13490072009E+02 0.10017550011E+02
 0.86412014181E+01 0.80038754693E+01 0.76622140870E+01 0.76621698574E+01 0.80041274399E+01
 0.86419624183E+01 0.10017690050E+02 0.13488099330E+02 0.19796925674E+02 0.28551241327E+02
 0.38237475514E+02 0.46631251339E+02 0.51519349788E+02 0.51517744615E+02 0.46628329334E+02
 0.59849630272E+02 0.46584973866E+02 0.32948918467E+02 0.21581093570E+02 0.13929374259E+02
 0.10018293107E+02 0.86202508440E+01 0.80331539211E+01 0.78227774247E+01 0.80332310930E+01
 0.86202551759E+01 0.10017689622E+02 0.13927714163E+02 0.21579162018E+02 0.32948921422E+02
 0.46588659307E+02 0.59855898823E+02 0.69589684639E+02 0.73172789686E+02 0.69584748303E+02
 0.85015230398E+02 0.69512670594E+02 0.51429630043E+02 0.34572023831E+02 0.21579117981E+02
 0.13488839517E+02 0.97459042113E+01 0.85681163481E+01 0.81074018675E+01 0.81075169578E+01
 0.85681395939E+01 0.97453958553E+01 0.13488098278E+02 0.21579161856E+02 0.34573606775E+02
 0.51432437505E+02 0.69515587452E+02 0.85017247059E+02 0.94028616216E+02 0.94027923295E+02
 0.10930988578E+03 0.93964440342E+02 0.73066329580E+02 0.51431233747E+02 0.32947016770E+02
 0.19796222873E+02 0.12340890964E+02 0.93372439170E+01 0.85011554685E+01 0.82427435664E+01
 0.85013720383E+01 0.93371401479E+01 0.12340645605E+02 0.19796925964E+02 0.32948921712E+02
 0.51432438426E+02 0.73064377020E+02 0.93959515966E+02 0.10930556634E+03 0.11497147948E+03
 0.12716677556E+03 0.11494203908E+03 0.93965105963E+02 0.69517559853E+02 0.46587887537E+02
 0.28550107995E+02 0.16806518793E+02 0.10915425544E+02 0.89590384966E+01 0.84347650506E+01
 0.84349021189E+01 0.89591807215E+01 0.10915380570E+02 0.16806840061E+02 0.28551239289E+02
 0.46588660502E+02 0.69515587263E+02 0.93959514116E+02 0.11493550015E+03 0.12716384282E+03
 0.11288614591E+03 0.10733272637E+03 0.92276511216E+02 0.71751894299E+02 0.50478617837E+02
 0.32290982277E+02 0.19359862052E+02 0.12052181364E+02 0.91280841833E+01 0.83114084712E+01
 0.80557476436E+01 0.83114431127E+01 0.91281170040E+01 0.12052186597E+02 0.19359855715E+02
 0.32290996630E+02 0.50478655596E+02 0.71751924965E+02 0.92276512712E+02 0.10733271328E+03
 0.10733510183E+03 0.10733272256E+03 0.97043497667E+02 0.79345015563E+02 0.58666820603E+02
 0.39287055618E+02 0.24172713149E+02 0.14551717381E+02 0.99357734574E+01 0.84744195728E+01
 0.79940092720E+01 0.79938934626E+01 0.84743092759E+01 0.99358563260E+01 0.14551545121E+02
 0.24171888031E+02 0.39286486058E+02 0.58668437144E+02 0.79349549052E+02 0.97048799824E+02
 0.92280040220E+02 0.97040609576E+02 0.92276511731E+02 0.79345019235E+02 0.61683230882E+02
 0.43374114516E+02 0.27800710396E+02 0.16895711445E+02 0.10926805696E+02 0.86556859725E+01
 0.79583666678E+01 0.77187964869E+01 0.79581070075E+01 0.86557054835E+01 0.10927031282E+02
 0.16895208664E+02 0.27799171611E+02 0.43373061477E+02 0.61684735337E+02 0.79348998890E+02
 0.71750306395E+02 0.79338979969E+02 0.79339513205E+02 0.71751901325E+02 0.58666818946E+02
 0.43374111138E+02 0.29150340591E+02 0.18314879141E+02 0.11755318389E+02 0.88715022138E+01
 0.79428031062E+01 0.75154960101E+01 0.75153609703E+01 0.79427013945E+01 0.88718604028E+01
 0.11755900289E+02 0.18314802083E+02 0.29148963920E+02 0.43371741332E+02 0.58664430022E+02
 0.50473584881E+02 0.58674449665E+02 0.61692652277E+02 0.58678418303E+02 0.50478618363E+02
 0.39287049240E+02 0.27800714141E+02 0.18314882709E+02 0.12078304772E+02 0.90262076383E+01
 0.79385300022E+01 0.73900331798E+01 0.71967566705E+01 0.73899869096E+01 0.79385371520E+01
 0.90266824008E+01 0.12079616056E+02 0.18316420652E+02 0.27800714819E+02 0.39284097506E+02
 0.32290412016E+02 0.39337333038E+02 0.43441544591E+02 0.43442859624E+02 0.39339708579E+02
 0.32290979902E+02 0.24172715497E+02 0.16895718472E+02 0.11755313381E+02 0.90262039170E+01
 0.79380868550E+01 0.73326179349E+01 0.70135132183E+01 0.70135938784E+01 0.73325021815E+01
 0.79375238910E+01 0.90260977866E+01 0.11756934244E+02 0.16898731992E+02 0.24174861197E+02
 0.19363383223E+02 0.24278635696E+02 0.27960714823E+02 0.29325589333E+02 0.27959207205E+02
 0.24275695187E+02 0.19359859927E+02 0.14551720834E+02 0.10926801675E+02 0.88714945944E+01
 0.79385350920E+01 0.73326210374E+01 0.69548753081E+01 0.68297664526E+01 0.69551202258E+01
 0.73321672923E+01 0.79369939446E+01 0.88699921083E+01 0.10927031282E+02 0.14554183398E+02
 0.12052104470E+02 0.14694878544E+02 0.17140338190E+02 0.18608526848E+02 0.18606934987E+02
 0.17136863605E+02 0.14692260419E+02 0.12052178324E+02 0.99357746132E+01 0.86556813132E+01
 0.79428069761E+01 0.73900395060E+01 0.70135078241E+01 0.68297643592E+01 0.68300983046E+01
 0.70140963655E+01 0.73899047825E+01 0.79411649520E+01 0.86528488968E+01 0.99333856471E+01
 0.91243378621E+01 0.10087722228E+02 0.11212734107E+02 0.12129036182E+02 0.12481538659E+02
 0.12128011532E+02 0.11212732674E+02 0.10090169750E+02 0.91280876982E+01 0.84744211778E+01
 0.79583648168E+01 0.75154999059E+01 0.71967527644E+01 0.70135899512E+01 0.69551269423E+01
 0.70140978325E+01 0.71980482438E+01 0.75169795399E+01 0.79583586417E+01 0.84719207241E+01
 0.83113067793E+01 0.86241689140E+01 0.89457167535E+01 0.92716237917E+01 0.94868837280E+01
 0.94874505556E+01 0.92734572054E+01 0.89485505953E+01 0.86265456565E+01 0.83114135344E+01
 0.79940046105E+01 0.77187953932E+01 0.75153635725E+01 0.73899852997E+01 0.73325076459E+01
 0.73321696542E+01 0.73898968464E+01 0.75169782463E+01 0.77218715340E+01 0.79964183478E+01
 0.80592751512E+01 0.81452858571E+01 0.82456514393E+01 0.83434801983E+01 0.84163881700E+01
 0.84441379718E+01 0.84178934512E+01 0.83449961592E+01 0.82454295350E+01 0.81428037938E+01
 0.80557462341E+01 0.79938897888E+01 0.79581131826E+01 0.79427033373E+01 0.79385350920E+01
 0.79375237525E+01 0.79369867947E+01 0.79411630249E+01 0.79583666678E+01 0.79964193354E+01
 0.83112994785E+01 0.81452855030E+01 0.80068099274E+01 0.79173366040E+01 0.78758463745E+01
 0.78641590750E+01 0.78644845593E+01 0.78759197530E+01 0.79157421478E+01 0.80037929874E+01
 0.81429342982E+01 0.83114408750E+01 0.84743121851E+01 0.86557081788E+01 0.88718533120E+01
 0.90266795384E+01 0.90260986456E+01 0.88699926369E+01 0.86528562515E+01 0.84719220283E+01
 0.91243315754E+01 0.86241689993E+01 0.82456579188E+01 0.79173362865E+01 0.76859834191E+01
 0.75586856940E+01 0.75194883738E+01 0.75581983906E+01 0.76847032228E+01 0.79158511406E+01
 0.82456546352E+01 0.86266819899E+01 0.91281142321E+01 0.99358567403E+01 0.10927026776E+02
 0.11755897995E+02 0.12079622879E+02 0.11756936959E+02 0.10927030796E+02 0.99333849056E+01
 0.12052105777E+02 0.10087723957E+02 0.89457218534E+01 0.83434785797E+01 0.78758407139E+01
 0.75586864892E+01 0.74055772002E+01 0.74052623237E+01 0.75581228033E+01 0.78759531585E+01
 0.83450502347E+01 0.89484898491E+01 0.10090094163E+02 0.12052184864E+02 0.14551546696E+02
 0.16895209445E+02 0.18314807122E+02 0.18316422123E+02 0.16898725746E+02 0.14554181520E+02
 0.19363389560E+02 0.14694880088E+02 0.11212731875E+02 0.92716207086E+01 0.84163839331E+01
 0.78641617112E+01 0.75194930851E+01 0.74052613500E+01 0.75192632735E+01 0.78646158296E+01
 0.84178934512E+01 0.92730806090E+01 0.11212481040E+02 0.14692418555E+02 0.19359859927E+02
 0.24171890620E+02 0.27799170934E+02 0.29148962285E+02 0.27800710396E+02 0.24174861438E+02
 0.32290415746E+02 0.24278633880E+02 0.17140331626E+02 0.12129034244E+02 0.94868860515E+01
 0.84441417970E+01 0.78644879791E+01 0.75581955455E+01 0.75581191631E+01 0.78646166132E+01
 0.84447260144E+01 0.94870203581E+01 0.12127445001E+02 0.17137348009E+02 0.24276511443E+02
 0.32290997985E+02 0.39286482709E+02 0.43373059099E+02 0.43371742334E+02 0.39284100536E+02
 0.50473582764E+02 0.39337328309E+02 0.27960711571E+02 0.18608529288E+02 0.12481544423E+02
 0.94874525824E+01 0.84178914988E+01 0.78759163011E+01 0.76847009538E+01 0.78759553672E+01
 0.84178957356E+01 0.94870200613E+01 0.12480282728E+02 0.18607017114E+02 0.27960714771E+02
 0.39340293194E+02 0.50478654005E+02 0.58668437516E+02 0.61684738448E+02 0.58664432051E+02
 0.71750302282E+02 0.58674447106E+02 0.43441547567E+02 0.29325595203E+02 0.18606937271E+02
 0.12128008758E+02 0.92734529886E+01 0.83449950095E+01 0.79157442695E+01 0.79158535797E+01
 0.83450507036E+01 0.92730794753E+01 0.12127444165E+02 0.18607016958E+02 0.29326931625E+02
 0.43443867027E+02 0.58676826286E+02 0.71751927877E+02 0.79349549966E+02 0.79348996131E+02
 0.92280038724E+02 0.79338983728E+02 0.61692657217E+02 0.43442863291E+02 0.27959204005E+02
 0.17136857355E+02 0.11212731875E+02 0.89485540064E+01 0.82454328185E+01 0.80037931945E+01
 0.82456514393E+01 0.89484881604E+01 0.11212482473E+02 0.17137348323E+02 0.27960714823E+02
 0.43443867717E+02 0.61691109069E+02 0.79334986896E+02 0.92276511731E+02 0.97048793959E+02
 0.10733510259E+03 0.97040617049E+02 0.79339515248E+02 0.58678415343E+02 0.39339704530E+02
 0.24275691129E+02 0.14692263605E+02 0.10090175765E+02 0.86265452196E+01 0.81428002900E+01
 0.81429311485E+01 0.86266814676E+01 0.10090098448E+02 0.14692420196E+02 0.24276509200E+02
 0.39340293872E+02 0.58676825885E+02 0.79334985179E+02 0.97035294642E+02 0.10733271023E+03
 0.85160966321E+02 0.80973027880E+02 0.69601446276E+02 0.54082754484E+02 0.38052201326E+02
 0.24535844427E+02 0.15233229320E+02 0.10292224490E+02 0.84755001669E+01 0.78392563917E+01
 0.76125052218E+01 0.78392856377E+01 0.84755284092E+01 0.10292229607E+02 0.15233223209E+02
 0.24535853310E+02 0.38052228873E+02 0.54082777720E+02 0.69601447718E+02 0.80973018104E+02
 0.80974687048E+02 0.80973024069E+02 0.73191386417E+02 0.59790024669E+02 0.44153608335E+02
 0.29630090502E+02 0.18568015204E+02 0.11856225985E+02 0.88898913295E+01 0.79425689367E+01
 0.75147755950E+01 0.75146706682E+01 0.79424687421E+01 0.88900085525E+01 0.11856250851E+02
 0.18567580782E+02 0.29629747606E+02 0.44154710989E+02 0.59793150496E+02 0.73195076470E+02
 0.69603917876E+02 0.73214577549E+02 0.69601446381E+02 0.59790028052E+02 0.46406245131E+02
 0.32627985876E+02 0.21125661182E+02 0.13378275853E+02 0.94246824749E+01 0.80254077161E+01
 0.74480531951E+01 0.72409240480E+01 0.74478043235E+01 0.80253840208E+01 0.94249023394E+01
 0.13378039068E+02 0.21124647812E+02 0.32627220795E+02 0.46407234539E+02 0.59792781676E+02
 0.54081673401E+02 0.59851875317E+02 0.59852232027E+02 0.54082760943E+02 0.44153606876E+02
 0.32627982824E+02 0.22084307056E+02 0.14317950426E+02 0.98936133048E+01 0.81023273767E+01
 0.74081126135E+01 0.70408945771E+01 0.70407742944E+01 0.74079807886E+01 0.81025130261E+01
 0.98939632469E+01 0.14317839048E+02 0.22083285771E+02 0.32626287350E+02 0.44151937726E+02
 0.38048741198E+02 0.44266899274E+02 0.46561633249E+02 0.44269644661E+02 0.38052202081E+02
 0.29630084808E+02 0.21125664935E+02 0.14317953848E+02 0.10080686843E+02 0.81601182339E+01
 0.73880281960E+01 0.69170226720E+01 0.67558804855E+01 0.69170248007E+01 0.73880348108E+01
 0.81603706268E+01 0.10081478583E+02 0.14318943367E+02 0.21125665328E+02 0.29628078662E+02
 0.24535500756E+02 0.29803056411E+02 0.32895837559E+02 0.32896767179E+02 0.29804716111E+02
 0.24535842538E+02 0.18568017635E+02 0.13378282560E+02 0.98936084986E+01 0.81601146581E+01
 0.73820599369E+01 0.68596833060E+01 0.65943829799E+01 0.65944977784E+01 0.68597155578E+01
 0.73817247701E+01 0.81600180726E+01 0.98947150115E+01 0.13380429386E+02 0.18569602281E+02
 0.15235693368E+02 0.18791644131E+02 0.21500506154E+02 0.22512214582E+02 0.21499514493E+02
 0.18789646689E+02 0.15233227317E+02 0.11856229168E+02 0.94246785359E+01 0.81023200426E+01
 0.73880328586E+01 0.68596861698E+01 0.65429765610E+01 0.64399725338E+01 0.65432116117E+01
 0.68594498591E+01 0.73870172940E+01 0.81013218519E+01 0.94249023394E+01 0.11858006651E+02
 0.10292113317E+02 0.12102026656E+02 0.13821714732E+02 0.14869858644E+02 0.14868773863E+02
 0.13819359411E+02 0.12100283578E+02 0.10292221230E+02 0.88898922347E+01 0.80254032660E+01
 0.74081161526E+01 0.69170285420E+01 0.65943778558E+01 0.64399705995E+01 0.64401756794E+01
 0.65947340425E+01 0.69169085106E+01 0.74069927599E+01 0.80234625473E+01 0.88882233183E+01
 0.84728167277E+01 0.91305606948E+01 0.98843799003E+01 0.10505014007E+02 0.10745733277E+02
 0.10504269653E+02 0.98843782189E+01 0.91323260699E+01 0.84755033108E+01 0.79425705702E+01
 0.74480515622E+01 0.70408982386E+01 0.67558767296E+01 0.65944941459E+01 0.65432180840E+01
 0.65947355341E+01 0.67566564792E+01 0.70418786131E+01 0.74480458466E+01 0.79407997980E+01
 0.78391640894E+01 0.81717291290E+01 0.84698036608E+01 0.87170462595E+01 0.88694034091E+01
 0.88697435575E+01 0.87182135009E+01 0.84717101471E+01 0.81733894929E+01 0.78392614428E+01
 0.75147716224E+01 0.72409231841E+01 0.70407766904E+01 0.69170232839E+01 0.68597208625E+01
 0.68594523000E+01 0.69169011237E+01 0.70418773476E+01 0.72430833599E+01 0.75164611606E+01
 0.76149753802E+01 0.77398537606E+01 0.78783414948E+01 0.80082805133E+01 0.81023810932E+01
 0.81372903141E+01 0.81033706009E+01 0.80092549473E+01 0.78781253702E+01 0.77380980853E+01
 0.76125044890E+01 0.75146675007E+01 0.74478100392E+01 0.74079824358E+01 0.73880328586E+01
 0.73817248093E+01 0.73870106792E+01 0.74069908682E+01 0.74480531951E+01 0.75164619657E+01
 0.78391571344E+01 0.77398535200E+01 0.76672676236E+01 0.76328726868E+01 0.76291838689E+01
 0.76360961903E+01 0.76363539060E+01 0.76292917222E+01 0.76317855848E+01 0.76651534498E+01
 0.77382147692E+01 0.78392837338E+01 0.79424713130E+01 0.80253862332E+01 0.81025061554E+01
 0.81603679550E+01 0.81600189766E+01 0.81013223152E+01 0.80234692097E+01 0.79408007353E+01
 0.84728107369E+01 0.81717294372E+01 0.78783478609E+01 0.76328724486E+01 0.74670140242E+01
 0.73796665092E+01 0.73536782385E+01 0.73794400390E+01 0.74662437676E+01 0.76318848421E+01
 0.78783446419E+01 0.81735110411E+01 0.84755255622E+01 0.88900085248E+01 0.94248978075E+01
 0.98939610528E+01 0.10081485088E+02 0.98947176236E+01 0.94249017466E+01 0.88882223853E+01
 0.10292114579E+02 0.91305625360E+01 0.84698087552E+01 0.80082790827E+01 0.76291784779E+01
 0.73796672300E+01 0.72615856134E+01 0.72613952064E+01 0.73793301282E+01 0.76292810686E+01
 0.80093474315E+01 0.84716985096E+01 0.91322161590E+01 0.10292227609E+02 0.11856252223E+02
 0.13378039917E+02 0.14317843937E+02 0.14318944834E+02 0.13380423527E+02 0.11858004840E+02
 0.15235699478E+02 0.12102028220E+02 0.98843778711E+01 0.87170433524E+01 0.81023770266E+01
 0.76360986416E+01 0.73536826442E+01 0.72613941846E+01 0.73534589668E+01 0.76363361667E+01
 0.81033706009E+01 0.87180104346E+01 0.98841366958E+01 0.12100248806E+02 0.15233227317E+02
 0.18567583563E+02 0.21124647418E+02 0.22083284255E+02 0.21125661182E+02 0.18569602630E+02
 0.24535504440E+02 0.18791642450E+02 0.13821708391E+02 0.10505011994E+02 0.88694055134E+01
 0.81372939111E+01 0.76363571104E+01 0.73794371540E+01 0.73793265224E+01 0.76363369198E+01
 0.81376477275E+01 0.88695251190E+01 0.10503929667E+02 0.13819583108E+02 0.18790073532E+02
 0.24535855105E+02 0.29629744822E+02 0.32627218492E+02 0.32626288099E+02 0.29628081571E+02
 0.38048739321E+02 0.29803052059E+02 0.21500502939E+02 0.14869860645E+02 0.10745738552E+02
 0.88697455002E+01 0.81033688735E+01 0.76292883887E+01 0.74662414490E+01 0.76292831262E+01
 0.81033729401E+01 0.88695249574E+01 0.10744982954E+02 0.14868890153E+02 0.21500506340E+02
 0.29805068665E+02 0.38052227751E+02 0.44154711195E+02 0.46407236978E+02 0.44151939390E+02
 0.54081669553E+02 0.44266897188E+02 0.32895840472E+02 0.22512219858E+02 0.14868775714E+02
 0.10504267050E+02 0.87182098013E+01 0.80092541027E+01 0.76317875178E+01 0.76318870133E+01
 0.80093480175E+01 0.87180096420E+01 0.10503929076E+02 0.14868890003E+02 0.22513212657E+02
 0.32897499556E+02 0.44268559730E+02 0.54082780331E+02 0.59793150747E+02 0.59792778544E+02
 0.69603916434E+02 0.59851879373E+02 0.46561638345E+02 0.32896770541E+02 0.21499511092E+02
 0.13819353405E+02 0.98843778711E+01 0.84717138439E+01 0.78781285892E+01 0.76651533668E+01
 0.78783414948E+01 0.84716971121E+01 0.98841383772E+01 0.13819583442E+02 0.21500506154E+02
 0.32897500004E+02 0.46560615732E+02 0.59849112709E+02 0.69601446381E+02 0.73195070361E+02
 0.80974687733E+02 0.73214585103E+02 0.59852234519E+02 0.44269641971E+02 0.29804711912E+02
 0.18789642610E+02 0.12100286849E+02 0.91323322998E+01 0.81733892901E+01 0.77380944098E+01
 0.77382113343E+01 0.81735105302E+01 0.91322205478E+01 0.12100250513E+02 0.18790071133E+02
 0.29805068818E+02 0.44268559127E+02 0.59849111146E+02 0.73210879933E+02 0.80973014978E+02
 0.57432242350E+02 0.54603158782E+02 0.46927392768E+02 0.36498226731E+02 0.25870446872E+02
 0.17185048196E+02 0.11559271240E+02 0.88577412484E+01 0.78751675345E+01 0.73448621112E+01
 0.71591745166E+01 0.73448795178E+01 0.78751824761E+01 0.88577405438E+01 0.11559265415E+02
 0.17185056126E+02 0.25870469436E+02 0.36498245351E+02 0.46927394144E+02 0.54603151358E+02
 0.54604110749E+02 0.54603155142E+02 0.49333577006E+02 0.40283638542E+02 0.29822552928E+02
 0.20326095183E+02 0.13422436074E+02 0.95700941491E+01 0.80341589866E+01 0.73754568457E+01