    2    2    1    1
  0.8444672E+01  0.2260100E-09  0.2260100E-09  0.3817920E-09  0.5000000E-15
  1.000000000000000E-004
  CAR 
 unknown system                          
     16     96     40
 
  0.0000000E+00  0.0000000E+00  0.0000000E+00  0.7513148E-03
    1       -0.749807   1.000000
    2        3.107869   1.000000
    3        6.704236   1.000000
    4        7.133250   1.000000
    5        7.133282   1.000000
    6        7.627812   1.000000
    7        7.627836   1.000000
    8        8.567390   1.000028
    9        8.567402   1.000028
   10        8.980258   1.034233
   11       10.196770  -0.000000
   12       10.196783  -0.000000
   13       19.152279   0.000000
   14       33.660232   0.000000
   15       35.980554   0.000000
   16       37.481910   0.000000
   17       40.869476   0.000000
   18       40.869492   0.000000
   19       41.477939   0.000000
   20       41.478051   0.000000
   21       44.049541   0.000000
   22       44.049554   0.000000
   23       45.254481   0.000000
   24       45.292675   0.000000
   25       49.217121   0.000000
   26       49.217132   0.000000
   27       51.202055   0.000000
   28       53.876914   0.000000
   29       53.877057   0.000000
   30       55.387573   0.000000
   31       55.387671   0.000000
   32       59.618805   0.000000
   33       65.579941   0.000000
   34       66.729025   0.000000
   35       66.729389   0.000000
   36       67.636954   0.000000
   37       68.410416   0.000000
   38       71.235723   0.000000
   39       71.235888   0.000000
   40       75.778660   0.000000
 
  0.9090909E-01 -0.5282740E-17  0.0000000E+00  0.4507889E-02
    1       -0.375939   1.000000
    2        3.379778   1.000000
    3        6.543116   1.000000
    4        7.212730   1.000000
    5        7.372619   1.000000
    6        7.497265   1.000000
    7        7.644390   1.000000
    8        7.842444   1.000000
    9        8.411871   1.000000
   10        8.452504   1.000001
   11       10.255485  -0.000000
   12       11.759773  -0.000000
   13       19.157726   0.000000
   14       32.799634   0.000000
   15       36.052827   0.000000
   16       36.248315   0.000000
   17       37.718670   0.000000
   18       39.808319   0.000000
   19       39.845445   0.000000
   20       43.732332   0.000000
   21       44.648597   0.000000
   22       44.828714   0.000000
   23       45.414464   0.000000
   24       46.169088   0.000000
   25       50.040711   0.000000
   26       50.154274   0.000000
   27       51.185136   0.000000
   28       51.316248   0.000000
   29       54.800090   0.000000
   30       57.315926   0.000000
   31       57.755330   0.000000
   32       60.683223   0.000000
   33       65.377694   0.000000
   34       65.508199   0.000000
   35       66.043023   0.000000
   36       67.461596   0.000000
   37       67.501419   0.000000
   38       71.394420   0.000000
   39       73.310764   0.000000
   40       75.650529   0.000000
 
  0.1818182E+00 -0.1720808E-16  0.0000000E+00  0.4507889E-02
    1        0.666966   1.000000
    2        3.999108   1.000000
    3        6.117642   1.000000
    4        6.171958   1.000000
    5        7.040165   1.000000
    6        7.805279   1.000000
    7        8.045462   1.000000
    8        8.050896   1.000000
    9        8.077306   1.000000
   10        8.449021   1.000001
   11       10.364039  -0.000000
   12       14.012533  -0.000000
   13       19.199164   0.000000
   14       29.463173   0.000000
   15       34.586647   0.000000
   16       34.739596   0.000000
   17       35.393900   0.000000
   18       36.820918   0.000000
   19       40.924788   0.000000
   20       43.175137   0.000000
   21       43.583767   0.000000
   22       44.083994   0.000000
   23       46.268692   0.000000
   24       48.407702   0.000000
   25       50.355760   0.000000
   26       50.870604   0.000000
   27       52.655714   0.000000
   28       55.109862   0.000000
   29       58.549073   0.000000
   30       59.738371   0.000000
   31       60.434064   0.000000
   32       62.533666   0.000000
   33       63.831236   0.000000
   34       64.617712   0.000000
   35       64.809045   0.000000
   36       65.819447   0.000000
   37       68.717194   0.000000
   38       71.810330   0.000000
   39       74.439611   0.000000
   40       75.624032   0.000000
 
  0.2727273E+00 -0.9515439E-17  0.0000000E+00  0.4507889E-02
    1        2.084358   1.000000
    2        4.234393   1.000000
    3        5.005133   1.000000
    4        6.008786   1.000000
    5        6.884391   1.000000
    6        7.614901   1.000000
    7        7.646187   1.000000
    8        8.755061   1.003083
    9        9.000464   1.028748
   10        9.300257   0.152915
   11       10.443427  -0.000000
   12       16.447146   0.000000
   13       19.275146   0.000000
   14       25.452392   0.000000
   15       31.691283   0.000000
   16       31.854524   0.000000
   17       33.437737   0.000000
   18       36.268474   0.000000
   19       39.972921   0.000000
   20       42.740559   0.000000
   21       43.762678   0.000000
   22       44.013354   0.000000
   23       44.332361   0.000000
   24       48.719275   0.000000
   25       53.598055   0.000000
   26       55.458093   0.000000
   27       56.222263   0.000000
   28       58.646565   0.000000
   29       59.844358   0.000000
   30       60.483360   0.000000
   31       62.242377   0.000000
   32       63.272623   0.000000
   33       63.747939   0.000000
   34       64.396486   0.000000
   35       64.786126   0.000000
   36       68.074570   0.000000
   37       68.193753   0.000000
   38       72.237509   0.000000
   39       74.673773   0.000000
   40       74.877396   0.000000
 
  0.3636364E+00 -0.5372433E-16  0.0000000E+00  0.4507889E-02
    1        3.187412   1.000000
    2        3.916400   1.000000
    3        4.202373   1.000000
    4        6.370764   1.000000
    5        7.212555   1.000000
    6        7.277696   1.000000
    7        7.316161   1.000000
    8        9.967573  -0.000001
    9       10.168902  -0.000000
   10       10.254153  -0.000000
   11       10.482511  -0.000000
   12       18.650388   0.000000
   13       18.969616   0.000000
   14       22.793292   0.000000
   15       28.392608   0.000000
   16       29.744296   0.000000
   17       30.947514   0.000000
   18       35.177169   0.000000
   19       38.625256   0.000000
   20       41.825731   0.000000
   21       42.553912   0.000000
   22       44.953947   0.000000
   23       46.588402   0.000000
   24       49.118937   0.000000
   25       57.268448   0.000000
   26       57.441836   0.000000
   27       57.823678   0.000000
   28       60.649427   0.000000
   29       61.442898   0.000000
   30       61.788782   0.000000
   31       63.390440   0.000000
   32       63.904805   0.000000
   33       64.526293   0.000000
   34       65.375122   0.000000
   35       65.835161   0.000000
   36       67.664250   0.000000
   37       72.448832   0.000000
   38       72.906055   0.000000
   39       73.940731   0.000000
   40       74.395683   0.000000
 
  0.4545455E+00 -0.2672352E-16  0.0000000E+00  0.4507889E-02
    1        3.384802   1.000000
    2        3.793958   1.000000
    3        3.797301   1.000000
    4        6.981874   1.000000
    5        7.021742   1.000000
    6        7.131728   1.000000
    7        7.585742   1.000000
    8       10.495439  -0.000000
    9       10.565945  -0.000000
   10       10.762722  -0.000000
   11       12.230005  -0.000000
   12       16.242210   0.000000
   13       21.294697   0.000000
   14       22.977240   0.000000
   15       25.727320   0.000000
   16       28.400661   0.000000
   17       28.545747   0.000000
   18       34.445102   0.000000
   19       38.168849   0.000000
   20       40.562570   0.000000
   21       42.429461   0.000000
   22       45.831843   0.000000
   23       48.723337   0.000000
   24       49.566295   0.000000
   25       54.156340   0.000000
   26       59.420071   0.000000
   27       59.535086   0.000000
   28       61.840948   0.000000
   29       63.093700   0.000000
   30       63.247127   0.000000
   31       64.126382   0.000000
   32       64.506386   0.000000
   33       65.635919   0.000000
   34       68.079599   0.000000
   35       68.258935   0.000000
   36       70.837231   0.000000
   37       71.117354   0.000000
   38       71.356139   0.000000
   39       73.686048   0.000000
   40       73.711404   0.000000
 
  0.9090909E-01  0.9090909E-01  0.0000000E+00  0.4507889E-02
    1        0.336584   1.000000
    2        3.848995   1.000000
    3        6.186847   1.000000
    4        6.569909   1.000000
    5        7.244971   1.000000
    6        7.443834   1.000000
    7        7.864717   1.000000
    8        7.903199   1.000000
    9        8.320526   1.000000
   10        8.437275   1.000000
   11       10.302693  -0.000000
   12       13.395488  -0.000000
   13       19.186699   0.000000
   14       31.023971   0.000000
   15       32.891221   0.000000
   16       36.495809   0.000000
   17       36.856003   0.000000
   18       38.419359   0.000000
   19       38.867252   0.000000
   20       41.958199   0.000000
   21       44.066669   0.000000
   22       47.201385   0.000000
   23       47.225479   0.000000
   24       48.165676   0.000000
   25       49.063976   0.000000
   26       49.489352   0.000000
   27       49.909676   0.000000
   28       55.294761   0.000000
   29       58.197457   0.000000
   30       59.008858   0.000000
   31       59.256380   0.000000
   32       62.049813   0.000000
   33       63.399007   0.000000
   34       64.980832   0.000000
   35       66.154400   0.000000
   36       66.774247   0.000000
   37       66.965163   0.000000
   38       72.192213   0.000000
   39       74.283795   0.000000
   40       75.260042   0.000000
 
  0.1818182E+00  0.9090909E-01  0.0000000E+00  0.9015778E-02
    1        1.604886   1.000000
    2        4.413722   1.000000
    3        5.435946   1.000000
    4        5.738246   1.000000
    5        6.959841   1.000000
    6        7.402632   1.000000
    7        7.991340   1.000000
    8        8.138700   1.000000
    9        8.745110   1.002530
   10        9.213455   0.478383
   11       10.346892  -0.000000
   12       15.601272   0.000000
   13       19.307768   0.000000
   14       27.470798   0.000000
   15       30.280008   0.000000
   16       33.406331   0.000000
   17       35.961627   0.000000
   18       36.477465   0.000000
   19       39.899865   0.000000
   20       41.573386   0.000000
   21       42.377689   0.000000
   22       46.853925   0.000000
   23       47.523464   0.000000
   24       48.077160   0.000000
   25       51.068982   0.000000
   26       51.856427   0.000000
   27       53.592627   0.000000
   28       59.276944   0.000000
   29       60.235288   0.000000
   30       61.204613   0.000000
   31       61.443743   0.000000
   32       62.885722   0.000000
   33       63.184393   0.000000
   34       64.555270   0.000000
   35       65.723675   0.000000
   36       65.959799   0.000000
   37       67.743950   0.000000
   38       72.784049   0.000000
   39       74.313723   0.000000
   40       74.382857   0.000000
 
  0.2727273E+00  0.9090909E-01  0.0000000E+00  0.9015778E-02
    1        2.985769   1.000000
    2        4.287153   1.000000
    3        4.547968   1.000000
    4        5.856424   1.000000
    5        7.034702   1.000000
    6        7.069903   1.000000
    7        7.686410   1.000000
    8        8.904714   1.026835
    9        9.725180  -0.000789
   10       10.374940  -0.000000
   11       10.384731  -0.000000
   12       18.040353   0.000000
   13       19.386287   0.000000
   14       23.816940   0.000000
   15       28.373285   0.000000
   16       30.084338   0.000000
   17       33.415920   0.000000
   18       34.634518   0.000000
   19       39.616054   0.000000
   20       40.892521   0.000000
   21       42.713106   0.000000
   22       46.939954   0.000000
   23       47.071815   0.000000
   24       49.367763   0.000000
   25       53.358709   0.000000
   26       55.810610   0.000000
   27       57.991797   0.000000
   28       59.249128   0.000000
   29       59.370649   0.000000
   30       62.579231   0.000000
   31       62.759344   0.000000
   32       64.130172   0.000000
   33       64.732437   0.000000
   34       65.678619   0.000000
   35       65.744390   0.000000
   36       67.038338   0.000000
   37       71.104451   0.000000
   38       72.512574   0.000000
   39       72.792559   0.000000
   40       75.061994   0.000000
 
  0.3636364E+00  0.9090909E-01  0.0000000E+00  0.9015778E-02
    1        3.625939   1.000000
    2        3.993504   1.000000
    3        4.004051   1.000000
    4        6.448449   1.000000
    5        6.874406   1.000000
    6        7.251128   1.000000
    7        7.481279   1.000000
    8        9.969030  -0.000001
    9       10.381867  -0.000000
   10       10.430502  -0.000000
   11       11.869755  -0.000000
   12       17.849071   0.000000
   13       20.538618   0.000000
   14       22.739777   0.000000
   15       26.890400   0.000000
   16       27.105118   0.000000
   17       30.219868   0.000000
   18       33.589636   0.000000
   19       38.639463   0.000000
   20       40.252927   0.000000
   21       43.437285   0.000000
   22       47.458371   0.000000
   23       48.683417   0.000000
   24       49.490051   0.000000
   25       56.016759   0.000000
   26       56.117680   0.000000
   27       59.012784   0.000000
   28       59.987867   0.000000
   29       61.908799   0.000000
   30       62.913064   0.000000
   31       63.271119   0.000000
   32       64.183106   0.000000
   33       64.790419   0.000000
   34       67.324893   0.000000
   35       69.272541   0.000000
   36       69.318757   0.000000
   37       69.888799   0.000000
   38       73.231290   0.000000
   39       74.536833   0.000000
   40       74.814121   0.000000
 
  0.4545455E+00  0.9090909E-01  0.0000000E+00  0.4507889E-02
    1        3.588391   1.000000
    2        3.805825   1.000000
    3        4.009983   1.000000
    4        6.872651   1.000000
    5        6.926238   1.000000
    6        6.985613   1.000000
    7        7.646439   1.000000
    8       10.382714  -0.000000
    9       10.562729  -0.000000
   10       10.570392  -0.000000
   11       13.273475  -0.000000
   12       15.894803   0.000000
   13       22.215577   0.000000
   14       23.419204   0.000000
   15       25.288547   0.000000
   16       26.144569   0.000000
   17       28.639445   0.000000
   18       33.213870   0.000000
   19       38.208099   0.000000
   20       40.073625   0.000000
   21       43.641406   0.000000
   22       48.175863   0.000000
   23       48.692078   0.000000
   24       50.593968   0.000000
   25       53.857978   0.000000
   26       58.315577   0.000000
   27       59.116461   0.000000
   28       61.336568   0.000000
   29       62.238948   0.000000
   30       62.844864   0.000000
   31       64.465064   0.000000
   32       64.515901   0.000000
   33       65.315738   0.000000
   34       66.558237   0.000000
   35       70.830919   0.000000
   36       71.356758   0.000000
   37       71.712283   0.000000
   38       71.965664   0.000000
   39       73.368340   0.000000
   40       75.141236   0.000000
 
  0.1818182E+00  0.1818182E+00  0.0000000E+00  0.4507889E-02
    1        2.946849   1.000000
    2        4.748531   1.000000
    3        4.878196   1.000000
    4        5.175335   1.000000
    5        6.866144   1.000000
    6        7.054062   1.000000
    7        7.894921   1.000000
    8        8.305003   1.000000
    9        9.702478  -0.001319
   10       10.263513  -0.000000
   11       10.452861  -0.000000
   12       17.746481   0.000000
   13       19.661079   0.000000
   14       25.287842   0.000000
   15       26.417474   0.000000
   16       31.347806   0.000000
   17       33.573009   0.000000
   18       35.874315   0.000000
   19       36.815739   0.000000
   20       42.522711   0.000000
   21       43.445110   0.000000
   22       48.003650   0.000000
   23       48.596424   0.000000
   24       50.387954   0.000000
   25       50.967384   0.000000
   26       53.084950   0.000000
   27       55.015711   0.000000
   28       60.474243   0.000000
   29       60.526361   0.000000
   30       61.909670   0.000000
   31       62.151538   0.000000
   32       64.245051   0.000000
   33       64.351653   0.000000
   34       65.791185   0.000000
   35       67.010913   0.000000
   36       68.077866   0.000000
   37       68.550964   0.000000
   38       72.325765   0.000000
   39       72.506434   0.000000
   40       75.615429   0.000000
 
  0.2727273E+00  0.1818182E+00  0.0000000E+00  0.9015778E-02
    1        4.118209   1.000000
    2        4.249212   1.000000
    3        4.545687   1.000000
    4        5.470021   1.000000
    5        6.597908   1.000000
    6        7.397008   1.000000
    7        7.435164   1.000000
    8        8.978023   1.034549
    9       10.190246  -0.000000
   10       10.388872  -0.000000
   11       11.997395  -0.000000
   12       19.707444   0.000000
   13       20.177839   0.000000
   14       22.609725   0.000000
   15       24.633157   0.000000
   16       28.910602   0.000000
   17       31.710840   0.000000
   18       32.442950   0.000000
   19       35.472574   0.000000
   20       43.977403   0.000000
   21       44.520315   0.000000
   22       48.506673   0.000000
   23       50.256063   0.000000
   24       51.063799   0.000000
   25       53.009029   0.000000
   26       54.460885   0.000000
   27       56.345787   0.000000
   28       58.457625   0.000000
   29       61.069031   0.000000
   30       62.482194   0.000000
   31       63.356819   0.000000
   32       64.002801   0.000000
   33       64.853260   0.000000
   34       66.847414   0.000000
   35       68.638939   0.000000
   36       69.376889   0.000000
   37       71.302707   0.000000
   38       72.832594   0.000000
   39       74.394976   0.000000
   40       75.491680   0.000000
 
  0.3636364E+00  0.1818182E+00  0.0000000E+00  0.9015778E-02
    1        3.990854   1.000000
    2        4.201017   1.000000
    3        4.500543   1.000000
    4        6.119170   1.000000
    5        6.631867   1.000000
    6        6.968328   1.000000
    7        7.720228   1.000000
    8        9.806896  -0.000097
    9       10.148028  -0.000000
   10       10.477948  -0.000000
   11       13.824669  -0.000000
   12       17.374653   0.000000
   13       22.620981   0.000000
   14       22.832869   0.000000
   15       24.030581   0.000000
   16       26.321645   0.000000
   17       29.497714   0.000000
   18       30.908673   0.000000
   19       34.782162   0.000000
   20       43.857969   0.000000
   21       46.006625   0.000000
   22       48.979748   0.000000
   23       50.789644   0.000000
   24       51.350729   0.000000
   25       55.089099   0.000000
   26       55.769077   0.000000
   27       57.410635   0.000000
   28       57.604368   0.000000
   29       61.144601   0.000000
   30       62.072819   0.000000
   31       63.051307   0.000000
   32       64.708920   0.000000
   33       64.939582   0.000000
   34       65.588817   0.000000
   35       69.532224   0.000000
   36       70.933934   0.000000
   37       72.865643   0.000000
   38       73.079548   0.000000
   39       74.918039   0.000000
   40       76.365277   0.000000
 
  0.2727273E+00  0.2727273E+00  0.0000000E+00  0.4507889E-02
    1        4.119922   1.000000
    2        4.741195   1.000000
    3        5.086563   1.000000
    4        5.209823   1.000000
    5        6.433570   1.000000
    6        7.000411   1.000000
    7        7.781880   1.000000
    8        9.310640   0.123663
    9       10.029639  -0.000000
   10       10.454482  -0.000000
   11       13.983432  -0.000000
   12       19.659192   0.000000
   13       20.106917   0.000000
   14       22.662221   0.000000
   15       24.115142   0.000000
   16       28.059317   0.000000
   17       28.838468   0.000000
   18       31.195741   0.000000
   19       32.184783   0.000000
   20       46.139914   0.000000
   21       47.221123   0.000000
   22       50.486358   0.000000
   23       51.590689   0.000000
   24       52.901143   0.000000
   25       53.137486   0.000000
   26       53.301480   0.000000
   27       56.220310   0.000000
   28       58.754318   0.000000
   29       59.051948   0.000000
   30       60.945387   0.000000
   31       62.705578   0.000000
   32       64.900352   0.000000
   33       65.479348   0.000000
   34       65.480361   0.000000
   35       69.681773   0.000000
   36       70.954609   0.000000
   37       71.071951   0.000000
   38       73.548210   0.000000
   39       75.949986   0.000000
   40       76.053200   0.000000
 
  0.3636364E+00  0.2727273E+00  0.0000000E+00  0.4507889E-02
    1        4.090922   1.000000
    2        4.848385   1.000000
    3        4.977495   1.000000
    4        5.571163   1.000000
    5        6.518738   1.000000
    6        6.673573   1.000000
    7        7.971423   1.000000
    8        9.755987  -0.000374
    9        9.968684  -0.000001
   10       10.116680  -0.000000
   11       15.843098   0.000000
   12       17.514498   0.000000
   13       19.722456   0.000000
   14       24.822151   0.000000
   15       25.064120   0.000000
   16       26.170056   0.000000
   17       28.140269   0.000000
   18       29.592898   0.000000
   19       31.537152   0.000000
   20       46.582209   0.000000
   21       49.257710   0.000000
   22       50.861587   0.000000
   23       51.632301   0.000000
   24       52.478975   0.000000
   25       53.976076   0.000000
   26       54.344189   0.000000
   27       57.113975   0.000000
   28       57.685447   0.000000
   29       57.955123   0.000000
   30       61.143497   0.000000
   31       62.151265   0.000000
   32       62.700995   0.000000
   33       65.330482   0.000000
   34       65.895707   0.000000
   35       69.520628   0.000000
   36       71.060677   0.000000
   37       74.196840   0.000000
   38       74.215453   0.000000
   39       74.266467   0.000000
   40       75.360073   0.000000
 
  0.0000000E+00  0.0000000E+00  0.9090909E-01  0.1502630E-02
    1       -0.650634   1.000000
    2        3.102330   1.000000
    3        6.669655   1.000000
    4        7.111740   1.000000
    5        7.111771   1.000000
    6        7.596291   1.000000
    7        7.596316   1.000000
    8        8.630973   1.000173
    9        8.630986   1.000173
   10        8.703177   1.001031
   11       10.188398  -0.000000
   12       10.188412  -0.000000
   13       19.577561   0.000000
   14       33.482112   0.000000
   15       35.760183   0.000000
   16       37.253677   0.000000
   17       40.887281   0.000000
   18       40.887298   0.000000
   19       41.478040   0.000000
   20       41.478147   0.000000
   21       44.027237   0.000000
   22       44.027250   0.000000
   23       45.381400   0.000000
   24       45.594270   0.000000
   25       48.746062   0.000000
   26       48.746074   0.000000
   27       51.626933   0.000000
   28       54.099384   0.000000
   29       54.099524   0.000000
   30       55.778792   0.000000
   31       55.778880   0.000000
   32       59.348699   0.000000
   33       65.822525   0.000000
   34       65.836897   0.000000
   35       66.608395   0.000000
   36       66.608748   0.000000
   37       70.198179   0.000000
   38       70.483353   0.000000
   39       70.483498   0.000000
   40       75.309713   0.000000
 
  0.9090909E-01 -0.5282740E-17  0.9090909E-01  0.9015778E-02
    1       -0.279597   1.000000
    2        3.379577   1.000000
    3        6.542698   1.000000
    4        7.135479   1.000000
    5        7.295911   1.000000
    6        7.342985   1.000000
    7        7.714511   1.000000
    8        7.807241   1.000000
    9        8.492936   1.000003
   10        8.517381   1.000006
   11       10.242043  -0.000000
   12       11.562951  -0.000000
   13       19.616733   0.000000
   14       32.750475   0.000000
   15       35.659460   0.000000
   16       36.198999   0.000000
   17       37.792417   0.000000
   18       39.012979   0.000000
   19       40.671118   0.000000
   20       43.432875   0.000000
   21       44.464526   0.000000
   22       44.760039   0.000000
   23       45.458929   0.000000
   24       46.728135   0.000000
   25       49.712719   0.000000
   26       50.045154   0.000000
   27       51.703278   0.000000
   28       51.835972   0.000000
   29       54.798488   0.000000
   30       57.591508   0.000000
   31       58.031086   0.000000
   32       60.425456   0.000000
   33       64.298476   0.000000
   34       65.627303   0.000000
   35       65.868792   0.000000
   36       66.966809   0.000000
   37       69.007959   0.000000
   38       70.767419   0.000000
   39       72.417270   0.000000
   40       75.020588   0.000000
 
  0.1818182E+00 -0.1720808E-16  0.9090909E-01  0.9015778E-02
    1        0.751183   1.000000
    2        4.015415   1.000000
    3        6.047022   1.000000
    4        6.152429   1.000000
    5        6.992737   1.000000
    6        7.654266   1.000000
    7        7.884306   1.000000
    8        8.227769   1.000000
    9        8.285015   1.000000
   10        8.453213   1.000001
   11       10.340329  -0.000000
   12       13.617460  -0.000000
   13       19.778190   0.000000
   14       29.518527   0.000000
   15       34.248816   0.000000
   16       34.691628   0.000000
   17       35.680467   0.000000
   18       36.456081   0.000000
   19       41.031266   0.000000
   20       42.683326   0.000000
   21       42.782400   0.000000
   22       44.789495   0.000000
   23       46.507587   0.000000
   24       49.098451   0.000000
   25       50.674614   0.000000
   26       50.967934   0.000000
   27       52.418320   0.000000
   28       55.195598   0.000000
   29       58.187541   0.000000
   30       60.086804   0.000000
   31       60.678102   0.000000
   32       61.923302   0.000000
   33       63.034909   0.000000
   34       64.408909   0.000000
   35       65.108887   0.000000
   36       66.705676   0.000000
   37       68.658699   0.000000
   38       71.359416   0.000000
   39       73.673012   0.000000
   40       74.532932   0.000000
 
  0.2727273E+00 -0.9515439E-17  0.9090909E-01  0.9015778E-02
    1        2.132745   1.000000
    2        4.261716   1.000000
    3        4.969821   1.000000
    4        6.019913   1.000000
    5        6.801408   1.000000
    6        7.669580   1.000000
    7        7.674286   1.000000
    8        8.793341   1.006227
    9        9.019994   1.017979
   10        9.272823   0.242251
   11       10.413096  -0.000000
   12       15.703305   0.000000
   13       20.146073   0.000000
   14       25.526782   0.000000
   15       31.232915   0.000000
   16       31.991279   0.000000
   17       33.752592   0.000000
   18       36.166873   0.000000
   19       39.950764   0.000000
   20       41.699348   0.000000
   21       42.782400   0.000000
   22       44.877090   0.000000
   23       44.996751   0.000000
   24       49.768212   0.000000
   25       53.762928   0.000000
   26       55.374845   0.000000
   27       55.832202   0.000000
   28       57.139989   0.000000
   29       60.170192   0.000000
   30       61.468089   0.000000
   31       62.674389   0.000000
   32       63.041009   0.000000
   33       63.451790   0.000000
   34       63.993754   0.000000
   35       65.542558   0.000000
   36       67.694163   0.000000
   37       68.391575   0.000000
   38       71.854485   0.000000
   39       73.429745   0.000000
   40       75.586513   0.000000
 
  0.3636364E+00 -0.5372433E-16  0.9090909E-01  0.9015778E-02
    1        3.141364   1.000000
    2        3.875427   1.000000
    3        4.362427   1.000000
    4        6.096024   1.000000
    5        7.268351   1.000000
    6        7.363934   1.000000
    7        7.555895   1.000000
    8        9.975791  -0.000000
    9       10.097699  -0.000000
   10       10.205006  -0.000000
   11       10.474478  -0.000000
   12       17.237222   0.000000
   13       20.315467   0.000000
   14       22.978372   0.000000
   15       28.005332   0.000000
   16       29.896490   0.000000
   17       31.360126   0.000000
   18       35.181737   0.000000
   19       38.639109   0.000000
   20       40.491820   0.000000
   21       43.838473   0.000000
   22       43.998851   0.000000
   23       46.426577   0.000000
   24       50.480129   0.000000
   25       55.673258   0.000000
   26       57.245231   0.000000
   27       59.159524   0.000000
   28       59.563745   0.000000
   29       61.210835   0.000000
   30       62.622157   0.000000
   31       63.418804   0.000000
   32       64.032075   0.000000
   33       64.832328   0.000000
   34       65.496124   0.000000
   35       65.813602   0.000000
   36       67.637352   0.000000
   37       72.234180   0.000000
   38       72.410423   0.000000
   39       73.061926   0.000000
   40       75.056107   0.000000
 
  0.4545455E+00 -0.2672352E-16  0.9090909E-01  0.9015778E-02
    1        3.345227   1.000000
    2        3.491356   1.000000
    3        4.231684   1.000000
    4        6.226717   1.000000
    5        7.186792   1.000000
    6        7.574852   1.000000
    7        7.872213   1.000000
    8       10.389271  -0.000000
    9       10.581974  -0.000000
   10       10.769220  -0.000000
   11       12.116478  -0.000000
   12       16.030963   0.000000
   13       21.122303   0.000000
   14       23.000628   0.000000
   15       25.913047   0.000000
   16       28.710362   0.000000
   17       28.790689   0.000000
   18       34.480602   0.000000
   19       38.167331   0.000000
   20       39.561679   0.000000
   21       43.434945   0.000000