<?xml version="1.0" encoding="ISO-8859-1"?>
<modeling>
 <generator>
  <i name="program" type="string">vasp </i>
  <i name="version" type="string">6.2.0  </i>
  <i name="subversion" type="string">18Jan21 (build Mar 17 2021 09:06:54) complex                          serial </i>
  <i name="platform" type="string">LinuxIFC </i>
  <i name="date" type="string">2021 09 09 </i>
  <i name="time" type="string">11:59:13 </i>
 </generator>
 <incar>
  <i type="string" name="PREC">normal</i>
  <i type="int" name="ICHARG">     1</i>
  <i type="int" name="IBRION">     1</i>
  <i name="EDIFF">      0.00000100</i>
  <i type="int" name="NSW">     0</i>
  <i type="int" name="ISIF">     2</i>
  <i name="ENCUT">    280.00000000</i>
  <i type="int" name="NBANDS">    40</i>
  <i type="int" name="ISMEAR">     1</i>
  <i name="SIGMA">      0.20000000</i>
  <i type="logical" name="LCHARG"> T  </i>
  <i type="int" name="KPAR">     1</i>
  <i type="int" name="NCORE">     1</i>
  <i type="string" name="GGA">PE</i>
 </incar>
 <primitive_cell>
  <structure name="primitive_cell" >
   <crystal>
    <varray name="basis" >
     <v>       2.26010000       0.00000000       0.00000000 </v>
     <v>      -1.13005000       1.95730402       0.00000000 </v>
     <v>       0.00000000       0.00000000       3.81792000 </v>
    </varray>
    <i name="volume">     16.88934341 </i>
    <varray name="rec_basis" >
     <v>       0.44245830       0.25545342       0.00000000 </v>
     <v>       0.00000000       0.51090684       0.00000000 </v>
     <v>       0.00000000       0.00000000       0.26192272 </v>
    </varray>
   </crystal>
   <varray name="positions" >
    <v>       0.00000000       0.00000000       0.00000000 </v>
    <v>       0.33333333       0.66666667       0.50000000 </v>
   </varray>
  </structure>
  <varray name="primitive_index" >
   <v type="int" >        1 </v>
   <v type="int" >        2 </v>
  </varray>
 </primitive_cell>
 <kpoints>
  <generation param="Monkhorst-Pack">
   <v type="int" name="divisions">      11       11       11 </v>
   <v name="usershift">      0.00000000       0.00000000       0.00000000 </v>
   <v name="genvec1">      0.09090909       0.00000000       0.00000000 </v>
   <v name="genvec2">      0.00000000       0.09090909       0.00000000 </v>
   <v name="genvec3">      0.00000000       0.00000000       0.09090909 </v>
   <v name="shift">      0.00000000       0.00000000       0.00000000 </v>
  </generation>
  <varray name="kpointlist" >
   <v>       0.00000000       0.00000000       0.00000000 </v>
   <v>       0.09090909      -0.00000000       0.00000000 </v>
   <v>       0.18181818      -0.00000000       0.00000000 </v>
   <v>       0.27272727      -0.00000000       0.00000000 </v>
   <v>       0.36363636      -0.00000000       0.00000000 </v>
   <v>       0.45454545      -0.00000000       0.00000000 </v>
   <v>       0.09090909       0.09090909       0.00000000 </v>
   <v>       0.18181818       0.09090909       0.00000000 </v>
   <v>       0.27272727       0.09090909       0.00000000 </v>
   <v>       0.36363636       0.09090909       0.00000000 </v>
   <v>       0.45454545       0.09090909       0.00000000 </v>
   <v>       0.18181818       0.18181818       0.00000000 </v>
   <v>       0.27272727       0.18181818       0.00000000 </v>
   <v>       0.36363636       0.18181818       0.00000000 </v>
   <v>       0.27272727       0.27272727       0.00000000 </v>
   <v>       0.36363636       0.27272727       0.00000000 </v>
   <v>       0.00000000       0.00000000       0.09090909 </v>
   <v>       0.09090909      -0.00000000       0.09090909 </v>
   <v>       0.18181818      -0.00000000       0.09090909 </v>
   <v>       0.27272727      -0.00000000       0.09090909 </v>
   <v>       0.36363636      -0.00000000       0.09090909 </v>
   <v>       0.45454545      -0.00000000       0.09090909 </v>
   <v>       0.09090909       0.09090909       0.09090909 </v>
   <v>       0.18181818       0.09090909       0.09090909 </v>
   <v>       0.27272727       0.09090909       0.09090909 </v>
   <v>       0.36363636       0.09090909       0.09090909 </v>
   <v>       0.45454545       0.09090909       0.09090909 </v>
   <v>       0.18181818       0.18181818       0.09090909 </v>
   <v>       0.27272727       0.18181818       0.09090909 </v>
   <v>       0.36363636       0.18181818       0.09090909 </v>
   <v>       0.27272727       0.27272727       0.09090909 </v>
   <v>       0.36363636       0.27272727       0.09090909 </v>
   <v>       0.00000000       0.00000000       0.18181818 </v>
   <v>       0.09090909      -0.00000000       0.18181818 </v>
   <v>       0.18181818      -0.00000000       0.18181818 </v>
   <v>       0.27272727      -0.00000000       0.18181818 </v>
   <v>       0.36363636      -0.00000000       0.18181818 </v>
   <v>       0.45454545      -0.00000000       0.18181818 </v>
   <v>       0.09090909       0.09090909       0.18181818 </v>
   <v>       0.18181818       0.09090909       0.18181818 </v>
   <v>       0.27272727       0.09090909       0.18181818 </v>
   <v>       0.36363636       0.09090909       0.18181818 </v>
   <v>       0.45454545       0.09090909       0.18181818 </v>
   <v>       0.18181818       0.18181818       0.18181818 </v>
   <v>       0.27272727       0.18181818       0.18181818 </v>
   <v>       0.36363636       0.18181818       0.18181818 </v>
   <v>       0.27272727       0.27272727       0.18181818 </v>
   <v>       0.36363636       0.27272727       0.18181818 </v>
   <v>       0.00000000       0.00000000       0.27272727 </v>
   <v>       0.09090909      -0.00000000       0.27272727 </v>
   <v>       0.18181818      -0.00000000       0.27272727 </v>
   <v>       0.27272727      -0.00000000       0.27272727 </v>
   <v>       0.36363636      -0.00000000       0.27272727 </v>
   <v>       0.45454545      -0.00000000       0.27272727 </v>
   <v>       0.09090909       0.09090909       0.27272727 </v>
   <v>       0.18181818       0.09090909       0.27272727 </v>
   <v>       0.27272727       0.09090909       0.27272727 </v>
   <v>       0.36363636       0.09090909       0.27272727 </v>
   <v>       0.45454545       0.09090909       0.27272727 </v>
   <v>       0.18181818       0.18181818       0.27272727 </v>
   <v>       0.27272727       0.18181818       0.27272727 </v>
   <v>       0.36363636       0.18181818       0.27272727 </v>
   <v>       0.27272727       0.27272727       0.27272727 </v>
   <v>       0.36363636       0.27272727       0.27272727 </v>
   <v>       0.00000000       0.00000000       0.36363636 </v>
   <v>       0.09090909      -0.00000000       0.36363636 </v>
   <v>       0.18181818      -0.00000000       0.36363636 </v>
   <v>       0.27272727      -0.00000000       0.36363636 </v>
   <v>       0.36363636      -0.00000000       0.36363636 </v>
   <v>       0.45454545      -0.00000000       0.36363636 </v>
   <v>       0.09090909       0.09090909       0.36363636 </v>
   <v>       0.18181818       0.09090909       0.36363636 </v>
   <v>       0.27272727       0.09090909       0.36363636 </v>
   <v>       0.36363636       0.09090909       0.36363636 </v>
   <v>       0.45454545       0.09090909       0.36363636 </v>
   <v>       0.18181818       0.18181818       0.36363636 </v>
   <v>       0.27272727       0.18181818       0.36363636 </v>
   <v>       0.36363636       0.18181818       0.36363636 </v>
   <v>       0.27272727       0.27272727       0.36363636 </v>
   <v>       0.36363636       0.27272727       0.36363636 </v>
   <v>       0.00000000       0.00000000       0.45454545 </v>
   <v>       0.09090909      -0.00000000       0.45454545 </v>
   <v>       0.18181818      -0.00000000       0.45454545 </v>
   <v>       0.27272727      -0.00000000       0.45454545 </v>
   <v>       0.36363636      -0.00000000       0.45454545 </v>
   <v>       0.45454545      -0.00000000       0.45454545 </v>
   <v>       0.09090909       0.09090909       0.45454545 </v>
   <v>       0.18181818       0.09090909       0.45454545 </v>
   <v>       0.27272727       0.09090909       0.45454545 </v>
   <v>       0.36363636       0.09090909       0.45454545 </v>
   <v>       0.45454545       0.09090909       0.45454545 </v>
   <v>       0.18181818       0.18181818       0.45454545 </v>
   <v>       0.27272727       0.18181818       0.45454545 </v>
   <v>       0.36363636       0.18181818       0.45454545 </v>
   <v>       0.27272727       0.27272727       0.45454545 </v>
   <v>       0.36363636       0.27272727       0.45454545 </v>
  </varray>
  <varray name="weights" >
   <v>       0.00075131 </v>
   <v>       0.00450789 </v>
   <v>       0.00450789 </v>
   <v>       0.00450789 </v>
   <v>       0.00450789 </v>
   <v>       0.00450789 </v>
   <v>       0.00450789 </v>
   <v>       0.00901578 </v>
   <v>       0.00901578 </v>
   <v>       0.00901578 </v>
   <v>       0.00450789 </v>
   <v>       0.00450789 </v>
   <v>       0.00901578 </v>
   <v>       0.00901578 </v>
   <v>       0.00450789 </v>
   <v>       0.00450789 </v>
   <v>       0.00150263 </v>
   <v>       0.00901578 </v>
   <v>       0.00901578 </v>
   <v>       0.00901578 </v>
   <v>       0.00901578 </v>
   <v>       0.00901578 </v>
   <v>       0.00901578 </v>
   <v>       0.01803156 </v>
   <v>       0.01803156 </v>
   <v>       0.01803156 </v>
   <v>       0.00901578 </v>
   <v>       0.00901578 </v>
   <v>       0.01803156 </v>
   <v>       0.01803156 </v>
   <v>       0.00901578 </v>
   <v>       0.00901578 </v>
   <v>       0.00150263 </v>
   <v>       0.00901578 </v>
   <v>       0.00901578 </v>
   <v>       0.00901578 </v>
   <v>       0.00901578 </v>
   <v>       0.00901578 </v>
   <v>       0.00901578 </v>
   <v>       0.01803156 </v>
   <v>       0.01803156 </v>
   <v>       0.01803156 </v>
   <v>       0.00901578 </v>
   <v>       0.00901578 </v>
   <v>       0.01803156 </v>
   <v>       0.01803156 </v>
   <v>       0.00901578 </v>
   <v>       0.00901578 </v>
   <v>       0.00150263 </v>
   <v>       0.00901578 </v>
   <v>       0.00901578 </v>
   <v>       0.00901578 </v>
   <v>       0.00901578 </v>
   <v>       0.00901578 </v>
   <v>       0.00901578 </v>
   <v>       0.01803156 </v>
   <v>       0.01803156 </v>
   <v>       0.01803156 </v>
   <v>       0.00901578 </v>
   <v>       0.00901578 </v>
   <v>       0.01803156 </v>
   <v>       0.01803156 </v>
   <v>       0.00901578 </v>
   <v>       0.00901578 </v>
   <v>       0.00150263 </v>
   <v>       0.00901578 </v>
   <v>       0.00901578 </v>
   <v>       0.00901578 </v>
   <v>       0.00901578 </v>
   <v>       0.00901578 </v>
   <v>       0.00901578 </v>
   <v>       0.01803156 </v>
   <v>       0.01803156 </v>
   <v>       0.01803156 </v>
   <v>       0.00901578 </v>
   <v>       0.00901578 </v>
   <v>       0.01803156 </v>
   <v>       0.01803156 </v>
   <v>       0.00901578 </v>
   <v>       0.00901578 </v>
   <v>       0.00150263 </v>
   <v>       0.00901578 </v>
   <v>       0.00901578 </v>
   <v>       0.00901578 </v>
   <v>       0.00901578 </v>
   <v>       0.00901578 </v>
   <v>       0.00901578 </v>
   <v>       0.01803156 </v>
   <v>       0.01803156 </v>
   <v>       0.01803156 </v>
   <v>       0.00901578 </v>
   <v>       0.00901578 </v>
   <v>       0.01803156 </v>
   <v>       0.01803156 </v>
   <v>       0.00901578 </v>
   <v>       0.00901578 </v>
  </varray>
 </kpoints>
 <parameters>
  <separator name="general" >
   <i type="string" name="SYSTEM">unknown system</i>
   <i type="logical" name="LCOMPAT"> F  </i>
  </separator>
  <separator name="electronic" >
   <i type="string" name="PREC">normal</i>
   <i name="ENMAX">    280.00000000</i>
   <i name="ENAUG">    511.36800000</i>
   <i name="EDIFF">      0.00000100</i>
   <i type="int" name="IALGO">    38</i>
   <i type="int" name="IWAVPR">     0</i>
   <i type="int" name="NBANDS">    40</i>
   <i type="int" name="NBANDSLOW">    -1</i>
   <i type="int" name="NBANDSHIGH">    -1</i>
   <i name="NELECT">     16.00000000</i>
   <i type="int" name="TURBO">     0</i>
   <i type="int" name="IRESTART">     0</i>
   <i type="int" name="NREBOOT">     0</i>
   <i type="int" name="NMIN">     0</i>
   <i name="EREF">      0.00000000</i>
   <separator name="electronic smearing" >
    <i type="int" name="ISMEAR">     1</i>
    <i name="SIGMA">      0.20000000</i>
    <i name="KSPACING">      0.50000000</i>
    <i type="logical" name="KGAMMA"> T  </i>
    <i type="logical" name="KBLOWUP"> T  </i>
   </separator>
   <separator name="electronic projectors" >
    <i type="logical" name="LREAL"> F  </i>
    <v name="ROPT">      0.00000000</v>
    <i type="int" name="LMAXPAW">  -100</i>
    <i type="int" name="LMAXMIX">     2</i>
    <i type="logical" name="NLSPLINE"> F  </i>
   </separator>
   <separator name="electronic startup" >
    <i type="int" name="ISTART">     0</i>
    <i type="int" name="ICHARG">     1</i>
    <i type="int" name="INIWAV">     1</i>
   </separator>
   <separator name="electronic spin" >
    <i type="int" name="ISPIN">     1</i>
    <i type="logical" name="LNONCOLLINEAR"> F  </i>
    <v name="MAGMOM">      1.00000000      1.00000000</v>
    <i name="NUPDOWN">     -1.00000000</i>
    <i type="logical" name="LSORBIT"> F  </i>
    <v name="SAXIS">      0.00000000      0.00000000      1.00000000</v>
    <i type="logical" name="LSPIRAL"> F  </i>
    <v name="QSPIRAL">      0.00000000      0.00000000      0.00000000</v>
    <i type="logical" name="LZEROZ"> F  </i>
   </separator>
   <separator name="electronic exchange-correlation" >
    <i type="logical" name="LASPH"> F  </i>
    <i type="logical" name="LMETAGGA"> F  </i>
   </separator>
   <separator name="electronic convergence" >
    <i type="int" name="NELM">    60</i>
    <i type="int" name="NELMDL">    -5</i>
    <i type="int" name="NELMIN">     2</i>
    <i name="ENINI">    280.00000000</i>
    <separator name="electronic convergence detail" >
     <i type="logical" name="LDIAG"> T  </i>
     <i type="logical" name="LSUBROT"> F  </i>
     <i name="WEIMIN">      0.00000000</i>
     <i name="EBREAK">      0.00000001</i>
     <i name="DEPER">      0.30000000</i>
     <i type="int" name="NRMM">     4</i>
     <i name="TIME">      0.40000000</i>
    </separator>
   </separator>
   <separator name="electronic mixer" >
    <i name="AMIX">      0.40000000</i>
    <i name="BMIX">      1.00000000</i>
    <i name="AMIN">      0.10000000</i>
    <i name="AMIX_MAG">      1.60000000</i>
    <i name="BMIX_MAG">      1.00000000</i>
    <separator name="electronic mixer details" >
     <i type="int" name="IMIX">     4</i>
     <i type="logical" name="MIXFIRST"> F  </i>
     <i type="int" name="MAXMIX">   -45</i>
     <i name="WC">    100.00000000</i>
     <i type="int" name="INIMIX">     1</i>
     <i type="int" name="MIXPRE">     1</i>
     <i type="int" name="MREMOVE">     5</i>
    </separator>
   </separator>
   <separator name="electronic dipolcorrection" >
    <i type="logical" name="LDIPOL"> F  </i>
    <i type="logical" name="LMONO"> F  </i>
    <i type="int" name="IDIPOL">     0</i>
    <i name="EPSILON">      1.00000000</i>
    <v name="DIPOL">   -100.00000000   -100.00000000   -100.00000000</v>
    <i name="EFIELD">      0.00000000</i>
   </separator>
  </separator>
  <separator name="grids" >
   <i type="int" name="NGX">    10</i>
   <i type="int" name="NGY">    10</i>
   <i type="int" name="NGZ">    16</i>
   <i type="int" name="NGXF">    20</i>
   <i type="int" name="NGYF">    20</i>
   <i type="int" name="NGZF">    32</i>
   <i type="logical" name="ADDGRID"> F  </i>
  </separator>
  <separator name="ionic" >
   <i type="int" name="NSW">     0</i>
   <i type="int" name="IBRION">    -1</i>
   <i type="int" name="MDALGO">     0</i>
   <i type="int" name="ISIF">     2</i>
   <i name="PSTRESS">      0.00000000</i>
   <i name="EDIFFG">      0.00001000</i>
   <i type="int" name="NFREE">     0</i>
   <i name="POTIM">      0.50000000</i>
   <i name="SMASS">     -3.00000000</i>
   <i name="SCALEE">      1.00000000</i>
  </separator>
  <separator name="ionic md" >
   <i name="TEBEG">      0.00010000</i>
   <i name="TEEND">      0.00010000</i>
   <i type="int" name="NBLOCK">     1</i>
   <i type="int" name="KBLOCK">     1</i>
   <i type="int" name="NPACO">   256</i>
   <i name="APACO">     16.00000000</i>
  </separator>
  <separator name="symmetry" >
   <i type="int" name="ISYM">     2</i>
   <i name="SYMPREC">      0.00001000</i>
  </separator>
  <separator name="dos" >
   <i type="int" name="LORBIT">     0</i>
   <v name="RWIGS">     -1.00000000</v>
   <i type="int" name="NEDOS">   301</i>
   <i name="EMIN">     10.00000000</i>
   <i name="EMAX">    -10.00000000</i>
   <i name="EFERMI">      0.00000000</i>
  </separator>
  <separator name="writing" >
   <i type="int" name="NWRITE">     2</i>
   <i type="logical" name="LWAVE"> T  </i>
   <i type="logical" name="LDOWNSAMPLE"> F  </i>
   <i type="logical" name="LCHARG"> T  </i>
   <i type="logical" name="LPARD"> F  </i>
   <i type="logical" name="LVTOT"> F  </i>
   <i type="logical" name="LVHAR"> F  </i>
   <i type="logical" name="LELF"> F  </i>
   <i type="logical" name="LOPTICS"> F  </i>
   <v name="STM">      0.00000000      0.00000000      0.00000000      0.00000000      0.00000000      0.00000000      0.00000000</v>
  </separator>
  <separator name="performance" >
   <i type="int" name="NPAR">     1</i>
   <i type="int" name="NSIM">     4</i>
   <i type="int" name="NBLK">    -1</i>
   <i type="logical" name="LPLANE"> T  </i>
   <i type="logical" name="LSCALAPACK"> F  </i>
   <i type="logical" name="LSCAAWARE"> F  </i>
   <i type="logical" name="LSCALU"> F  </i>
   <i type="logical" name="LASYNC"> F  </i>
   <i type="logical" name="LORBITALREAL"> F  </i>
  </separator>
  <separator name="miscellaneous" >
   <i type="int" name="IDIOT">     3</i>
   <i type="int" name="PHON_NSTRUCT">    -1</i>
   <i type="logical" name="LMUSIC"> F  </i>
   <v name="POMASS">     55.84700000</v>
   <v name="DARWINR">      0.00000000</v>
   <v name="DARWINV">      1.00000000</v>
   <i type="logical" name="LCORR"> T  </i>
  </separator>
  <i type="logical" name="GGA_COMPAT"> T  </i>
  <i type="logical" name="LBERRY"> F  </i>
  <i type="int" name="ICORELEVEL">     0</i>
  <i type="logical" name="LDAU"> F  </i>
  <i type="int" name="I_CONSTRAINED_M">     0</i>
  <separator name="electronic exchange-correlation" >
   <i type="string" name="GGA">PE</i>
   <i type="int" name="VOSKOWN">     0</i>
   <i type="logical" name="LHFCALC"> F  </i>
   <i type="string" name="PRECFOCK"></i>
   <i type="logical" name="LSYMGRAD"> F  </i>
   <i type="logical" name="LHFONE"> F  </i>
   <i type="logical" name="LRHFCALC"> F  </i>
   <i type="logical" name="LTHOMAS"> F  </i>
   <i type="logical" name="LMODELHF"> F  </i>
   <i type="logical" name="LFOCKACE"> F  </i>
   <i name="ENCUT4O">     -1.00000000</i>
   <i type="int" name="EXXOEP">     0</i>
   <i type="int" name="FOURORBIT">     0</i>
   <i name="AEXX">      0.00000000</i>
   <i name="HFALPHA">      0.00000000</i>
   <i name="MCALPHA">      0.00000000</i>
   <i name="ALDAX">      1.00000000</i>
   <i name="AGGAX">      1.00000000</i>
   <i name="ALDAC">      1.00000000</i>
   <i name="AGGAC">      1.00000000</i>
   <i type="int" name="NKREDX">     1</i>
   <i type="int" name="NKREDY">     1</i>
   <i type="int" name="NKREDZ">     1</i>
   <i type="logical" name="SHIFTRED"> F  </i>
   <i type="logical" name="ODDONLY"> F  </i>
   <i type="logical" name="EVENONLY"> F  </i>
   <i type="int" name="LMAXFOCK">     0</i>
   <i type="int" name="NMAXFOCKAE">     0</i>
   <i type="logical" name="LFOCKAEDFT"> F  </i>
   <i name="HFSCREEN">      0.00000000</i>
   <i name="HFSCREENC">      0.00000000</i>
   <i type="int" name="NBANDSGWLOW">     0</i>
  </separator>
  <separator name="vdW DFT" >
   <i type="logical" name="LUSE_VDW"> F  </i>
   <i name="Zab_VDW">     -0.84910000</i>
   <i name="PARAM1">      0.12340000</i>
   <i name="PARAM2">      1.00000000</i>
   <i name="PARAM3">      0.00000000</i>
  </separator>
  <separator name="model GW" >
   <i type="int" name="MODEL_GW">     0</i>
   <i name="MODEL_EPS0">      5.06680302</i>
   <i name="MODEL_ALPHA">      1.00000000</i>
  </separator>
  <separator name="linear response parameters" >
   <i type="logical" name="LEPSILON"> F  </i>
   <i type="logical" name="LRPA"> F  </i>
   <i type="logical" name="LNABLA"> F  </i>
   <i type="logical" name="LVEL"> F  </i>
   <i type="int" name="KINTER">     0</i>
   <i name="CSHIFT">      0.10000000</i>
   <i name="OMEGAMAX">     -1.00000000</i>
   <i name="DEG_THRESHOLD">      0.00200000</i>
   <i name="RTIME">     -0.10000000</i>
   <i name="WPLASMAI">      0.00000000</i>
   <v name="DFIELD">      0.00000000      0.00000000      0.00000000</v>
   <v name="WPLASMA">      0.00000000      0.00000000      0.00000000      0.00000000      0.00000000      0.00000000      0.00000000      0.00000000      0.00000000</v>
  </separator>
  <separator name="orbital magnetization" >
   <i type="logical" name="NUCIND"> F  </i>
   <v name="MAGPOS">      0.00000000      0.00000000      0.00000000</v>
   <i type="logical" name="LNICSALL"> T  </i>
   <i type="logical" name="ORBITALMAG"> F  </i>
   <i type="logical" name="LMAGBLOCH"> F  </i>
   <i type="logical" name="LCHIMAG"> F  </i>
   <i type="logical" name="LGAUGE"> T  </i>
   <i type="int" name="MAGATOM">     0</i>
   <v name="MAGDIPOL">      0.00000000      0.00000000      0.00000000</v>
   <v name="AVECCONST">      0.00000000      0.00000000      0.00000000</v>
  </separator>
  <separator name="response functions" >
   <i type="logical" name="LFINITE_TEMPERATURE"> F  </i>
   <i type="logical" name="LADDER"> F  </i>
   <i type="logical" name="LRPAFORCE"> F  </i>
   <i type="logical" name="LFXC"> F  </i>
   <i type="logical" name="LHARTREE"> T  </i>
   <i type="int" name="IBSE">     0</i>
   <v type="int" name="KPOINT">    -1     0     0     0</v>
   <i type="logical" name="LTCTC"> F  </i>
   <i type="logical" name="LTCTE"> F  </i>
   <i type="logical" name="LTETE"> F  </i>
   <i type="logical" name="LTRIPLET"> F  </i>
   <i type="logical" name="LFXCEPS"> F  </i>
   <i type="logical" name="LFXHEG"> F  </i>
   <i type="int" name="NATURALO">     2</i>
   <i type="logical" name="LHOLEGF"> F  </i>
   <i type="logical" name="L2ORDER"> F  </i>
   <i type="logical" name="LDMP1"> F  </i>
   <i type="logical" name="LMP2LT"> F  </i>
   <i type="logical" name="LSMP2LT"> F  </i>
   <i type="logical" name="LGWLF"> F  </i>
   <i name="ENCUTGW">     -2.00000000</i>
   <i name="ENCUTGWSOFT">     -2.00000000</i>
   <i name="ENCUTLF">     -1.00000000</i>
   <i type="logical" name="LESF_SPLINES"> F  </i>
   <i type="int" name="LMAXMP2">    -1</i>
   <i name="SCISSOR">      0.00000000</i>
   <i type="int" name="NOMEGA">     0</i>
   <i type="int" name="NOMEGAR">     0</i>
   <i type="int" name="NBANDSGW">    -1</i>
   <i type="int" name="NBANDSO">    -1</i>
   <i type="int" name="NBANDSV">    -1</i>
   <i type="int" name="NELM">     1</i>
   <i type="int" name="NELMHF">     1</i>
   <i type="int" name="DIM">     3</i>
   <i type="int" name="IESPILON">     4</i>
   <i type="int" name="ANTIRES">     0</i>
   <i name="OMEGAMAX">    -30.00000000</i>
   <i name="OMEGAMIN">    -30.00000000</i>
   <i name="OMEGATL">   -200.00000000</i>
   <i type="int" name="OMEGAGRID">     0</i>
   <i name="CSHIFT">     -0.10000000</i>
   <i type="logical" name="LSELFENERGY"> F  </i>
   <i type="logical" name="LSPECTRAL"> F  </i>
   <i type="logical" name="LSPECTRALGW"> F  </i>
   <i type="logical" name="LSINGLES"> F  </i>
   <i type="logical" name="LFERMIGW"> F  </i>
   <i type="logical" name="ODDONLYGW"> F  </i>
   <i type="logical" name="EVENONLYGW"> F  </i>
   <i type="int" name="NKREDLFX">     1</i>
   <i type="int" name="NKREDLFY">     1</i>
   <i type="int" name="NKREDLFZ">     1</i>
   <i type="int" name="MAXMEM">  2800</i>
   <i type="int" name="TELESCOPE">     0</i>
   <i type="int" name="NTAUPAR">    -1</i>
   <i type="int" name="NOMEGAPAR">    -1</i>
   <i name="DAMP_NEWTON">      0.80000001</i>
   <i name="LAMBDA">      1.00000000</i>
  </separator>
  <separator name="External order field" >
   <i name="OFIELD_KAPPA">      0.00000000</i>
   <v name="OFIELD_K">      0.00000000      0.00000000      0.00000000</v>
   <i name="OFIELD_Q6_NEAR">      0.00000000</i>
   <i name="OFIELD_Q6_FAR">      0.00000000</i>
   <i name="OFIELD_A">      0.00000000</i>
  </separator>
 </parameters>
 <atominfo>
  <atoms>       2 </atoms>
  <types>       1 </types>
  <array name="atoms" >
   <dimension dim="1">ion</dimension>
   <field type="string">element</field>
   <field type="int">atomtype</field>
   <set>
    <rc><c>Fe</c><c>   1</c></rc>
    <rc><c>Fe</c><c>   1</c></rc>
   </set>
  </array>
  <array name="atomtypes" >
   <dimension dim="1">type</dimension>
   <field type="int">atomspertype</field>
   <field type="string">element</field>
   <field>mass</field>
   <field>valence</field>
   <field type="string">pseudopotential</field>
   <set>
    <rc><c>   2</c><c>Fe</c><c>     55.84700000</c><c>      8.00000000</c><c>  PAW_PBE Fe 06Sep2000                  </c></rc>
   </set>
  </array>
 </atominfo>
 <structure name="initialpos" >
  <crystal>
   <varray name="basis" >
    <v>       2.26010000       0.00000000       0.00000000 </v>
    <v>      -1.13005000       1.95730402       0.00000000 </v>
    <v>       0.00000000       0.00000000       3.81792000 </v>
   </varray>
   <i name="volume">     16.88934341 </i>
   <varray name="rec_basis" >
    <v>       0.44245830       0.25545342       0.00000000 </v>
    <v>       0.00000000       0.51090684       0.00000000 </v>
    <v>       0.00000000       0.00000000       0.26192272 </v>
   </varray>
  </crystal>
  <varray name="positions" >
   <v>       0.00000000       0.00000000       0.00000000 </v>
   <v>       0.33333333       0.66666667       0.50000000 </v>
  </varray>
 </structure>
 <calculation>
  <scstep>
   <time name="dav">    0.76    0.78</time>
   <time name="total">    0.77    0.79</time>
   <energy>
    <i name="alphaZ">    163.68611690 </i>
    <i name="ewald">  -1306.86721554 </i>
    <i name="hartreedc">   -179.58072773 </i>
    <i name="XCdc">      9.76079461 </i>
    <i name="pawpsdc">   1109.69170683 </i>
    <i name="pawaedc">  -1125.09647265 </i>
    <i name="eentropy">     -0.00356704 </i>
    <i name="bandstr">    198.63896718 </i>
    <i name="atom">   1188.57490811 </i>
    <i name="e_fr_energy">     58.80451067 </i>
    <i name="e_wo_entrp">     58.80807771 </i>
    <i name="e_0_energy">     58.80569968 </i>
   </energy>
  </scstep>
  <scstep>
   <time name="dav">    0.62    0.62</time>
   <time name="total">    0.63    0.63</time>
   <energy>
    <i name="e_fr_energy">    -14.32664830 </i>
    <i name="e_wo_entrp">    -14.32510258 </i>
    <i name="e_0_energy">    -14.32613306 </i>
   </energy>
  </scstep>
  <scstep>
   <time name="dav">    0.72    0.72</time>
   <time name="total">    0.72    0.72</time>
   <energy>
    <i name="e_fr_energy">    -18.11746322 </i>
    <i name="e_wo_entrp">    -18.11611029 </i>
    <i name="e_0_energy">    -18.11701224 </i>
   </energy>
  </scstep>
  <scstep>
   <time name="dav">    0.65    0.65</time>
   <time name="total">    0.66    0.66</time>
   <energy>
    <i name="e_fr_energy">    -18.12877090 </i>
    <i name="e_wo_entrp">    -18.12741029 </i>
    <i name="e_0_energy">    -18.12831737 </i>
   </energy>
  </scstep>
  <scstep>
   <time name="dav">    0.69    0.69</time>
   <time name="total">    0.72    0.72</time>
   <energy>
    <i name="e_fr_energy">    -18.12877663 </i>
    <i name="e_wo_entrp">    -18.12741602 </i>
    <i name="e_0_energy">    -18.12832309 </i>
   </energy>
  </scstep>
  <scstep>
   <time name="dav">    0.82    0.82</time>
   <time name="total">    0.85    0.85</time>
   <energy>
    <i name="e_fr_energy">    -15.62106884 </i>
    <i name="e_wo_entrp">    -15.62059246 </i>
    <i name="e_0_energy">    -15.62091005 </i>
   </energy>
  </scstep>
  <scstep>
   <time name="dav">    0.70    0.70</time>
   <time name="total">    0.73    0.73</time>
   <energy>
    <i name="e_fr_energy">    -15.51300367 </i>
    <i name="e_wo_entrp">    -15.51239273 </i>
    <i name="e_0_energy">    -15.51280003 </i>
   </energy>
  </scstep>
  <scstep>
   <time name="dav">    0.78    0.78</time>
   <time name="total">    0.81    0.81</time>
   <energy>
    <i name="e_fr_energy">    -15.47037733 </i>
    <i name="e_wo_entrp">    -15.46981892 </i>
    <i name="e_0_energy">    -15.47019119 </i>
   </energy>
  </scstep>
  <scstep>
   <time name="dav">    0.75    0.75</time>
   <time name="total">    0.78    0.78</time>
   <energy>
    <i name="e_fr_energy">    -15.46693012 </i>
    <i name="e_wo_entrp">    -15.46637891 </i>
    <i name="e_0_energy">    -15.46674638 </i>
   </energy>
  </scstep>
  <scstep>
   <time name="dav">    0.65    0.65</time>
   <time name="total">    0.68    0.68</time>
   <energy>
    <i name="e_fr_energy">    -15.46683689 </i>
    <i name="e_wo_entrp">    -15.46628268 </i>
    <i name="e_0_energy">    -15.46665215 </i>
   </energy>
  </scstep>
  <scstep>
   <time name="dav">    0.69    0.69</time>
   <time name="total">    0.72    0.72</time>
   <energy>
    <i name="e_fr_energy">    -15.46682086 </i>
    <i name="e_wo_entrp">    -15.46626681 </i>
    <i name="e_0_energy">    -15.46663618 </i>
   </energy>
  </scstep>
  <scstep>
   <time name="dav">    0.49    0.49</time>
   <time name="total">    0.50    0.50</time>
   <energy>
    <i name="alphaZ">    163.68611690 </i>
    <i name="ewald">  -1306.86721554 </i>
    <i name="hartreedc">   -146.77989408 </i>
    <i name="XCdc">      8.20189803 </i>
    <i name="pawpsdc">   1743.12097369 </i>
    <i name="pawaedc">  -1762.84680651 </i>
    <i name="eentropy">     -0.00055391 </i>
    <i name="bandstr">     97.44375307 </i>
    <i name="atom">   1188.57490811 </i>
    <i name="e_fr_energy">    -15.46682024 </i>
    <i name="e_wo_entrp">    -15.46626633 </i>
    <i name="e_0_energy">    -15.46663561 </i>
   </energy>
  </scstep>
  <structure>
   <crystal>
    <varray name="basis" >
     <v>       2.26010000       0.00000000       0.00000000 </v>
     <v>      -1.13005000       1.95730402       0.00000000 </v>
     <v>       0.00000000       0.00000000       3.81792000 </v>
    </varray>
    <i name="volume">     16.88934341 </i>
    <varray name="rec_basis" >
     <v>       0.44245830       0.25545342       0.00000000 </v>
     <v>       0.00000000       0.51090684       0.00000000 </v>
     <v>       0.00000000       0.00000000       0.26192272 </v>
    </varray>
   </crystal>
   <varray name="positions" >
    <v>       0.00000000       0.00000000       0.00000000 </v>
    <v>       0.33333333       0.66666667       0.50000000 </v>
   </varray>
  </structure>
  <varray name="forces" >
   <v>      -0.00000000       0.00000000      -0.00000000 </v>
   <v>       0.00000000      -0.00000000       0.00000000 </v>
  </varray>
  <varray name="stress" >
   <v>     983.24601308      -0.00000000       0.00000000 </v>
   <v>      -0.00000000     983.24601308       0.00000000 </v>
   <v>       0.00000000       0.00000000     494.98305024 </v>
  </varray>
  <energy>
   <i name="e_fr_energy">    -15.46682024 </i>
   <i name="e_wo_entrp">    -15.46626633 </i>
   <i name="e_0_energy">    -15.46663561 </i>
  </energy>
  <time name="totalsc">    8.84    8.86</time>
  <eigenvalues>
   <array>
    <dimension dim="1">band</dimension>
    <dimension dim="2">kpoint</dimension>
    <dimension dim="3">spin</dimension>
    <field>eigene</field>
    <field>occ</field>
    <set>
     <set comment="spin 1">
      <set comment="kpoint 1">
       <r>   -0.7498    1.0000 </r>
       <r>    3.1079    1.0000 </r>
       <r>    6.7042    1.0000 </r>
       <r>    7.1333    1.0000 </r>
       <r>    7.1333    1.0000 </r>
       <r>    7.6278    1.0000 </r>
       <r>    7.6278    1.0000 </r>
       <r>    8.5674    1.0000 </r>
       <r>    8.5674    1.0000 </r>
       <r>    8.9803    1.0342 </r>
       <r>   10.1968   -0.0000 </r>
       <r>   10.1968   -0.0000 </r>
       <r>   19.1523    0.0000 </r>
       <r>   33.6602    0.0000 </r>
       <r>   35.9806    0.0000 </r>
       <r>   37.4819    0.0000 </r>
       <r>   40.8695    0.0000 </r>
       <r>   40.8695    0.0000 </r>
       <r>   41.4779    0.0000 </r>
       <r>   41.4781    0.0000 </r>
       <r>   44.0495    0.0000 </r>
       <r>   44.0496    0.0000 </r>
       <r>   45.2545    0.0000 </r>
       <r>   45.2927    0.0000 </r>
       <r>   49.2171    0.0000 </r>
       <r>   49.2171    0.0000 </r>
       <r>   51.2021    0.0000 </r>
       <r>   53.8769    0.0000 </r>
       <r>   53.8771    0.0000 </r>
       <r>   55.3876    0.0000 </r>
       <r>   55.3877    0.0000 </r>
       <r>   59.6188    0.0000 </r>
       <r>   65.5799    0.0000 </r>
       <r>   66.7290    0.0000 </r>
       <r>   66.7294    0.0000 </r>
       <r>   67.6370    0.0000 </r>
       <r>   68.4104    0.0000 </r>
       <r>   71.2357    0.0000 </r>
       <r>   71.2359    0.0000 </r>
       <r>   75.7787    0.0000 </r>
      </set>
      <set comment="kpoint 2">
       <r>   -0.3759    1.0000 </r>
       <r>    3.3798    1.0000 </r>
       <r>    6.5431    1.0000 </r>
       <r>    7.2127    1.0000 </r>
       <r>    7.3726    1.0000 </r>
       <r>    7.4973    1.0000 </r>
       <r>    7.6444    1.0000 </r>
       <r>    7.8424    1.0000 </r>
       <r>    8.4119    1.0000 </r>
       <r>    8.4525    1.0000 </r>
       <r>   10.2555   -0.0000 </r>
       <r>   11.7598   -0.0000 </r>
       <r>   19.1577    0.0000 </r>
       <r>   32.7996    0.0000 </r>
       <r>   36.0528    0.0000 </r>
       <r>   36.2483    0.0000 </r>
       <r>   37.7187    0.0000 </r>
       <r>   39.8083    0.0000 </r>
       <r>   39.8454    0.0000 </r>
       <r>   43.7323    0.0000 </r>
       <r>   44.6486    0.0000 </r>
       <r>   44.8287    0.0000 </r>
       <r>   45.4145    0.0000 </r>
       <r>   46.1691    0.0000 </r>
       <r>   50.0407    0.0000 </r>
       <r>   50.1543    0.0000 </r>
       <r>   51.1851    0.0000 </r>
       <r>   51.3162    0.0000 </r>
       <r>   54.8001    0.0000 </r>
       <r>   57.3159    0.0000 </r>
       <r>   57.7553    0.0000 </r>
       <r>   60.6832    0.0000 </r>
       <r>   65.3777    0.0000 </r>
       <r>   65.5082    0.0000 </r>
       <r>   66.0430    0.0000 </r>
       <r>   67.4616    0.0000 </r>
       <r>   67.5014    0.0000 </r>
       <r>   71.3944    0.0000 </r>
       <r>   73.3108    0.0000 </r>
       <r>   75.6505    0.0000 </r>
      </set>
      <set comment="kpoint 3">
       <r>    0.6670    1.0000 </r>
       <r>    3.9991    1.0000 </r>
       <r>    6.1176    1.0000 </r>
       <r>    6.1720    1.0000 </r>
       <r>    7.0402    1.0000 </r>
       <r>    7.8053    1.0000 </r>
       <r>    8.0455    1.0000 </r>
       <r>    8.0509    1.0000 </r>
       <r>    8.0773    1.0000 </r>
       <r>    8.4490    1.0000 </r>
       <r>   10.3640   -0.0000 </r>
       <r>   14.0125   -0.0000 </r>
       <r>   19.1992    0.0000 </r>
       <r>   29.4632    0.0000 </r>
       <r>   34.5866    0.0000 </r>
       <r>   34.7396    0.0000 </r>
       <r>   35.3939    0.0000 </r>
       <r>   36.8209    0.0000 </r>
       <r>   40.9248    0.0000 </r>
       <r>   43.1751    0.0000 </r>
       <r>   43.5838    0.0000 </r>
       <r>   44.0840    0.0000 </r>
       <r>   46.2687    0.0000 </r>
       <r>   48.4077    0.0000 </r>
       <r>   50.3558    0.0000 </r>
       <r>   50.8706    0.0000 </r>
       <r>   52.6557    0.0000 </r>
       <r>   55.1099    0.0000 </r>
       <r>   58.5491    0.0000 </r>
       <r>   59.7384    0.0000 </r>
       <r>   60.4341    0.0000 </r>
       <r>   62.5337    0.0000 </r>
       <r>   63.8312    0.0000 </r>
       <r>   64.6177    0.0000 </r>
       <r>   64.8090    0.0000 </r>
       <r>   65.8194    0.0000 </r>
       <r>   68.7172    0.0000 </r>
       <r>   71.8103    0.0000 </r>
       <r>   74.4396    0.0000 </r>
       <r>   75.6240    0.0000 </r>
      </set>
      <set comment="kpoint 4">
       <r>    2.0844    1.0000 </r>
       <r>    4.2344    1.0000 </r>
       <r>    5.0051    1.0000 </r>
       <r>    6.0088    1.0000 </r>
       <r>    6.8844    1.0000 </r>
       <r>    7.6149    1.0000 </r>
       <r>    7.6462    1.0000 </r>
       <r>    8.7551    1.0031 </r>
       <r>    9.0005    1.0287 </r>
       <r>    9.3003    0.1529 </r>
       <r>   10.4434   -0.0000 </r>
       <r>   16.4471    0.0000 </r>
       <r>   19.2751    0.0000 </r>
       <r>   25.4524    0.0000 </r>
       <r>   31.6913    0.0000 </r>
       <r>   31.8545    0.0000 </r>
       <r>   33.4377    0.0000 </r>
       <r>   36.2685    0.0000 </r>
       <r>   39.9729    0.0000 </r>
       <r>   42.7406    0.0000 </r>
       <r>   43.7627    0.0000 </r>
       <r>   44.0134    0.0000 </r>
       <r>   44.3324    0.0000 </r>
       <r>   48.7193    0.0000 </r>
       <r>   53.5981    0.0000 </r>
       <r>   55.4581    0.0000 </r>
       <r>   56.2223    0.0000 </r>
       <r>   58.6466    0.0000 </r>
       <r>   59.8444    0.0000 </r>
       <r>   60.4834    0.0000 </r>
       <r>   62.2424    0.0000 </r>
       <r>   63.2726    0.0000 </r>
       <r>   63.7479    0.0000 </r>
       <r>   64.3965    0.0000 </r>
       <r>   64.7861    0.0000 </r>
       <r>   68.0746    0.0000 </r>
       <r>   68.1938    0.0000 </r>
       <r>   72.2375    0.0000 </r>
       <r>   74.6738    0.0000 </r>
       <r>   74.8774    0.0000 </r>
      </set>
      <set comment="kpoint 5">
       <r>    3.1874    1.0000 </r>
       <r>    3.9164    1.0000 </r>
       <r>    4.2024    1.0000 </r>
       <r>    6.3708    1.0000 </r>
       <r>    7.2126    1.0000 </r>
       <r>    7.2777    1.0000 </r>
       <r>    7.3162    1.0000 </r>
       <r>    9.9676   -0.0000 </r>
       <r>   10.1689   -0.0000 </r>
       <r>   10.2542   -0.0000 </r>
       <r>   10.4825   -0.0000 </r>
       <r>   18.6504    0.0000 </r>
       <r>   18.9696    0.0000 </r>
       <r>   22.7933    0.0000 </r>
       <r>   28.3926    0.0000 </r>
       <r>   29.7443    0.0000 </r>
       <r>   30.9475    0.0000 </r>
       <r>   35.1772    0.0000 </r>
       <r>   38.6253    0.0000 </r>
       <r>   41.8257    0.0000 </r>
       <r>   42.5539    0.0000 </r>
       <r>   44.9539    0.0000 </r>
       <r>   46.5884    0.0000 </r>
       <r>   49.1189    0.0000 </r>
       <r>   57.2684    0.0000 </r>
       <r>   57.4418    0.0000 </r>
       <r>   57.8237    0.0000 </r>
       <r>   60.6494    0.0000 </r>
       <r>   61.4429    0.0000 </r>
       <r>   61.7888    0.0000 </r>
       <r>   63.3904    0.0000 </r>
       <r>   63.9048    0.0000 </r>
       <r>   64.5263    0.0000 </r>
       <r>   65.3751    0.0000 </r>
       <r>   65.8352    0.0000 </r>
       <r>   67.6643    0.0000 </r>
       <r>   72.4488    0.0000 </r>
       <r>   72.9061    0.0000 </r>
       <r>   73.9407    0.0000 </r>
       <r>   74.3957    0.0000 </r>
      </set>
      <set comment="kpoint 6">
       <r>    3.3848    1.0000 </r>
       <r>    3.7940    1.0000 </r>
       <r>    3.7973    1.0000 </r>
       <r>    6.9819    1.0000 </r>
       <r>    7.0217    1.0000 </r>
       <r>    7.1317    1.0000 </r>
       <r>    7.5857    1.0000 </r>
       <r>   10.4954   -0.0000 </r>
       <r>   10.5659   -0.0000 </r>
       <r>   10.7627   -0.0000 </r>
       <r>   12.2300   -0.0000 </r>
       <r>   16.2422    0.0000 </r>
       <r>   21.2947    0.0000 </r>
       <r>   22.9772    0.0000 </r>
       <r>   25.7273    0.0000 </r>
       <r>   28.4007    0.0000 </r>
       <r>   28.5457    0.0000 </r>
       <r>   34.4451    0.0000 </r>
       <r>   38.1688    0.0000 </r>
       <r>   40.5626    0.0000 </r>
       <r>   42.4295    0.0000 </r>
       <r>   45.8318    0.0000 </r>
       <r>   48.7233    0.0000 </r>
       <r>   49.5663    0.0000 </r>
       <r>   54.1563    0.0000 </r>
       <r>   59.4201    0.0000 </r>
       <r>   59.5351    0.0000 </r>
       <r>   61.8409    0.0000 </r>
       <r>   63.0937    0.0000 </r>
       <r>   63.2471    0.0000 </r>
       <r>   64.1264    0.0000 </r>
       <r>   64.5064    0.0000 </r>
       <r>   65.6359    0.0000 </r>
       <r>   68.0796    0.0000 </r>
       <r>   68.2589    0.0000 </r>
       <r>   70.8372    0.0000 </r>
       <r>   71.1174    0.0000 </r>
       <r>   71.3561    0.0000 </r>
       <r>   73.6860    0.0000 </r>
       <r>   73.7114    0.0000 </r>
      </set>
      <set comment="kpoint 7">
       <r>    0.3366    1.0000 </r>
       <r>    3.8490    1.0000 </r>
       <r>    6.1868    1.0000 </r>
       <r>    6.5699    1.0000 </r>
       <r>    7.2450    1.0000 </r>
       <r>    7.4438    1.0000 </r>
       <r>    7.8647    1.0000 </r>
       <r>    7.9032    1.0000 </r>
       <r>    8.3205    1.0000 </r>
       <r>    8.4373    1.0000 </r>
       <r>   10.3027   -0.0000 </r>
       <r>   13.3955   -0.0000 </r>
       <r>   19.1867    0.0000 </r>
       <r>   31.0240    0.0000 </r>
       <r>   32.8912    0.0000 </r>
       <r>   36.4958    0.0000 </r>
       <r>   36.8560    0.0000 </r>
       <r>   38.4194    0.0000 </r>
       <r>   38.8673    0.0000 </r>
       <r>   41.9582    0.0000 </r>
       <r>   44.0667    0.0000 </r>
       <r>   47.2014    0.0000 </r>
       <r>   47.2255    0.0000 </r>
       <r>   48.1657    0.0000 </r>
       <r>   49.0640    0.0000 </r>
       <r>   49.4894    0.0000 </r>
       <r>   49.9097    0.0000 </r>
       <r>   55.2948    0.0000 </r>
       <r>   58.1975    0.0000 </r>
       <r>   59.0089    0.0000 </r>
       <r>   59.2564    0.0000 </r>
       <r>   62.0498    0.0000 </r>
       <r>   63.3990    0.0000 </r>
       <r>   64.9808    0.0000 </r>
       <r>   66.1544    0.0000 </r>
       <r>   66.7742    0.0000 </r>
       <r>   66.9652    0.0000 </r>
       <r>   72.1922    0.0000 </r>
       <r>   74.2838    0.0000 </r>
       <r>   75.2600    0.0000 </r>
      </set>
      <set comment="kpoint 8">
       <r>    1.6049    1.0000 </r>
       <r>    4.4137    1.0000 </r>
       <r>    5.4359    1.0000 </r>
       <r>    5.7382    1.0000 </r>
       <r>    6.9598    1.0000 </r>
       <r>    7.4026    1.0000 </r>
       <r>    7.9913    1.0000 </r>
       <r>    8.1387    1.0000 </r>
       <r>    8.7451    1.0025 </r>
       <r>    9.2135    0.4784 </r>
       <r>   10.3469   -0.0000 </r>
       <r>   15.6013    0.0000 </r>
       <r>   19.3078    0.0000 </r>
       <r>   27.4708    0.0000 </r>
       <r>   30.2800    0.0000 </r>
       <r>   33.4063    0.0000 </r>
       <r>   35.9616    0.0000 </r>
       <r>   36.4775    0.0000 </r>
       <r>   39.8999    0.0000 </r>
       <r>   41.5734    0.0000 </r>
       <r>   42.3777    0.0000 </r>
       <r>   46.8539    0.0000 </r>
       <r>   47.5235    0.0000 </r>
       <r>   48.0772    0.0000 </r>
       <r>   51.0690    0.0000 </r>
       <r>   51.8564    0.0000 </r>
       <r>   53.5926    0.0000 </r>
       <r>   59.2769    0.0000 </r>
       <r>   60.2353    0.0000 </r>
       <r>   61.2046    0.0000 </r>
       <r>   61.4437    0.0000 </r>
       <r>   62.8857    0.0000 </r>
       <r>   63.1844    0.0000 </r>
       <r>   64.5553    0.0000 </r>
       <r>   65.7237    0.0000 </r>
       <r>   65.9598    0.0000 </r>
       <r>   67.7440    0.0000 </r>
       <r>   72.7840    0.0000 </r>
       <r>   74.3137    0.0000 </r>
       <r>   74.3829    0.0000 </r>
      </set>
      <set comment="kpoint 9">
       <r>    2.9858    1.0000 </r>
       <r>    4.2872    1.0000 </r>
       <r>    4.5480    1.0000 </r>
       <r>    5.8564    1.0000 </r>
       <r>    7.0347    1.0000 </r>
       <r>    7.0699    1.0000 </r>
       <r>    7.6864    1.0000 </r>
       <r>    8.9047    1.0268 </r>
       <r>    9.7252   -0.0008 </r>
       <r>   10.3749   -0.0000 </r>
       <r>   10.3847   -0.0000 </r>
       <r>   18.0404    0.0000 </r>
       <r>   19.3863    0.0000 </r>
       <r>   23.8169    0.0000 </r>
       <r>   28.3733    0.0000 </r>
       <r>   30.0843    0.0000 </r>
       <r>   33.4159    0.0000 </r>
       <r>   34.6345    0.0000 </r>
       <r>   39.6161    0.0000 </r>
       <r>   40.8925    0.0000 </r>
       <r>   42.7131    0.0000 </r>
       <r>   46.9400    0.0000 </r>
       <r>   47.0718    0.0000 </r>
       <r>   49.3678    0.0000 </r>
       <r>   53.3587    0.0000 </r>
       <r>   55.8106    0.0000 </r>
       <r>   57.9918    0.0000 </r>
       <r>   59.2491    0.0000 </r>
       <r>   59.3706    0.0000 </r>
       <r>   62.5792    0.0000 </r>
       <r>   62.7593    0.0000 </r>
       <r>   64.1302    0.0000 </r>
       <r>   64.7324    0.0000 </r>
       <r>   65.6786    0.0000 </r>
       <r>   65.7444    0.0000 </r>
       <r>   67.0383    0.0000 </r>
       <r>   71.1045    0.0000 </r>
       <r>   72.5126    0.0000 </r>
       <r>   72.7926    0.0000 </r>
       <r>   75.0620    0.0000 </r>
      </set>
      <set comment="kpoint 10">
       <r>    3.6259    1.0000 </r>
       <r>    3.9935    1.0000 </r>
       <r>    4.0041    1.0000 </r>
       <r>    6.4484    1.0000 </r>
       <r>    6.8744    1.0000 </r>
       <r>    7.2511    1.0000 </r>
       <r>    7.4813    1.0000 </r>
       <r>    9.9690   -0.0000 </r>
       <r>   10.3819   -0.0000 </r>
       <r>   10.4305   -0.0000 </r>
       <r>   11.8698   -0.0000 </r>
       <r>   17.8491    0.0000 </r>
       <r>   20.5386    0.0000 </r>
       <r>   22.7398    0.0000 </r>
       <r>   26.8904    0.0000 </r>
       <r>   27.1051    0.0000 </r>
       <r>   30.2199    0.0000 </r>
       <r>   33.5896    0.0000 </r>
       <r>   38.6395    0.0000 </r>
       <r>   40.2529    0.0000 </r>
       <r>   43.4373    0.0000 </r>
       <r>   47.4584    0.0000 </r>
       <r>   48.6834    0.0000 </r>
       <r>   49.4901    0.0000 </r>
       <r>   56.0168    0.0000 </r>
       <r>   56.1177    0.0000 </r>
       <r>   59.0128    0.0000 </r>
       <r>   59.9879    0.0000 </r>
       <r>   61.9088    0.0000 </r>
       <r>   62.9131    0.0000 </r>
       <r>   63.2711    0.0000 </r>
       <r>   64.1831    0.0000 </r>
       <r>   64.7904    0.0000 </r>
       <r>   67.3249    0.0000 </r>
       <r>   69.2725    0.0000 </r>
       <r>   69.3188    0.0000 </r>
       <r>   69.8888    0.0000 </r>
       <r>   73.2313    0.0000 </r>
       <r>   74.5368    0.0000 </r>
       <r>   74.8141    0.0000 </r>
      </set>
      <set comment="kpoint 11">
       <r>    3.5884    1.0000 </r>
       <r>    3.8058    1.0000 </r>
       <r>    4.0100    1.0000 </r>
       <r>    6.8727    1.0000 </r>
       <r>    6.9262    1.0000 </r>
       <r>    6.9856    1.0000 </r>
       <r>    7.6464    1.0000 </r>
       <r>   10.3827   -0.0000 </r>
       <r>   10.5627   -0.0000 </r>
       <r>   10.5704   -0.0000 </r>
       <r>   13.2735   -0.0000 </r>
       <r>   15.8948    0.0000 </r>
       <r>   22.2156    0.0000 </r>
       <r>   23.4192    0.0000 </r>
       <r>   25.2885    0.0000 </r>
       <r>   26.1446    0.0000 </r>
       <r>   28.6394    0.0000 </r>
       <r>   33.2139    0.0000 </r>
       <r>   38.2081    0.0000 </r>
       <r>   40.0736    0.0000 </r>
       <r>   43.6414    0.0000 </r>
       <r>   48.1759    0.0000 </r>
       <r>   48.6921    0.0000 </r>
       <r>   50.5940    0.0000 </r>
       <r>   53.8580    0.0000 </r>
       <r>   58.3156    0.0000 </r>
       <r>   59.1165    0.0000 </r>
       <r>   61.3366    0.0000 </r>
       <r>   62.2389    0.0000 </r>
       <r>   62.8449    0.0000 </r>
       <r>   64.4651    0.0000 </r>
       <r>   64.5159    0.0000 </r>
       <r>   65.3157    0.0000 </r>
       <r>   66.5582    0.0000 </r>
       <r>   70.8309    0.0000 </r>
       <r>   71.3568    0.0000 </r>
       <r>   71.7123    0.0000 </r>
       <r>   71.9657    0.0000 </r>
       <r>   73.3683    0.0000 </r>
       <r>   75.1412    0.0000 </r>
      </set>
      <set comment="kpoint 12">
       <r>    2.9468    1.0000 </r>
       <r>    4.7485    1.0000 </r>
       <r>    4.8782    1.0000 </r>
       <r>    5.1753    1.0000 </r>
       <r>    6.8661    1.0000 </r>
       <r>    7.0541    1.0000 </r>
       <r>    7.8949    1.0000 </r>
       <r>    8.3050    1.0000 </r>
       <r>    9.7025   -0.0013 </r>
       <r>   10.2635   -0.0000 </r>
       <r>   10.4529   -0.0000 </r>
       <r>   17.7465    0.0000 </r>
       <r>   19.6611    0.0000 </r>
       <r>   25.2878    0.0000 </r>
       <r>   26.4175    0.0000 </r>
       <r>   31.3478    0.0000 </r>
       <r>   33.5730    0.0000 </r>
       <r>   35.8743    0.0000 </r>
       <r>   36.8157    0.0000 </r>
       <r>   42.5227    0.0000 </r>
       <r>   43.4451    0.0000 </r>
       <r>   48.0036    0.0000 </r>
       <r>   48.5964    0.0000 </r>
       <r>   50.3880    0.0000 </r>
       <r>   50.9674    0.0000 </r>
       <r>   53.0850    0.0000 </r>
       <r>   55.0157    0.0000 </r>
       <r>   60.4742    0.0000 </r>
       <r>   60.5264    0.0000 </r>
       <r>   61.9097    0.0000 </r>
       <r>   62.1515    0.0000 </r>
       <r>   64.2451    0.0000 </r>
       <r>   64.3517    0.0000 </r>
       <r>   65.7912    0.0000 </r>
       <r>   67.0109    0.0000 </r>
       <r>   68.0779    0.0000 </r>
       <r>   68.5510    0.0000 </r>
       <r>   72.3258    0.0000 </r>
       <r>   72.5064    0.0000 </r>
       <r>   75.6154    0.0000 </r>
      </set>
      <set comment="kpoint 13">
       <r>    4.1182    1.0000 </r>
       <r>    4.2492    1.0000 </r>
       <r>    4.5457    1.0000 </r>
       <r>    5.4700    1.0000 </r>
       <r>    6.5979    1.0000 </r>
       <r>    7.3970    1.0000 </r>
       <r>    7.4352    1.0000 </r>
       <r>    8.9780    1.0345 </r>
       <r>   10.1902   -0.0000 </r>
       <r>   10.3889   -0.0000 </r>
       <r>   11.9974   -0.0000 </r>
       <r>   19.7074    0.0000 </r>
       <r>   20.1778    0.0000 </r>
       <r>   22.6097    0.0000 </r>
       <r>   24.6332    0.0000 </r>
       <r>   28.9106    0.0000 </r>
       <r>   31.7108    0.0000 </r>
       <r>   32.4430    0.0000 </r>
       <r>   35.4726    0.0000 </r>
       <r>   43.9774    0.0000 </r>
       <r>   44.5203    0.0000 </r>
       <r>   48.5067    0.0000 </r>
       <r>   50.2561    0.0000 </r>
       <r>   51.0638    0.0000 </r>
       <r>   53.0090    0.0000 </r>
       <r>   54.4609    0.0000 </r>
       <r>   56.3458    0.0000 </r>
       <r>   58.4576    0.0000 </r>
       <r>   61.0690    0.0000 </r>
       <r>   62.4822    0.0000 </r>
       <r>   63.3568    0.0000 </r>
       <r>   64.0028    0.0000 </r>
       <r>   64.8533    0.0000 </r>
       <r>   66.8474    0.0000 </r>
       <r>   68.6389    0.0000 </r>
       <r>   69.3769    0.0000 </r>
       <r>   71.3027    0.0000 </r>
       <r>   72.8326    0.0000 </r>
       <r>   74.3950    0.0000 </r>
       <r>   75.4917    0.0000 </r>
      </set>
      <set comment="kpoint 14">
       <r>    3.9909    1.0000 </r>
       <r>    4.2010    1.0000 </r>
       <r>    4.5005    1.0000 </r>
       <r>    6.1192    1.0000 </r>
       <r>    6.6319    1.0000 </r>
       <r>    6.9683    1.0000 </r>
       <r>    7.7202    1.0000 </r>
       <r>    9.8069   -0.0001 </r>
       <r>   10.1480   -0.0000 </r>
       <r>   10.4779   -0.0000 </r>
       <r>   13.8247   -0.0000 </r>
       <r>   17.3747    0.0000 </r>
       <r>   22.6210    0.0000 </r>
       <r>   22.8329    0.0000 </r>
       <r>   24.0306    0.0000 </r>
       <r>   26.3216    0.0000 </r>
       <r>   29.4977    0.0000 </r>
       <r>   30.9087    0.0000 </r>
       <r>   34.7822    0.0000 </r>
       <r>   43.8580    0.0000 </r>
       <r>   46.0066    0.0000 </r>
       <r>   48.9797    0.0000 </r>
       <r>   50.7896    0.0000 </r>
       <r>   51.3507    0.0000 </r>
       <r>   55.0891    0.0000 </r>
       <r>   55.7691    0.0000 </r>
       <r>   57.4106    0.0000 </r>
       <r>   57.6044    0.0000 </r>
       <r>   61.1446    0.0000 </r>
       <r>   62.0728    0.0000 </r>
       <r>   63.0513    0.0000 </r>
       <r>   64.7089    0.0000 </r>
       <r>   64.9396    0.0000 </r>
       <r>   65.5888    0.0000 </r>
       <r>   69.5322    0.0000 </r>
       <r>   70.9339    0.0000 </r>
       <r>   72.8656    0.0000 </r>
       <r>   73.0795    0.0000 </r>
       <r>   74.9180    0.0000 </r>
       <r>   76.3653    0.0000 </r>
      </set>
      <set comment="kpoint 15">
       <r>    4.1199    1.0000 </r>
       <r>    4.7412    1.0000 </r>
       <r>    5.0866    1.0000 </r>
       <r>    5.2098    1.0000 </r>
       <r>    6.4336    1.0000 </r>
       <r>    7.0004    1.0000 </r>
       <r>    7.7819    1.0000 </r>
       <r>    9.3106    0.1237 </r>
       <r>   10.0296   -0.0000 </r>
       <r>   10.4545   -0.0000 </r>
       <r>   13.9834   -0.0000 </r>
       <r>   19.6592    0.0000 </r>
       <r>   20.1069    0.0000 </r>
       <r>   22.6622    0.0000 </r>
       <r>   24.1151    0.0000 </r>
       <r>   28.0593    0.0000 </r>
       <r>   28.8385    0.0000 </r>
       <r>   31.1957    0.0000 </r>
       <r>   32.1848    0.0000 </r>
       <r>   46.1399    0.0000 </r>
       <r>   47.2211    0.0000 </r>
       <r>   50.4864    0.0000 </r>
       <r>   51.5907    0.0000 </r>
       <r>   52.9011    0.0000 </r>
       <r>   53.1375    0.0000 </r>
       <r>   53.3015    0.0000 </r>
       <r>   56.2203    0.0000 </r>
       <r>   58.7543    0.0000 </r>
       <r>   59.0519    0.0000 </r>
       <r>   60.9454    0.0000 </r>
       <r>   62.7056    0.0000 </r>
       <r>   64.9004    0.0000 </r>
       <r>   65.4793    0.0000 </r>
       <r>   65.4804    0.0000 </r>
       <r>   69.6818    0.0000 </r>
       <r>   70.9546    0.0000 </r>
       <r>   71.0720    0.0000 </r>
       <r>   73.5482    0.0000 </r>
       <r>   75.9500    0.0000 </r>
       <r>   76.0532    0.0000 </r>
      </set>
      <set comment="kpoint 16">
       <r>    4.0909    1.0000 </r>
       <r>    4.8484    1.0000 </r>
       <r>    4.9775    1.0000 </r>
       <r>    5.5712    1.0000 </r>
       <r>    6.5187    1.0000 </r>
       <r>    6.6736    1.0000 </r>
       <r>    7.9714    1.0000 </r>
       <r>    9.7560   -0.0004 </r>
       <r>    9.9687   -0.0000 </r>
       <r>   10.1167   -0.0000 </r>
       <r>   15.8431    0.0000 </r>
       <r>   17.5145    0.0000 </r>
       <r>   19.7225    0.0000 </r>
       <r>   24.8222    0.0000 </r>
       <r>   25.0641    0.0000 </r>
       <r>   26.1701    0.0000 </r>
       <r>   28.1403    0.0000 </r>
       <r>   29.5929    0.0000 </r>
       <r>   31.5372    0.0000 </r>
       <r>   46.5822    0.0000 </r>
       <r>   49.2577    0.0000 </r>
       <r>   50.8616    0.0000 </r>
       <r>   51.6323    0.0000 </r>
       <r>   52.4790    0.0000 </r>
       <r>   53.9761    0.0000 </r>
       <r>   54.3442    0.0000 </r>
       <r>   57.1140    0.0000 </r>
       <r>   57.6854    0.0000 </r>
       <r>   57.9551    0.0000 </r>
       <r>   61.1435    0.0000 </r>
       <r>   62.1513    0.0000 </r>
       <r>   62.7010    0.0000 </r>
       <r>   65.3305    0.0000 </r>
       <r>   65.8957    0.0000 </r>
       <r>   69.5206    0.0000 </r>
       <r>   71.0607    0.0000 </r>
       <r>   74.1968    0.0000 </r>
       <r>   74.2155    0.0000 </r>
       <r>   74.2665    0.0000 </r>
       <r>   75.3601    0.0000 </r>
      </set>
      <set comment="kpoint 17">
       <r>   -0.6506    1.0000 </r>
       <r>    3.1023    1.0000 </r>
       <r>    6.6697    1.0000 </r>
       <r>    7.1117    1.0000 </r>
       <r>    7.1118    1.0000 </r>
       <r>    7.5963    1.0000 </r>
       <r>    7.5963    1.0000 </r>
       <r>    8.6310    1.0002 </r>
       <r>    8.6310    1.0002 </r>
       <r>    8.7032    1.0010 </r>
       <r>   10.1884   -0.0000 </r>
       <r>   10.1884   -0.0000 </r>
       <r>   19.5776    0.0000 </r>
       <r>   33.4821    0.0000 </r>
       <r>   35.7602    0.0000 </r>
       <r>   37.2537    0.0000 </r>
       <r>   40.8873    0.0000 </r>
       <r>   40.8873    0.0000 </r>
       <r>   41.4780    0.0000 </r>
       <r>   41.4781    0.0000 </r>
       <r>   44.0272    0.0000 </r>
       <r>   44.0273    0.0000 </r>
       <r>   45.3814    0.0000 </r>
       <r>   45.5943    0.0000 </r>
       <r>   48.7461    0.0000 </r>
       <r>   48.7461    0.0000 </r>
       <r>   51.6269    0.0000 </r>
       <r>   54.0994    0.0000 </r>
       <r>   54.0995    0.0000 </r>
       <r>   55.7788    0.0000 </r>
       <r>   55.7789    0.0000 </r>
       <r>   59.3487    0.0000 </r>
       <r>   65.8225    0.0000 </r>
       <r>   65.8369    0.0000 </r>
       <r>   66.6084    0.0000 </r>
       <r>   66.6087    0.0000 </r>
       <r>   70.1982    0.0000 </r>
       <r>   70.4834    0.0000 </r>
       <r>   70.4835    0.0000 </r>
       <r>   75.3097    0.0000 </r>
      </set>
      <set comment="kpoint 18">
       <r>   -0.2796    1.0000 </r>
       <r>    3.3796    1.0000 </r>
       <r>    6.5427    1.0000 </r>
       <r>    7.1355    1.0000 </r>
       <r>    7.2959    1.0000 </r>
       <r>    7.3430    1.0000 </r>
       <r>    7.7145    1.0000 </r>
       <r>    7.8072    1.0000 </r>
       <r>    8.4929    1.0000 </r>
       <r>    8.5174    1.0000 </r>
       <r>   10.2420   -0.0000 </r>
       <r>   11.5630   -0.0000 </r>
       <r>   19.6167    0.0000 </r>
       <r>   32.7505    0.0000 </r>
       <r>   35.6595    0.0000 </r>
       <r>   36.1990    0.0000 </r>
       <r>   37.7924    0.0000 </r>
       <r>   39.0130    0.0000 </r>
       <r>   40.6711    0.0000 </r>
       <r>   43.4329    0.0000 </r>
       <r>   44.4645    0.0000 </r>
       <r>   44.7600    0.0000 </r>
       <r>   45.4589    0.0000 </r>
       <r>   46.7281    0.0000 </r>
       <r>   49.7127    0.0000 </r>
       <r>   50.0452    0.0000 </r>
       <r>   51.7033    0.0000 </r>
       <r>   51.8360    0.0000 </r>
       <r>   54.7985    0.0000 </r>
       <r>   57.5915    0.0000 </r>
       <r>   58.0311    0.0000 </r>
       <r>   60.4255    0.0000 </r>
       <r>   64.2985    0.0000 </r>
       <r>   65.6273    0.0000 </r>
       <r>   65.8688    0.0000 </r>
       <r>   66.9668    0.0000 </r>
       <r>   69.0080    0.0000 </r>
       <r>   70.7674    0.0000 </r>
       <r>   72.4173    0.0000 </r>
       <r>   75.0206    0.0000 </r>
      </set>
      <set comment="kpoint 19">
       <r>    0.7512    1.0000 </r>
       <r>    4.0154    1.0000 </r>
       <r>    6.0470    1.0000 </r>
       <r>    6.1524    1.0000 </r>
       <r>    6.9927    1.0000 </r>
       <r>    7.6543    1.0000 </r>
       <r>    7.8843    1.0000 </r>
       <r>    8.2278    1.0000 </r>
       <r>    8.2850    1.0000 </r>
       <r>    8.4532    1.0000 </r>
       <r>   10.3403   -0.0000 </r>
       <r>   13.6175   -0.0000 </r>
       <r>   19.7782    0.0000 </r>
       <r>   29.5185    0.0000 </r>
       <r>   34.2488    0.0000 </r>
       <r>   34.6916    0.0000 </r>
       <r>   35.6805    0.0000 </r>
       <r>   36.4561    0.0000 </r>
       <r>   41.0313    0.0000 </r>
       <r>   42.6833    0.0000 </r>
       <r>   42.7824    0.0000 </r>
       <r>   44.7895    0.0000 </r>
       <r>   46.5076    0.0000 </r>
       <r>   49.0985    0.0000 </r>
       <r>   50.6746    0.0000 </r>
       <r>   50.9679    0.0000 </r>
       <r>   52.4183    0.0000 </r>
       <r>   55.1956    0.0000 </r>
       <r>   58.1875    0.0000 </r>
       <r>   60.0868    0.0000 </r>
       <r>   60.6781    0.0000 </r>
       <r>   61.9233    0.0000 </r>
       <r>   63.0349    0.0000 </r>
       <r>   64.4089    0.0000 </r>
       <r>   65.1089    0.0000 </r>
       <r>   66.7057    0.0000 </r>
       <r>   68.6587    0.0000 </r>
       <r>   71.3594    0.0000 </r>
       <r>   73.6730    0.0000 </r>
       <r>   74.5329    0.0000 </r>
      </set>
      <set comment="kpoint 20">
       <r>    2.1327    1.0000 </r>
       <r>    4.2617    1.0000 </r>
       <r>    4.9698    1.0000 </r>
       <r>    6.0199    1.0000 </r>
       <r>    6.8014    1.0000 </r>
       <r>    7.6696    1.0000 </r>
       <r>    7.6743    1.0000 </r>
       <r>    8.7933    1.0062 </r>
       <r>    9.0200    1.0180 </r>
       <r>    9.2728    0.2423 </r>
       <r>   10.4131   -0.0000 </r>
       <r>   15.7033    0.0000 </r>
       <r>   20.1461    0.0000 </r>
       <r>   25.5268    0.0000 </r>
       <r>   31.2329    0.0000 </r>
       <r>   31.9913    0.0000 </r>
       <r>   33.7526    0.0000 </r>
       <r>   36.1669    0.0000 </r>
       <r>   39.9508    0.0000 </r>
       <r>   41.6993    0.0000 </r>
       <r>   42.7824    0.0000 </r>
       <r>   44.8771    0.0000 </r>
       <r>   44.9968    0.0000 </r>
       <r>   49.7682    0.0000 </r>
       <r>   53.7629    0.0000 </r>
       <r>   55.3748    0.0000 </r>
       <r>   55.8322    0.0000 </r>
       <r>   57.1400    0.0000 </r>
       <r>   60.1702    0.0000 </r>
       <r>   61.4681    0.0000 </r>
       <r>   62.6744    0.0000 </r>
       <r>   63.0410    0.0000 </r>
       <r>   63.4518    0.0000 </r>
       <r>   63.9938    0.0000 </r>
       <r>   65.5426    0.0000 </r>
       <r>   67.6942    0.0000 </r>
       <r>   68.3916    0.0000 </r>
       <r>   71.8545    0.0000 </r>
       <r>   73.4297    0.0000 </r>
       <r>   75.5865    0.0000 </r>
      </set>
      <set comment="kpoint 21">
       <r>    3.1414    1.0000 </r>
       <r>    3.8754    1.0000 </r>
       <r>    4.3624    1.0000 </r>
       <r>    6.0960    1.0000 </r>
       <r>    7.2684    1.0000 </r>
       <r>    7.3639    1.0000 </r>
       <r>    7.5559    1.0000 </r>
       <r>    9.9758   -0.0000 </r>
       <r>   10.0977   -0.0000 </r>
       <r>   10.2050   -0.0000 </r>
       <r>   10.4745   -0.0000 </r>
       <r>   17.2372    0.0000 </r>
       <r>   20.3155    0.0000 </r>
       <r>   22.9784    0.0000 </r>
       <r>   28.0053    0.0000 </r>
       <r>   29.8965    0.0000 </r>
       <r>   31.3601    0.0000 </r>
       <r>   35.1817    0.0000 </r>
       <r>   38.6391    0.0000 </r>
       <r>   40.4918    0.0000 </r>
       <r>   43.8385    0.0000 </r>
       <r>   43.9989    0.0000 </r>
       <r>   46.4266    0.0000 </r>
       <r>   50.4801    0.0000 </r>
       <r>   55.6733    0.0000 </r>
       <r>   57.2452    0.0000 </r>
       <r>   59.1595    0.0000 </r>
       <r>   59.5637    0.0000 </r>
       <r>   61.2108    0.0000 </r>
       <r>   62.6222    0.0000 </r>
       <r>   63.4188    0.0000 </r>
       <r>   64.0321    0.0000 </r>
       <r>   64.8323    0.0000 </r>
       <r>   65.4961    0.0000 </r>
       <r>   65.8136    0.0000 </r>
       <r>   67.6374    0.0000 </r>
       <r>   72.2342    0.0000 </r>
       <r>   72.4104    0.0000 </r>
       <r>   73.0619    0.0000 </r>
       <r>   75.0561    0.0000 </r>
      </set>
      <set comment="kpoint 22">
       <r>    3.3452    1.0000 </r>
       <r>    3.4914    1.0000 </r>
       <r>    4.2317    1.0000 </r>
       <r>    6.2267    1.0000 </r>
       <r>    7.1868    1.0000 </r>
       <r>    7.5749    1.0000 </r>
       <r>    7.8722    1.0000 </r>
       <r>   10.3893   -0.0000 </r>
       <r>   10.5820   -0.0000 </r>
       <r>   10.7692   -0.0000 </r>
       <r>   12.1165   -0.0000 </r>
       <r>   16.0310    0.0000 </r>
       <r>   21.1223    0.0000 </r>
       <r>   23.0006    0.0000 </r>
       <r>   25.9130    0.0000 </r>
       <r>   28.7104    0.0000 </r>
       <r>   28.7907    0.0000 </r>
       <r>   34.4806    0.0000 </r>
       <r>   38.1673    0.0000 </r>
       <r>   39.5617    0.0000 </r>
       <r>   43.4349    0.0000 </r>
       <r>   45.5177    0.0000 </r>
       <r>   46.8629    0.0000 </r>
       <r>   51.5926    0.0000 </r>
       <r>   53.8950    0.0000 </r>
       <r>   58.9944    0.0000 </r>
       <r>   60.0104    0.0000 </r>
       <r>   61.6802    0.0000 </r>
       <r>   62.4716    0.0000 </r>
       <r>   63.4271    0.0000 </r>
       <r>   64.0416    0.0000 </r>
       <r>   64.4453    0.0000 </r>
       <r>   66.2522    0.0000 </r>
       <r>   67.2936    0.0000 </r>
       <r>   69.2345    0.0000 </r>
       <r>   70.0783    0.0000 </r>
       <r>   71.1669    0.0000 </r>
       <r>   72.5048    0.0000 </r>
       <r>   73.6155    0.0000 </r>
       <r>   73.8989    0.0000 </r>
      </set>
      <set comment="kpoint 23">
       <r>    0.4256    1.0000 </r>
       <r>    3.8603    1.0000 </r>
       <r>    6.2055    1.0000 </r>
       <r>    6.4175    1.0000 </r>
       <r>    7.2587    1.0000 </r>
       <r>    7.3037    1.0000 </r>
       <r>    7.8034    1.0000 </r>
       <r>    8.0383    1.0000 </r>
       <r>    8.3484    1.0000 </r>
       <r>    8.5196    1.0000 </r>
       <r>   10.2847   -0.0000 </r>
       <r>   13.0636   -0.0000 </r>
       <r>   19.7201    0.0000 </r>
       <r>   31.0518    0.0000 </r>
       <r>   32.9468    0.0000 </r>
       <r>   35.9792    0.0000 </r>
       <r>   36.3862    0.0000 </r>
       <r>   38.7060    0.0000 </r>
       <r>   39.3580    0.0000 </r>
       <r>   41.2446    0.0000 </r>
       <r>   44.1603    0.0000 </r>
       <r>   47.3213    0.0000 </r>
       <r>   47.5917    0.0000 </r>
       <r>   48.0169    0.0000 </r>
       <r>   48.2994    0.0000 </r>
       <r>   50.4962    0.0000 </r>
       <r>   50.5550    0.0000 </r>
       <r>   55.1656    0.0000 </r>
       <r>   57.9458    0.0000 </r>
       <r>   59.1701    0.0000 </r>
       <r>   59.7062    0.0000 </r>
       <r>   61.7303    0.0000 </r>
       <r>   62.4140    0.0000 </r>
       <r>   65.2126    0.0000 </r>
       <r>   65.9957    0.0000 </r>
       <r>   66.6508    0.0000 </r>
       <r>   67.8321    0.0000 </r>
       <r>   71.8192    0.0000 </r>
       <r>   73.2702    0.0000 </r>
       <r>   74.5807    0.0000 </r>
      </set>
      <set comment="kpoint 24">
       <r>    1.6726    1.0000 </r>
       <r>    4.4460    1.0000 </r>
       <r>    5.3506    1.0000 </r>
       <r>    5.7717    1.0000 </r>
       <r>    6.9063    1.0000 </r>
       <r>    7.3639    1.0000 </r>
       <r>    8.0054    1.0000 </r>
       <r>    8.1689    1.0000 </r>
       <r>    8.8299    1.0111 </r>
       <r>    9.1847    0.5993 </r>
       <r>   10.3286   -0.0000 </r>
       <r>   15.0185    0.0000 </r>
       <r>   20.0393    0.0000 </r>
       <r>   27.5426    0.0000 </r>
       <r>   30.3539    0.0000 </r>
       <r>   33.0670    0.0000 </r>
       <r>   35.4989    0.0000 </r>
       <r>   36.9371    0.0000 </r>
       <r>   40.2782    0.0000 </r>
       <r>   40.4946    0.0000 </r>
       <r>   42.6066    0.0000 </r>
       <r>   46.2025    0.0000 </r>
       <r>   48.1484    0.0000 </r>
       <r>   48.8110    0.0000 </r>
       <r>   51.1413    0.0000 </r>
       <r>   51.8566    0.0000 </r>
       <r>   53.8589    0.0000 </r>
       <r>   58.4915    0.0000 </r>
       <r>   59.8365    0.0000 </r>
       <r>   61.6095    0.0000 </r>
       <r>   61.8969    0.0000 </r>
       <r>   62.5728    0.0000 </r>
       <r>   62.9129    0.0000 </r>
       <r>   64.5774    0.0000 </r>
       <r>   65.6467    0.0000 </r>
       <r>   66.3971    0.0000 </r>
       <r>   67.7589    0.0000 </r>
       <r>   72.5056    0.0000 </r>
       <r>   73.9759    0.0000 </r>
       <r>   74.3841    0.0000 </r>
      </set>
      <set comment="kpoint 25">
       <r>    2.9918    1.0000 </r>
       <r>    4.3085    1.0000 </r>
       <r>    4.5659    1.0000 </r>
       <r>    5.8319    1.0000 </r>
       <r>    6.8798    1.0000 </r>
       <r>    7.2977    1.0000 </r>
       <r>    7.6826    1.0000 </r>
       <r>    8.9116    1.0284 </r>
       <r>    9.7611   -0.0003 </r>
       <r>   10.1598   -0.0000 </r>
       <r>   10.5246   -0.0000 </r>
       <r>   16.9330    0.0000 </r>
       <r>   20.5766    0.0000 </r>
       <r>   23.9117    0.0000 </r>
       <r>   28.4450    0.0000 </r>
       <r>   29.7673    0.0000 </r>
       <r>   33.6717    0.0000 </r>
       <r>   34.5592    0.0000 </r>
       <r>   39.8748    0.0000 </r>
       <r>   40.7140    0.0000 </r>
       <r>   42.0345    0.0000 </r>
       <r>   45.9826    0.0000 </r>
       <r>   48.1434    0.0000 </r>
       <r>   50.3394    0.0000 </r>
       <r>   53.2849    0.0000 </r>
       <r>   55.0028    0.0000 </r>
       <r>   57.6006    0.0000 </r>
       <r>   58.9445    0.0000 </r>
       <r>   60.7130    0.0000 </r>
       <r>   61.8052    0.0000 </r>
       <r>   63.4203    0.0000 </r>
       <r>   63.8290    0.0000 </r>
       <r>   64.6676    0.0000 </r>
       <r>   65.3500    0.0000 </r>
       <r>   66.2054    0.0000 </r>
       <r>   67.2375    0.0000 </r>
       <r>   70.8311    0.0000 </r>
       <r>   72.2807    0.0000 </r>
       <r>   73.4057    0.0000 </r>
       <r>   74.4902    0.0000 </r>
      </set>
      <set comment="kpoint 26">
       <r>    3.5165    1.0000 </r>
       <r>    3.8365    1.0000 </r>
       <r>    4.3581    1.0000 </r>
       <r>    6.0510    1.0000 </r>
       <r>    7.0531    1.0000 </r>
       <r>    7.4751    1.0000 </r>
       <r>    7.5521    1.0000 </r>
       <r>    9.9469   -0.0000 </r>
       <r>   10.2895   -0.0000 </r>
       <r>   10.4546   -0.0000 </r>
       <r>   11.8495   -0.0000 </r>
       <r>   17.3507    0.0000 </r>
       <r>   20.6748    0.0000 </r>
       <r>   23.1131    0.0000 </r>
       <r>   26.6128    0.0000 </r>
       <r>   27.2975    0.0000 </r>
       <r>   30.6433    0.0000 </r>
       <r>   33.4258    0.0000 </r>
       <r>   38.7883    0.0000 </r>
       <r>   40.2371    0.0000 </r>
       <r>   42.9916    0.0000 </r>
       <r>   46.2817    0.0000 </r>
       <r>   48.7391    0.0000 </r>
       <r>   51.1386    0.0000 </r>
       <r>   54.7787    0.0000 </r>
       <r>   56.5856    0.0000 </r>
       <r>   58.4811    0.0000 </r>
       <r>   60.9473    0.0000 </r>
       <r>   62.1913    0.0000 </r>
       <r>   62.8953    0.0000 </r>
       <r>   63.1680    0.0000 </r>
       <r>   64.1713    0.0000 </r>
       <r>   64.7674    0.0000 </r>
       <r>   67.1085    0.0000 </r>
       <r>   68.8236    0.0000 </r>
       <r>   69.9330    0.0000 </r>
       <r>   70.3037    0.0000 </r>
       <r>   72.9364    0.0000 </r>
       <r>   73.6260    0.0000 </r>
       <r>   75.7411    0.0000 </r>
      </set>
      <set comment="kpoint 27">
       <r>    3.5302    1.0000 </r>
       <r>    3.6166    1.0000 </r>
       <r>    4.3610    1.0000 </r>
       <r>    6.1778    1.0000 </r>
       <r>    6.9694    1.0000 </r>
       <r>    7.6526    1.0000 </r>
       <r>    7.7073    1.0000 </r>
       <r>   10.2800   -0.0000 </r>
       <r>   10.5559   -0.0000 </r>
       <r>   10.5866   -0.0000 </r>
       <r>   13.1933   -0.0000 </r>
       <r>   15.7946    0.0000 </r>
       <r>   22.0277    0.0000 </r>
       <r>   22.9023    0.0000 </r>
       <r>   25.9716    0.0000 </r>
       <r>   26.3464    0.0000 </r>
       <r>   28.9541    0.0000 </r>
       <r>   33.0473    0.0000 </r>
       <r>   38.3291    0.0000 </r>
       <r>   40.0605    0.0000 </r>
       <r>   43.3544    0.0000 </r>
       <r>   46.7374    0.0000 </r>
       <r>   48.4737    0.0000 </r>
       <r>   52.6882    0.0000 </r>
       <r>   53.3437    0.0000 </r>
       <r>   57.4533    0.0000 </r>
       <r>   59.5468    0.0000 </r>
       <r>   61.4034    0.0000 </r>
       <r>   62.5781    0.0000 </r>
       <r>   62.9510    0.0000 </r>
       <r>   64.2977    0.0000 </r>
       <r>   64.3448    0.0000 </r>
       <r>   65.6842    0.0000 </r>
       <r>   66.7140    0.0000 </r>
       <r>   69.9322    0.0000 </r>
       <r>   71.1103    0.0000 </r>
       <r>   71.6878    0.0000 </r>
       <r>   72.3570    0.0000 </r>
       <r>   73.9433    0.0000 </r>
       <r>   75.1021    0.0000 </r>
      </set>
      <set comment="kpoint 28">
       <r>    2.9785    1.0000 </r>
       <r>    4.6708    1.0000 </r>
       <r>    4.9630    1.0000 </r>
       <r>    5.2021    1.0000 </r>
       <r>    6.8585    1.0000 </r>
       <r>    7.0487    1.0000 </r>
       <r>    7.8445    1.0000 </r>
       <r>    8.3653    1.0000 </r>
       <r>    9.7591   -0.0003 </r>
       <r>   10.0834   -0.0000 </r>
       <r>   10.5693   -0.0000 </r>
       <r>   16.7955    0.0000 </r>
       <r>   20.7230    0.0000 </r>
       <r>   25.3715    0.0000 </r>
       <r>   26.5156    0.0000 </r>
       <r>   31.0404    0.0000 </r>
       <r>   33.1270    0.0000 </r>
       <r>   36.3218    0.0000 </r>
       <r>   37.2587    0.0000 </r>
       <r>   41.4183    0.0000 </r>
       <r>   43.7257    0.0000 </r>
       <r>   47.9174    0.0000 </r>
       <r>   49.1698    0.0000 </r>
       <r>   50.2772    0.0000 </r>
       <r>   50.6089    0.0000 </r>
       <r>   53.8489    0.0000 </r>
       <r>   54.9819    0.0000 </r>
       <r>   59.5916    0.0000 </r>
       <r>   60.5743    0.0000 </r>
       <r>   61.8218    0.0000 </r>
       <r>   63.2063    0.0000 </r>
       <r>   64.1713    0.0000 </r>
       <r>   64.2912    0.0000 </r>
       <r>   65.6656    0.0000 </r>
       <r>   66.2698    0.0000 </r>
       <r>   68.4866    0.0000 </r>
       <r>   68.8063    0.0000 </r>
       <r>   72.7162    0.0000 </r>
       <r>   72.8369    0.0000 </r>
       <r>   74.9884    0.0000 </r>
      </set>
      <set comment="kpoint 29">
       <r>    3.9864    1.0000 </r>
       <r>    4.3633    1.0000 </r>
       <r>    4.5866    1.0000 </r>
       <r>    5.4621    1.0000 </r>
       <r>    6.6614    1.0000 </r>
       <r>    7.3148    1.0000 </r>
       <r>    7.5018    1.0000 </r>
       <r>    8.9996    1.0291 </r>
       <r>   10.0822   -0.0000 </r>
       <r>   10.4330   -0.0000 </r>
       <r>   12.0298   -0.0000 </r>
       <r>   18.4146    0.0000 </r>
       <r>   21.3059    0.0000 </r>
       <r>   22.9184    0.0000 </r>
       <r>   24.7351    0.0000 </r>
       <r>   28.5687    0.0000 </r>
       <r>   31.2861    0.0000 </r>
       <r>   32.9724    0.0000 </r>
       <r>   35.9665    0.0000 </r>
       <r>   42.9741    0.0000 </r>
       <r>   44.5728    0.0000 </r>
       <r>   48.2832    0.0000 </r>
       <r>   50.4254    0.0000 </r>
       <r>   51.3960    0.0000 </r>
       <r>   52.9933    0.0000 </r>
       <r>   53.9369    0.0000 </r>
       <r>   57.1277    0.0000 </r>
       <r>   58.6685    0.0000 </r>
       <r>   60.7818    0.0000 </r>
       <r>   62.9541    0.0000 </r>
       <r>   63.4072    0.0000 </r>
       <r>   64.0027    0.0000 </r>
       <r>   64.7891    0.0000 </r>
       <r>   66.8161    0.0000 </r>
       <r>   68.4799    0.0000 </r>
       <r>   69.7240    0.0000 </r>
       <r>   70.9880    0.0000 </r>
       <r>   73.1099    0.0000 </r>
       <r>   74.6011    0.0000 </r>
       <r>   75.4729    0.0000 </r>
      </set>
      <set comment="kpoint 30">
       <r>    3.8732    1.0000 </r>
       <r>    4.2386    1.0000 </r>
       <r>    4.6859    1.0000 </r>
       <r>    5.8628    1.0000 </r>
       <r>    6.6775    1.0000 </r>
       <r>    7.0970    1.0000 </r>
       <r>    7.7867    1.0000 </r>
       <r>    9.8098   -0.0001 </r>
       <r>   10.0401   -0.0000 </r>
       <r>   10.5066   -0.0000 </r>
       <r>   13.8493   -0.0000 </r>
       <r>   17.2727    0.0000 </r>
       <r>   21.8985    0.0000 </r>
       <r>   23.4197    0.0000 </r>
       <r>   23.9654    0.0000 </r>
       <r>   26.5727    0.0000 </r>
       <r>   29.9564    0.0000 </r>
       <r>   30.5313    0.0000 </r>
       <r>   35.3050    0.0000 </r>
       <r>   43.6679    0.0000 </r>
       <r>   45.3282    0.0000 </r>
       <r>   47.6343    0.0000 </r>
       <r>   51.4995    0.0000 </r>
       <r>   52.2378    0.0000 </r>
       <r>   54.6503    0.0000 </r>
       <r>   55.4834    0.0000 </r>
       <r>   57.0855    0.0000 </r>
       <r>   59.0713    0.0000 </r>
       <r>   61.4871    0.0000 </r>
       <r>   61.8759    0.0000 </r>
       <r>   63.2731    0.0000 </r>
       <r>   64.5388    0.0000 </r>
       <r>   64.9425    0.0000 </r>
       <r>   65.8717    0.0000 </r>
       <r>   69.5630    0.0000 </r>
       <r>   70.8165    0.0000 </r>
       <r>   72.6984    0.0000 </r>
       <r>   73.2320    0.0000 </r>
       <r>   74.3578    0.0000 </r>
       <r>   76.3480    0.0000 </r>
      </set>
      <set comment="kpoint 31">
       <r>    4.1214    1.0000 </r>
       <r>    4.7633    1.0000 </r>
       <r>    5.1252    1.0000 </r>
       <r>    5.1496    1.0000 </r>
       <r>    6.5275    1.0000 </r>
       <r>    6.9228    1.0000 </r>
       <r>    7.7918    1.0000 </r>
       <r>    9.3432    0.0494 </r>
       <r>    9.9162   -0.0000 </r>
       <r>   10.4890   -0.0000 </r>
       <r>   14.0389   -0.0000 </r>
       <r>   19.3220    0.0000 </r>
       <r>   20.1991    0.0000 </r>
       <r>   22.4770    0.0000 </r>
       <r>   24.6318    0.0000 </r>
       <r>   27.8160    0.0000 </r>
       <r>   28.3600    0.0000 </r>
       <r>   31.7695    0.0000 </r>
       <r>   32.7754    0.0000 </r>
       <r>   44.8975    0.0000 </r>
       <r>   47.4322    0.0000 </r>
       <r>   50.0851    0.0000 </r>
       <r>   50.5437    0.0000 </r>
       <r>   52.2959    0.0000 </r>
       <r>   53.4793    0.0000 </r>
       <r>   55.0209    0.0000 </r>
       <r>   56.9596    0.0000 </r>
       <r>   58.6468    0.0000 </r>
       <r>   59.1624    0.0000 </r>
       <r>   61.0719    0.0000 </r>
       <r>   62.9182    0.0000 </r>
       <r>   64.6818    0.0000 </r>
       <r>   65.4042    0.0000 </r>
       <r>   65.7649    0.0000 </r>
       <r>   69.6795    0.0000 </r>
       <r>   70.8899    0.0000 </r>
       <r>   70.9044    0.0000 </r>
       <r>   73.7894    0.0000 </r>
       <r>   75.8876    0.0000 </r>
       <r>   75.9595    0.0000 </r>
      </set>
      <set comment="kpoint 32">
       <r>    4.1106    1.0000 </r>
       <r>    4.8769    1.0000 </r>
       <r>    5.0061    1.0000 </r>
       <r>    5.5064    1.0000 </r>
       <r>    6.5055    1.0000 </r>
       <r>    6.6880    1.0000 </r>
       <r>    7.9778    1.0000 </r>
       <r>    9.7832   -0.0002 </r>
       <r>    9.8494   -0.0000 </r>
       <r>   10.1499   -0.0000 </r>
       <r>   15.9445    0.0000 </r>
       <r>   17.5071    0.0000 </r>
       <r>   19.7397    0.0000 </r>
       <r>   24.2305    0.0000 </r>
       <r>   24.5613    0.0000 </r>
       <r>   26.8916    0.0000 </r>
       <r>   27.9433    0.0000 </r>
       <r>   30.0779    0.0000 </r>
       <r>   32.1378    0.0000 </r>
       <r>   45.7810    0.0000 </r>
       <r>   48.1845    0.0000 </r>
       <r>   50.0079    0.0000 </r>
       <r>   51.1017    0.0000 </r>
       <r>   53.3090    0.0000 </r>
       <r>   54.5195    0.0000 </r>
       <r>   55.5058    0.0000 </r>
       <r>   57.1643    0.0000 </r>
       <r>   57.7279    0.0000 </r>
       <r>   58.7205    0.0000 </r>
       <r>   60.9095    0.0000 </r>
       <r>   62.0705    0.0000 </r>
       <r>   63.0398    0.0000 </r>
       <r>   65.2657    0.0000 </r>
       <r>   65.7992    0.0000 </r>
       <r>   69.4998    0.0000 </r>
       <r>   71.0139    0.0000 </r>
       <r>   73.6264    0.0000 </r>
       <r>   74.0326    0.0000 </r>
       <r>   74.8075    0.0000 </r>
       <r>   75.9619    0.0000 </r>
      </set>
      <set comment="kpoint 33">
       <r>   -0.3582    1.0000 </r>
       <r>    3.0665    1.0000 </r>
       <r>    6.5719    1.0000 </r>
       <r>    7.0659    1.0000 </r>
       <r>    7.0659    1.0000 </r>
       <r>    7.5112    1.0000 </r>
       <r>    7.5113    1.0000 </r>
       <r>    8.0222    1.0000 </r>
       <r>    8.8080    1.0080 </r>
       <r>    8.8081    1.0080 </r>
       <r>   10.1568   -0.0000 </r>
       <r>   10.1568   -0.0000 </r>
       <r>   20.7119    0.0000 </r>
       <r>   32.9052    0.0000 </r>
       <r>   35.2001    0.0000 </r>
       <r>   36.6888    0.0000 </r>
       <r>   40.9592    0.0000 </r>
       <r>   40.9592    0.0000 </r>
       <r>   41.4772    0.0000 </r>
       <r>   41.4773    0.0000 </r>
       <r>   43.9845    0.0000 </r>
[...]
       <r>   26.0904    0.0000 </r>
       <r>   26.9301    0.0000 </r>
       <r>   32.3319    0.0000 </r>
       <r>   33.6129    0.0000 </r>
       <r>   38.5140    0.0000 </r>
       <r>   39.6348    0.0000 </r>
       <r>   41.7291    0.0000 </r>
       <r>   43.3807    0.0000 </r>
       <r>   48.5694    0.0000 </r>
       <r>   49.0431    0.0000 </r>
       <r>   58.3480    0.0000 </r>
       <r>   58.8778    0.0000 </r>
       <r>   60.2799    0.0000 </r>
       <r>   61.9077    0.0000 </r>
       <r>   62.2825    0.0000 </r>
       <r>   62.6890    0.0000 </r>
       <r>   64.4784    0.0000 </r>
       <r>   64.7986    0.0000 </r>
       <r>   66.7794    0.0000 </r>
       <r>   67.3822    0.0000 </r>
       <r>   69.2619    0.0000 </r>
       <r>   70.0261    0.0000 </r>
       <r>   71.8539    0.0000 </r>
       <r>   72.8033    0.0000 </r>
       <r>   73.4392    0.0000 </r>
       <r>   75.0835    0.0000 </r>
      </set>
      <set comment="kpoint 95">
       <r>    4.2546    1.0000 </r>
       <r>    4.3452    1.0000 </r>
       <r>    5.5313    1.0000 </r>
       <r>    5.8006    1.0000 </r>
       <r>    6.3268    1.0000 </r>
       <r>    6.6128    1.0000 </r>
       <r>    8.1046    1.0000 </r>
       <r>    8.3642    1.0000 </r>
       <r>   10.3140   -0.0000 </r>
       <r>   10.5439   -0.0000 </r>
       <r>   15.1565    0.0000 </r>
       <r>   15.7627    0.0000 </r>
       <r>   22.0116    0.0000 </r>
       <r>   22.5339    0.0000 </r>
       <r>   24.3862    0.0000 </r>
       <r>   24.8656    0.0000 </r>
       <r>   32.5837    0.0000 </r>
       <r>   34.4378    0.0000 </r>
       <r>   38.4699    0.0000 </r>
       <r>   40.1661    0.0000 </r>
       <r>   41.5321    0.0000 </r>
       <r>   42.9317    0.0000 </r>
       <r>   50.1973    0.0000 </r>
       <r>   50.6512    0.0000 </r>
       <r>   55.8646    0.0000 </r>
       <r>   55.8829    0.0000 </r>
       <r>   62.1858    0.0000 </r>
       <r>   62.6686    0.0000 </r>
       <r>   63.2024    0.0000 </r>
       <r>   63.8549    0.0000 </r>
       <r>   64.7045    0.0000 </r>
       <r>   64.8732    0.0000 </r>
       <r>   65.7685    0.0000 </r>
       <r>   66.8221    0.0000 </r>
       <r>   69.5529    0.0000 </r>
       <r>   70.2048    0.0000 </r>
       <r>   70.8742    0.0000 </r>
       <r>   70.8994    0.0000 </r>
       <r>   72.3532    0.0000 </r>
       <r>   74.9281    0.0000 </r>
      </set>
      <set comment="kpoint 96">
       <r>    4.4880    1.0000 </r>
       <r>    4.6665    1.0000 </r>
       <r>    5.3872    1.0000 </r>
       <r>    5.4629    1.0000 </r>
       <r>    6.4013    1.0000 </r>
       <r>    6.5399    1.0000 </r>
       <r>    8.2091    1.0000 </r>
       <r>    8.4059    1.0000 </r>
       <r>   10.2670   -0.0000 </r>
       <r>   10.3544   -0.0000 </r>
       <r>   17.1304    0.0000 </r>
       <r>   17.2937    0.0000 </r>
       <r>   20.2690    0.0000 </r>
       <r>   20.7028    0.0000 </r>
       <r>   23.7372    0.0000 </r>
       <r>   24.1976    0.0000 </r>
       <r>   34.2160    0.0000 </r>
       <r>   35.3608    0.0000 </r>
       <r>   37.8020    0.0000 </r>
       <r>   37.9058    0.0000 </r>
       <r>   41.3826    0.0000 </r>
       <r>   42.3288    0.0000 </r>
       <r>   51.6707    0.0000 </r>
       <r>   52.3812    0.0000 </r>
       <r>   56.3340    0.0000 </r>
       <r>   56.7538    0.0000 </r>
       <r>   60.4732    0.0000 </r>
       <r>   60.8064    0.0000 </r>
       <r>   64.0139    0.0000 </r>
       <r>   64.6713    0.0000 </r>
       <r>   64.8741    0.0000 </r>
       <r>   64.9506    0.0000 </r>
       <r>   66.2670    0.0000 </r>
       <r>   66.8311    0.0000 </r>
       <r>   68.4051    0.0000 </r>
       <r>   69.2952    0.0000 </r>
       <r>   72.1254    0.0000 </r>
       <r>   74.1631    0.0000 </r>
       <r>   74.3230    0.0000 </r>
       <r>   75.6117    0.0000 </r>
      </set>
     </set>
    </set>
   </array>
  </eigenvalues>
  <separator name="orbital magnetization" >
   <v name="MAGDIPOLOUT">      0.00000000      0.00000000      0.00000000</v>
  </separator>
  <dos>
   <i name="efermi">      9.20834464 </i>
   <total>
    <array>
     <dimension dim="1">gridpoints</dimension>
     <dimension dim="2">spin</dimension>
     <field>energy</field>
     <field>total</field>
     <field>integrated</field>
     <set>
      <set comment="spin 1">
       <r>    -4.6342     0.0000     0.0000 </r>
       <r>    -4.3493     0.0000     0.0000 </r>
       <r>    -4.0645     0.0000     0.0000 </r>
       <r>    -3.7796     0.0000     0.0000 </r>
       <r>    -3.4948     0.0000     0.0000 </r>
       <r>    -3.2099     0.0000     0.0000 </r>
       <r>    -2.9251     0.0000     0.0000 </r>
       <r>    -2.6402     0.0000     0.0000 </r>
       <r>    -2.3554    -0.0000    -0.0000 </r>
       <r>    -2.0705    -0.0000    -0.0000 </r>
       <r>    -1.7856    -0.0000    -0.0000 </r>
       <r>    -1.5008    -0.0000    -0.0000 </r>
       <r>    -1.2159    -0.0000    -0.0000 </r>
       <r>    -0.9311    -0.0004    -0.0001 </r>
       <r>    -0.6462     0.0083     0.0023 </r>
       <r>    -0.3614     0.0420     0.0142 </r>
       <r>    -0.0765     0.0858     0.0386 </r>
       <r>     0.2083     0.0574     0.0550 </r>
       <r>     0.4932     0.1186     0.0888 </r>
       <r>     0.7781     0.1672     0.1364 </r>
       <r>     1.0629     0.1460     0.1780 </r>
       <r>     1.3478     0.1065     0.2083 </r>
       <r>     1.6326     0.1636     0.2549 </r>
       <r>     1.9175     0.3274     0.3482 </r>
       <r>     2.2023     0.2486     0.4190 </r>
       <r>     2.4872     0.2970     0.5036 </r>
       <r>     2.7720     0.1971     0.5598 </r>
       <r>     3.0569     0.9084     0.8185 </r>
       <r>     3.3418     1.8227     1.3377 </r>
       <r>     3.6266     1.6515     1.8082 </r>
       <r>     3.9115     2.5250     2.5274 </r>
       <r>     4.1963     2.2077     3.1563 </r>
       <r>     4.4812     2.4928     3.8663 </r>
       <r>     4.7660     1.7031     4.3515 </r>
       <r>     5.0509     2.4048     5.0365 </r>
       <r>     5.3357     2.5214     5.7548 </r>
       <r>     5.6206     2.5479     6.4805 </r>
       <r>     5.9055     2.3875     7.1607 </r>
       <r>     6.1903     1.6022     7.6170 </r>
       <r>     6.4752     1.9468     8.1716 </r>
       <r>     6.7600     3.0206     9.0320 </r>
       <r>     7.0449     3.1745     9.9363 </r>
       <r>     7.3297     3.1495    10.8335 </r>
       <r>     7.6146     3.1637    11.7347 </r>
       <r>     7.8994     3.7903    12.8144 </r>
       <r>     8.1843     2.8710    13.6322 </r>
       <r>     8.4692     2.2343    14.2686 </r>
       <r>     8.7540     2.0987    14.8665 </r>
       <r>     9.0389     2.5717    15.5990 </r>
       <r>     9.3237     2.1602    16.2144 </r>
       <r>     9.6086     1.5385    16.6526 </r>
       <r>     9.8934     3.0326    17.5165 </r>
       <r>    10.1783     3.9188    18.6328 </r>
       <r>    10.4631     4.1812    19.8238 </r>
       <r>    10.7480     3.8828    20.9299 </r>
       <r>    11.0329     0.9436    21.1987 </r>
       <r>    11.3177     0.1966    21.2547 </r>
       <r>    11.6026     0.1181    21.2883 </r>
       <r>    11.8874     1.0182    21.5784 </r>
       <r>    12.1723     0.6725    21.7700 </r>
       <r>    12.4571     0.3884    21.8806 </r>
       <r>    12.7420     0.3218    21.9722 </r>
       <r>    13.0268     0.6425    22.1553 </r>
       <r>    13.3117     0.3237    22.2475 </r>
       <r>    13.5966     0.1685    22.2955 </r>
       <r>    13.8814     0.4158    22.4139 </r>
       <r>    14.1663     0.7869    22.6381 </r>
       <r>    14.4511     0.4559    22.7680 </r>
       <r>    14.7360     0.2905    22.8507 </r>
       <r>    15.0208     0.1868    22.9039 </r>
       <r>    15.3057     0.3867    23.0141 </r>
       <r>    15.5905     0.3860    23.1240 </r>
       <r>    15.8754     0.5054    23.2680 </r>
       <r>    16.1603     0.1931    23.3230 </r>
       <r>    16.4451     0.3083    23.4108 </r>
       <r>    16.7300     0.1797    23.4620 </r>
       <r>    17.0148     0.4081    23.5782 </r>
       <r>    17.2997     0.3724    23.6843 </r>
       <r>    17.5845     0.5399    23.8381 </r>
       <r>    17.8694     0.1000    23.8666 </r>
       <r>    18.1542     0.0789    23.8891 </r>
       <r>    18.4391     0.1028    23.9184 </r>
       <r>    18.7240     0.1256    23.9541 </r>
       <r>    19.0088     0.0192    23.9596 </r>
       <r>    19.2937     0.1823    24.0115 </r>
       <r>    19.5785     0.2024    24.0692 </r>
       <r>    19.8634     0.4310    24.1920 </r>
       <r>    20.1482     0.3465    24.2907 </r>
       <r>    20.4331     0.2846    24.3718 </r>
       <r>    20.7179     0.4100    24.4885 </r>
       <r>    21.0028     0.9152    24.7492 </r>
       <r>    21.2877     0.8134    24.9809 </r>
       <r>    21.5725     0.6389    25.1629 </r>
       <r>    21.8574     0.4196    25.2824 </r>
       <r>    22.1422     0.5809    25.4479 </r>
       <r>    22.4271     0.5574    25.6067 </r>
       <r>    22.7119     0.7691    25.8258 </r>
       <r>    22.9968     0.7758    26.0468 </r>
       <r>    23.2816     0.5370    26.1997 </r>
       <r>    23.5665     0.5333    26.3516 </r>
       <r>    23.8514     0.8123    26.5830 </r>
       <r>    24.1362     0.7128    26.7861 </r>
       <r>    24.4211     0.5490    26.9425 </r>
       <r>    24.7059     0.6999    27.1418 </r>
       <r>    24.9908     0.6304    27.3214 </r>
       <r>    25.2756     0.6408    27.5039 </r>
       <r>    25.5605     0.5717    27.6668 </r>
       <r>    25.8453     0.3767    27.7741 </r>
       <r>    26.1302     0.5960    27.9438 </r>
       <r>    26.4151     0.4835    28.0816 </r>
       <r>    26.6999     0.6721    28.2730 </r>
       <r>    26.9848     0.7100    28.4753 </r>
       <r>    27.2696     0.4699    28.6091 </r>
       <r>    27.5545     0.7026    28.8093 </r>
       <r>    27.8393     1.0395    29.1054 </r>
       <r>    28.1242     0.7904    29.3305 </r>
       <r>    28.4090     0.5426    29.4851 </r>
       <r>    28.6939     1.0127    29.7736 </r>
       <r>    28.9788     0.6652    29.9631 </r>
       <r>    29.2636     0.7565    30.1786 </r>
       <r>    29.5485     0.9013    30.4353 </r>
       <r>    29.8333     0.7685    30.6543 </r>
       <r>    30.1182     0.6812    30.8483 </r>
       <r>    30.4030     1.0706    31.1533 </r>
       <r>    30.6879     1.0578    31.4546 </r>
       <r>    30.9727     0.6184    31.6307 </r>
       <r>    31.2576     1.0150    31.9199 </r>
       <r>    31.5425     0.7495    32.1333 </r>
       <r>    31.8273     0.4812    32.2704 </r>
       <r>    32.1122     0.9481    32.5405 </r>
       <r>    32.3970     0.9153    32.8012 </r>
       <r>    32.6819     0.9921    33.0838 </r>
       <r>    32.9667     0.8132    33.3155 </r>
       <r>    33.2516     0.8767    33.5652 </r>
       <r>    33.5364     0.9167    33.8263 </r>
       <r>    33.8213     0.9087    34.0852 </r>
       <r>    34.1062     0.5009    34.2278 </r>
       <r>    34.3910     0.3475    34.3268 </r>
       <r>    34.6759     0.8065    34.5566 </r>
       <r>    34.9607     0.8334    34.7940 </r>
       <r>    35.2456     0.7880    35.0184 </r>
       <r>    35.5304     0.7831    35.2415 </r>
       <r>    35.8153     0.4951    35.3825 </r>
       <r>    36.1001     0.7365    35.5923 </r>
       <r>    36.3850     0.7230    35.7982 </r>
       <r>    36.6699     0.6370    35.9797 </r>
       <r>    36.9547     0.3587    36.0819 </r>
       <r>    37.2396     0.4938    36.2225 </r>
       <r>    37.5244     0.2944    36.3064 </r>
       <r>    37.8093     0.7058    36.5074 </r>
       <r>    38.0941     0.9102    36.7667 </r>
       <r>    38.3790     0.7425    36.9782 </r>
       <r>    38.6638     1.0739    37.2842 </r>
       <r>    38.9487     1.1252    37.6047 </r>
       <r>    39.2336     0.3738    37.7111 </r>
       <r>    39.5184     0.8028    37.9398 </r>
       <r>    39.8033     0.4518    38.0685 </r>
       <r>    40.0881     1.1264    38.3894 </r>
       <r>    40.3730     1.1611    38.7201 </r>
       <r>    40.6578     0.7031    38.9204 </r>
       <r>    40.9427     0.8108    39.1514 </r>
       <r>    41.2275     0.6388    39.3334 </r>
       <r>    41.5124     0.7376    39.5435 </r>
       <r>    41.7973     0.7430    39.7551 </r>
       <r>    42.0821     0.7020    39.9551 </r>
       <r>    42.3670     0.7208    40.1604 </r>
       <r>    42.6518     0.7002    40.3598 </r>
       <r>    42.9367     1.1230    40.6797 </r>
       <r>    43.2215     0.7223    40.8855 </r>
       <r>    43.5064     0.6302    41.0650 </r>
       <r>    43.7912     0.7236    41.2711 </r>
       <r>    44.0761     0.6835    41.4658 </r>
       <r>    44.3610     0.9282    41.7302 </r>
       <r>    44.6458     0.8848    41.9823 </r>
       <r>    44.9307     0.9150    42.2429 </r>
       <r>    45.2155     0.8627    42.4887 </r>
       <r>    45.5004     0.5730    42.6519 </r>
       <r>    45.7852     0.8253    42.8870 </r>
       <r>    46.0701     0.9663    43.1622 </r>
       <r>    46.3549     1.0780    43.4693 </r>
       <r>    46.6398     0.4322    43.5924 </r>
       <r>    46.9247     0.7552    43.8075 </r>
       <r>    47.2095     0.5035    43.9509 </r>
       <r>    47.4944     0.7510    44.1649 </r>
       <r>    47.7792     0.7760    44.3859 </r>
       <r>    48.0641     0.6102    44.5597 </r>
       <r>    48.3489     1.0166    44.8493 </r>
       <r>    48.6338     1.0880    45.1593 </r>
       <r>    48.9186     1.3019    45.5301 </r>
       <r>    49.2035     1.2576    45.8883 </r>
       <r>    49.4884     0.6821    46.0827 </r>
       <r>    49.7732     0.8092    46.3132 </r>
       <r>    50.0581     1.0077    46.6002 </r>
       <r>    50.3429     1.0567    46.9012 </r>
       <r>    50.6278     0.9458    47.1706 </r>
       <r>    50.9126     0.9169    47.4318 </r>
       <r>    51.1975     1.1884    47.7703 </r>
       <r>    51.4823     0.9710    48.0470 </r>
       <r>    51.7672     0.9767    48.3252 </r>
       <r>    52.0521     1.0336    48.6196 </r>
       <r>    52.3369     0.7709    48.8392 </r>
       <r>    52.6218     0.5077    48.9838 </r>
       <r>    52.9066     0.6756    49.1763 </r>
       <r>    53.1915     0.9105    49.4356 </r>
       <r>    53.4763     0.8089    49.6660 </r>
       <r>    53.7612     0.4018    49.7805 </r>
       <r>    54.0460     0.9457    50.0499 </r>
       <r>    54.3309     0.7696    50.2691 </r>
       <r>    54.6158     0.6775    50.4621 </r>
       <r>    54.9006     1.3703    50.8525 </r>
       <r>    55.1855     1.0956    51.1646 </r>
       <r>    55.4703     0.8624    51.4102 </r>
       <r>    55.7552     1.0875    51.7200 </r>
       <r>    56.0400     1.2634    52.0799 </r>
       <r>    56.3249     1.0796    52.3874 </r>
       <r>    56.6097     0.5302    52.5384 </r>
       <r>    56.8946     0.8404    52.7778 </r>
       <r>    57.1795     0.8973    53.0334 </r>
       <r>    57.4643     1.1228    53.3533 </r>
       <r>    57.7492     1.2039    53.6962 </r>
       <r>    58.0340     1.1969    54.0372 </r>
       <r>    58.3189     1.1155    54.3549 </r>
       <r>    58.6037     1.1679    54.6876 </r>
       <r>    58.8886     1.1760    55.0226 </r>
       <r>    59.1734     1.3505    55.4073 </r>
       <r>    59.4583     1.1889    55.7460 </r>
       <r>    59.7432     1.1930    56.0858 </r>
       <r>    60.0280     1.3248    56.4632 </r>
       <r>    60.3129     1.0362    56.7583 </r>
       <r>    60.5977     0.9827    57.0382 </r>
       <r>    60.8826     1.3358    57.4187 </r>
       <r>    61.1674     1.3813    57.8122 </r>
       <r>    61.4523     1.7495    58.3106 </r>
       <r>    61.7371     1.4712    58.7296 </r>
       <r>    62.0220     1.7129    59.2176 </r>
       <r>    62.3069     1.3935    59.6145 </r>
       <r>    62.5917     1.2206    59.9622 </r>
       <r>    62.8766     2.0987    60.5600 </r>
       <r>    63.1614     2.1263    61.1657 </r>
       <r>    63.4463     2.5690    61.8975 </r>
       <r>    63.7311     2.1014    62.4961 </r>
       <r>    64.0160     2.1878    63.1193 </r>
       <r>    64.3008     2.3522    63.7894 </r>
       <r>    64.5857     2.6961    64.5574 </r>
       <r>    64.8706     2.8766    65.3768 </r>
       <r>    65.1554     1.8581    65.9061 </r>
       <r>    65.4403     1.8456    66.4318 </r>
       <r>    65.7251     2.0378    67.0123 </r>
       <r>    66.0100     1.6212    67.4741 </r>
       <r>    66.2948     1.1418    67.7994 </r>
       <r>    66.5797     1.4223    68.2045 </r>
       <r>    66.8645     1.7679    68.7081 </r>
       <r>    67.1494     1.1937    69.0481 </r>
       <r>    67.4343     1.3766    69.4403 </r>
       <r>    67.7191     1.1307    69.7624 </r>
       <r>    68.0040     1.3272    70.1404 </r>
       <r>    68.2888     1.1956    70.4810 </r>
       <r>    68.5737     1.3180    70.8564 </r>
       <r>    68.8585     1.0796    71.1640 </r>
       <r>    69.1434     1.1060    71.4790 </r>
       <r>    69.4282     1.1790    71.8149 </r>
       <r>    69.7131     1.4063    72.2155 </r>
       <r>    69.9980     1.3540    72.6012 </r>
       <r>    70.2828     1.0839    72.9099 </r>
       <r>    70.5677     1.2515    73.2664 </r>
       <r>    70.8525     1.4768    73.6871 </r>
       <r>    71.1374     1.8375    74.2106 </r>
       <r>    71.4222     1.3412    74.5926 </r>
       <r>    71.7071     0.9555    74.8648 </r>
       <r>    71.9920     0.8711    75.1129 </r>
       <r>    72.2768     1.2303    75.4634 </r>
       <r>    72.5617     1.4504    75.8766 </r>
       <r>    72.8465     1.2040    76.2195 </r>
       <r>    73.1314     1.2676    76.5806 </r>
       <r>    73.4162     1.1983    76.9220 </r>
       <r>    73.7011     1.2382    77.2747 </r>
       <r>    73.9859     0.6375    77.4563 </r>
       <r>    74.2708     0.9116    77.7160 </r>
       <r>    74.5557     1.7364    78.2106 </r>
       <r>    74.8405     1.0943    78.5223 </r>
       <r>    75.1254     1.2324    78.8734 </r>
       <r>    75.4102     0.8306    79.1100 </r>
       <r>    75.6951     0.8279    79.3458 </r>
       <r>    75.9799     0.9771    79.6241 </r>
       <r>    76.2648     0.4785    79.7605 </r>
       <r>    76.5496     0.5380    79.9137 </r>
       <r>    76.8345     0.2447    79.9834 </r>
       <r>    77.1194     0.0601    80.0005 </r>
       <r>    77.4042    -0.0017    80.0000 </r>
       <r>    77.6891    -0.0002    80.0000 </r>
       <r>    77.9739    -0.0000    80.0000 </r>
       <r>    78.2588    -0.0000    80.0000 </r>
       <r>    78.5436     0.0000    80.0000 </r>
       <r>    78.8285     0.0000    80.0000 </r>
       <r>    79.1133     0.0000    80.0000 </r>
       <r>    79.3982     0.0000    80.0000 </r>
       <r>    79.6831     0.0000    80.0000 </r>
       <r>    79.9679     0.0000    80.0000 </r>
       <r>    80.2528     0.0000    80.0000 </r>
       <r>    80.5376     0.0000    80.0000 </r>
       <r>    80.8225     0.0000    80.0000 </r>
      </set>
     </set>
    </array>
   </total>
  </dos>
 </calculation>
 <structure name="finalpos" >
  <crystal>
   <varray name="basis" >
    <v>       2.26010000       0.00000000       0.00000000 </v>
    <v>      -1.13005000       1.95730402       0.00000000 </v>
    <v>       0.00000000       0.00000000       3.81792000 </v>
   </varray>
   <i name="volume">     16.88934341 </i>
   <varray name="rec_basis" >
    <v>       0.44245830       0.25545342       0.00000000 </v>
    <v>       0.00000000       0.51090684       0.00000000 </v>
    <v>       0.00000000       0.00000000       0.26192272 </v>
   </varray>
  </crystal>
  <varray name="positions" >
   <v>       0.00000000       0.00000000       0.00000000 </v>
   <v>       0.33333333       0.66666667       0.50000000 </v>
  </varray>
 </structure>
</modeling>
