unknown system                          
   1.00000000000000     
     2.399900    0.000000    0.000000
    -1.199950    2.078374    0.000000
     0.000000    0.000000    4.054080
   Fe
     2
Direct
  0.000000  0.000000  0.000000
  0.333333  0.666667  0.500000
 
   20   20   36
 0.16971266109E+03 0.16030356194E+03 0.13512805282E+03 0.10166318349E+03 0.68179083217E+02
 0.40784960725E+02 0.22364191284E+02 0.12751869871E+02 0.93404536521E+01 0.83205132489E+01
 0.79826280851E+01 0.83211419502E+01 0.93409399108E+01 0.12751642666E+02 0.22363566395E+02
 0.40784691862E+02 0.68179420928E+02 0.10166366577E+03 0.13512820033E+03 0.16030345717E+03
 0.16031287804E+03 0.16030302491E+03 0.14305547620E+03 0.11395476839E+03 0.80961006388E+02
 0.51227007753E+02 0.29146214226E+02 0.15991106117E+02 0.10287752568E+02 0.86218789086E+01
 0.79648645293E+01 0.79639302002E+01 0.86208609941E+01 0.10288757020E+02 0.15992310158E+02
 0.29144521595E+02 0.51224904028E+02 0.80966733413E+02 0.11397256213E+03 0.14307710096E+03
 0.13514219738E+03 0.14302902423E+03 0.13512811923E+03 0.11395528663E+03 0.85717920564E+02
 0.57416353889E+02 0.34370505572E+02 0.19141742666E+02 0.11490803280E+02 0.88969314506E+01
 0.79796072110E+01 0.76670497710E+01 0.79773800130E+01 0.88962894780E+01 0.11492666246E+02
 0.19141627840E+02 0.34365418034E+02 0.57411663900E+02 0.85722821040E+02 0.11397058702E+03
 0.10165760297E+03 0.11386983049E+03 0.11387206360E+03 0.10166418339E+03 0.80960953749E+02
 0.57415935464E+02 0.36332977507E+02 0.21086197502E+02 0.12531491180E+02 0.91633447351E+01
 0.80168436392E+01 0.74576493822E+01 0.74569988457E+01 0.80160624957E+01 0.91641210457E+01
 0.12533044665E+02 0.21085277943E+02 0.36327163328E+02 0.57406330710E+02 0.80951249745E+02
 0.68160052063E+02 0.80838147454E+02 0.85555818091E+02 0.80853620425E+02 0.68179225320E+02
 0.51226168657E+02 0.34370558253E+02 0.21086477643E+02 0.12944155187E+02 0.93493982440E+01
 0.80556389741E+01 0.73355359391E+01 0.71019462079E+01 0.73361707997E+01 0.80559694219E+01
 0.93501087109E+01 0.12947375975E+02 0.21091340736E+02 0.34370789854E+02 0.51215483152E+02
 0.40783030276E+02 0.51141951465E+02 0.57262728453E+02 0.57267953438E+02 0.51151133161E+02
 0.40784486232E+02 0.29146110621E+02 0.19142352408E+02 0.12531419311E+02 0.93492506686E+01
 0.80722150900E+01 0.72827623920E+01 0.69049823593E+01 0.69058779646E+01 0.72833910811E+01
 0.80704583875E+01 0.93484471245E+01 0.12537445872E+02 0.19154685409E+02 0.29155604057E+02
 0.22377563440E+02 0.29146402828E+02 0.34322540792E+02 0.36257675853E+02 0.34317191288E+02
 0.29135495943E+02 0.22363886457E+02 0.15991565445E+02 0.11490854651E+02 0.91629646224E+01
 0.80557622681E+01 0.72828211818E+01 0.68428856299E+01 0.67067851300E+01 0.68442368836E+01
 0.72817257055E+01 0.80505976013E+01 0.91580620419E+01 0.11492666246E+02 0.16001727245E+02
 0.12750669864E+02 0.16044010055E+02 0.19208419521E+02 0.21141120462E+02 0.21135039707E+02
 0.19195362291E+02 0.16034704645E+02 0.12751871945E+02 0.10287995325E+02 0.88965131975E+01
 0.80168613991E+01 0.73357454821E+01 0.69047650856E+01 0.67067479542E+01 0.67077541428E+01
 0.69065667491E+01 0.73351979978E+01 0.80109725046E+01 0.88858662968E+01 0.10278363343E+02
 0.93252519918E+01 0.10342893831E+02 0.11605258784E+02 0.12676840826E+02 0.13095044942E+02
 0.12672508268E+02 0.11605174292E+02 0.10352975185E+02 0.93406627395E+01 0.86216914503E+01
 0.79793985424E+01 0.74579929380E+01 0.71018321136E+01 0.69057378875E+01 0.68445765041E+01
 0.69066439457E+01 0.71056271542E+01 0.74630616388E+01 0.79790708872E+01 0.86114401186E+01
 0.83203478635E+01 0.86799073421E+01 0.90155075879E+01 0.93342227598E+01 0.95503128452E+01
 0.95521077937E+01 0.93404980845E+01 0.90258989521E+01 0.86889635263E+01 0.83207074365E+01
 0.79646186786E+01 0.76673215633E+01 0.74571988513E+01 0.73359241974E+01 0.72836190577E+01
 0.72818948924E+01 0.73347418524E+01 0.74629180886E+01 0.76792398408E+01 0.79741451624E+01
 0.79966251299E+01 0.80435302423E+01 0.81141632055E+01 0.82005612893E+01 0.82773960739E+01
 0.83107616655E+01 0.82826046102E+01 0.82056355772E+01 0.81127619934E+01 0.80336433107E+01
 0.79826208589E+01 0.79638757358E+01 0.79777076682E+01 0.80158374532E+01 0.80557622681E+01
 0.80706046476E+01 0.80502671535E+01 0.80107297022E+01 0.79796072110E+01 0.79743365487E+01
 0.83197852972E+01 0.80433416585E+01 0.78166833300E+01 0.76615612628E+01 0.75800397495E+01
 0.75523398628E+01 0.75538140119E+01 0.75806804187E+01 0.76554708810E+01 0.78049122712E+01
 0.80344224063E+01 0.83207735715E+01 0.86209634986E+01 0.88962683472E+01 0.91636887849E+01
 0.93501843034E+01 0.93486702924E+01 0.91580098936E+01 0.88862634192E+01 0.86117300814E+01
 0.93248348364E+01 0.86796456174E+01 0.81146899021E+01 0.76616864327E+01 0.73574633725E+01
 0.71948044797E+01 0.71459116579E+01 0.71943144573E+01 0.73538664142E+01 0.76561988326E+01
 0.81143837643E+01 0.86897576130E+01 0.93407318429E+01 0.10288968127E+02 0.11492476422E+02
 0.12533080898E+02 0.12947905237E+02 0.12537553973E+02 0.11492425051E+02 0.10278331692E+02
 0.12750921223E+02 0.10342991573E+02 0.90158938214E+01 0.82007060906E+01 0.75796046216E+01
 0.71947881492E+01 0.70208392216E+01 0.70199965858E+01 0.71933658101E+01 0.75804597232E+01
 0.82065330805E+01 0.90260535126E+01 0.10352026538E+02 0.12751896100E+02 0.15992517881E+02
 0.19141639469E+02 0.21085528996E+02 0.21091311648E+02 0.19154087297E+02 0.16001475640E+02
 0.22378188329E+02 0.16044310658E+02 0.11605012869E+02 0.93340844985E+01 0.82770872262E+01
 0.75523749177E+01 0.71462258189E+01 0.70198983345E+01 0.71442898871E+01 0.75530783002E+01
 0.82826046102E+01 0.93397117578E+01 0.11603483418E+02 0.16033724083E+02 0.22363886457E+02
 0.29144456794E+02 0.34365186432E+02 0.36326906954E+02 0.34370505572E+02 0.29155642862E+02
 0.40783325562E+02 0.29146318964E+02 0.19207822943E+02 0.12676607883E+02 0.95505391548E+01
 0.83109106461E+01 0.75540178402E+01 0.71941016340E+01 0.71931693172E+01 0.75532470736E+01
 0.83124479719E+01 0.95512667180E+01 0.12670873106E+02 0.19196024652E+02 0.29137127316E+02
 0.40784512656E+02 0.51224533495E+02 0.57411507833E+02 0.57406593068E+02 0.51215951715E+02
 0.68159773593E+02 0.51141358054E+02 0.34322260847E+02 0.21141288683E+02 0.13095559097E+02
 0.95521743173E+01 0.82823998053E+01 0.75805532688E+01 0.73537725642E+01 0.75807677012E+01
 0.82827086531E+01 0.95511069320E+01 0.13091423237E+02 0.21136012509E+02 0.34322503867E+02
 0.51152794747E+02 0.68179284562E+02 0.80967016542E+02 0.85723233143E+02 0.80951585513E+02
 0.10165716693E+03 0.80837731586E+02 0.57262998332E+02 0.36258280251E+02 0.21135272127E+02
 0.12672226490E+02 0.93400932936E+01 0.82057739986E+01 0.76556698775E+01 0.76562726593E+01
 0.82065267005E+01 0.93394452283E+01 0.12670824271E+02 0.21136076709E+02 0.36263696198E+02
 0.57272308407E+02 0.80847603870E+02 0.10166422963E+03 0.11397269917E+03 0.11397020582E+03
 0.13514204986E+03 0.11387027779E+03 0.85556244374E+02 0.57268322645E+02 0.34316948268E+02
 0.19194846912E+02 0.11605012869E+02 0.90262860425E+01 0.81130681313E+01 0.78046145101E+01
 0.81141632055E+01 0.90260543694E+01 0.11603567910E+02 0.19196105851E+02 0.34322540792E+02
 0.57272407735E+02 0.85550446270E+02 0.11385465994E+03 0.13512811923E+03 0.14307623795E+03
 0.16031296064E+03 0.14303004461E+03 0.11387221995E+03 0.80853146850E+02 0.51150756763E+02
 0.29135285092E+02 0.16034919709E+02 0.10353338929E+02 0.86890443266E+01 0.80332149977E+01
 0.80341826771E+01 0.86901001380E+01 0.10352292540E+02 0.16033638544E+02 0.29137000330E+02
 0.51153011761E+02 0.80847546163E+02 0.11385436898E+03 0.14300822954E+03 0.16030300274E+03
 0.16132296732E+03 0.15239156144E+03 0.12847528533E+03 0.96647198822E+02 0.64780762724E+02
 0.38744583010E+02 0.21325779049E+02 0.12335846358E+02 0.91925171160E+01 0.82099851110E+01
 0.78809546928E+01 0.82105928182E+01 0.91929863213E+01 0.12335624602E+02 0.21325172220E+02
 0.38744320968E+02 0.64781088420E+02 0.96647665371E+02 0.12847542859E+03 0.15239146057E+03
 0.15240021738E+03 0.15239103920E+03 0.13600670758E+03 0.10833536403E+03 0.76934372837E+02
 0.48646651402E+02 0.27708626828E+02 0.15335885197E+02 0.10050700522E+02 0.84963633296E+01
 0.78560399171E+01 0.78551409009E+01 0.84953823989E+01 0.10051688055E+02 0.15337146579E+02
 0.27707181733E+02 0.48644727482E+02 0.76939658616E+02 0.10835188202E+03 0.13602683108E+03
 0.12848844428E+03 0.13598625115E+03 0.12847534860E+03 0.10833586750E+03 0.81458059674E+02
 0.54522574338E+02 0.32640510829E+02 0.18272574100E+02 0.11143968910E+02 0.87547968780E+01
 0.78644076205E+01 0.75612854169E+01 0.78622572975E+01 0.87541539592E+01 0.11145769351E+02
 0.18272595974E+02 0.32635848712E+02 0.54518177174E+02 0.81462542513E+02 0.10835006063E+03
 0.96642054485E+02 0.10826758929E+03 0.10826966265E+03 0.96648170210E+02 0.76934323225E+02
 0.54522168187E+02 0.34495617797E+02 0.20091256123E+02 0.12095916927E+02 0.89931342796E+01
 0.78963307531E+01 0.73545921799E+01 0.73539707676E+01 0.78955616477E+01 0.89938014656E+01
 0.12097306099E+02 0.20090350132E+02 0.34490169129E+02 0.54513209857E+02 0.76925290914E+02
 0.64763135263E+02 0.76839074954E+02 0.81333269097E+02 0.76853436307E+02 0.64780902228E+02
 0.48645836971E+02 0.32640560702E+02 0.20091528001E+02 0.12474710892E+02 0.91581055550E+01
 0.79314224933E+01 0.72340701807E+01 0.70088527558E+01 0.72347090434E+01 0.79317424241E+01
 0.91586823632E+01 0.12477568620E+02 0.20095961019E+02 0.32640786170E+02 0.48635970668E+02
 0.38742827517E+02 0.48592329250E+02 0.54419158609E+02 0.54424021626E+02 0.48600855415E+02
 0.38744122556E+02 0.27708525297E+02 0.18273166026E+02 0.12095848713E+02 0.91579625527E+01
 0.79466416134E+01 0.71818931121E+01 0.68179522093E+01 0.68188348382E+01 0.71825730174E+01
 0.79450534380E+01 0.91571889114E+01 0.12101423534E+02 0.18284667630E+02 0.27717431999E+02
 0.21338187919E+02 0.27735783240E+02 0.32643311505E+02 0.34480593462E+02 0.32638392831E+02
 0.27725701196E+02 0.21325483511E+02 0.15336331484E+02 0.11144019954E+02 0.89927654068E+01
 0.79315403168E+01 0.71819495125E+01 0.67578438295E+01 0.66269782479E+01 0.67591448618E+01
 0.71809965551E+01 0.79268049656E+01 0.89882735892E+01 0.11145769351E+02 0.15345820384E+02
 0.12334667306E+02 0.15410823891E+02 0.18383008143E+02 0.20204007892E+02 0.20198377210E+02
 0.18370932815E+02 0.15402257623E+02 0.12335848878E+02 0.10050935572E+02 0.87543899301E+01
 0.78963462236E+01 0.72342727250E+01 0.68177426034E+01 0.66269428869E+01 0.66278525325E+01
 0.68193709949E+01 0.72337517483E+01 0.78909080560E+01 0.87445330506E+01 0.10041973945E+02
 0.91783403978E+01 0.10124877097E+02 0.11295070162E+02 0.12291481290E+02 0.12681154115E+02
 0.12287429571E+02 0.11294987738E+02 0.10134288942E+02 0.91927184995E+01 0.84961797595E+01
 0.78642051003E+01 0.73549264497E+01 0.70087435295E+01 0.68186998984E+01 0.67594740545E+01
 0.68194456612E+01 0.70121599893E+01 0.73595816543E+01 0.78638875225E+01 0.84866255841E+01
 0.82098319223E+01 0.85709371799E+01 0.89051769134E+01 0.92077075067E+01 0.94092825552E+01
 0.94109070434E+01 0.92134480027E+01 0.89147674935E+01 0.85793391890E+01 0.82101729100E+01
 0.78558028574E+01 0.75615516174E+01 0.73541655538E+01 0.72344691242E+01 0.71827934187E+01
 0.71811605561E+01 0.72333092849E+01 0.73594421708E+01 0.75726245164E+01 0.78646586116E+01
 0.78939703912E+01 0.79486658938E+01 0.80268451537E+01 0.81189985850E+01 0.81990038471E+01
 0.82331456332E+01 0.82037859496E+01 0.81236386866E+01 0.80254940100E+01 0.79394640512E+01
 0.78809492485E+01 0.78550899093E+01 0.78625748754E+01 0.78953409807E+01 0.79315403168E+01
 0.79451961094E+01 0.79264850347E+01 0.78906719185E+01 0.78644076205E+01 0.78648446797E+01
 0.82092862553E+01 0.79484823311E+01 0.77367648567E+01 0.75937800960E+01 0.75201923784E+01
 0.74960989713E+01 0.74974902893E+01 0.75208278340E+01 0.75881415277E+01 0.77258298176E+01
 0.79402108547E+01 0.82102349502E+01 0.84954809038E+01 0.87541314908E+01 0.89933812521E+01
 0.91587571488E+01 0.91574066993E+01 0.89882222485E+01 0.87449175301E+01 0.84869076590E+01
 0.91779361800E+01 0.85706821522E+01 0.80273559711E+01 0.75939023362E+01 0.73041124972E+01
 0.71497941027E+01 0.71035743782E+01 0.71494490784E+01 0.73008855307E+01 0.75888403834E+01
 0.80270592476E+01 0.85801000849E+01 0.91927834870E+01 0.10051892867E+02 0.11145585191E+02
 0.12097342165E+02 0.12478083113E+02 0.12101527814E+02 0.11145534147E+02 0.10041943707E+02
 0.12334911998E+02 0.10124971437E+02 0.89055513590E+01 0.81191406268E+01 0.75197710049E+01
 0.71497777074E+01 0.69829066510E+01 0.69821537437E+01 0.71485147182E+01 0.75205923294E+01
 0.81245250990E+01 0.89149409578E+01 0.10133354582E+02 0.12335871812E+02 0.15337348855E+02
 0.18272606934E+02 0.20090593641E+02 0.20095932650E+02 0.18284086664E+02 0.15345576372E+02
 0.21338794747E+02 0.15411115761E+02 0.11294831271E+02 0.92075742017E+01 0.81987048574E+01
 0.74961317939E+01 0.71038779892E+01 0.69820584005E+01 0.71020091406E+01 0.74967053239E+01
 0.82037859496E+01 0.92127732165E+01 0.11293357513E+02 0.15401214218E+02 0.21325483511E+02
 0.27707117955E+02 0.32635623243E+02 0.34489920801E+02 0.32640510829E+02 0.27717469753E+02
 0.38743113773E+02 0.27735701975E+02 0.18382429052E+02 0.12291255025E+02 0.94095020072E+01
 0.82332892175E+01 0.74976871405E+01 0.71492428308E+01 0.71483248658E+01 0.74968693525E+01
 0.82346628178E+01 0.94101987024E+01 0.12285960334E+02 0.18371444757E+02 0.27727087422E+02
 0.38744146771E+02 0.48644367734E+02 0.54518026537E+02 0.54513465371E+02 0.48636425350E+02
 0.64762864248E+02 0.48591753231E+02 0.32643039811E+02 0.20204170643E+02 0.12681652470E+02
 0.94109712441E+01 0.82035876348E+01 0.75207053651E+01 0.73007949574E+01 0.75208912341E+01
 0.82038866245E+01 0.94100434511E+01 0.12677901562E+02 0.20199334505E+02 0.32643275608E+02
 0.48602348867E+02 0.64780956909E+02 0.76939934112E+02 0.81462942451E+02 0.76925616022E+02
 0.96641630715E+02 0.76838671783E+02 0.54419420899E+02 0.34481179920E+02 0.20198602536E+02
 0.12287156154E+02 0.92130561988E+01 0.81237743735E+01 0.75883342293E+01 0.75889108448E+01
 0.81245187441E+01 0.92125147177E+01 0.12285913183E+02 0.20199397080E+02 0.34486244579E+02
 0.54428096281E+02 0.76847868200E+02 0.96648212990E+02 0.10835201381E+03 0.10834968895E+03
 0.12848830103E+03 0.10826802507E+03 0.81333683884E+02 0.54424379949E+02 0.32638157034E+02
 0.18370432659E+02 0.11294831271E+02 0.89151441553E+01 0.80257907335E+01 0.77255388445E+01
 0.80268451537E+01 0.89149431740E+01 0.11293439937E+02 0.18371523692E+02 0.32643311505E+02
 0.54428192313E+02 0.81328331638E+02 0.10825352460E+03 0.12847534860E+03 0.13602599155E+03
 0.15240029771E+03 0.13598724365E+03 0.10826981595E+03 0.76852976164E+02 0.48600489505E+02
 0.27725496464E+02 0.15402465597E+02 0.10134642072E+02 0.85794184266E+01 0.79390472011E+01
 0.79399775672E+01 0.85804343502E+01 0.10133613371E+02 0.15401130322E+02 0.27726963955E+02
 0.48602558976E+02 0.76847811229E+02 0.10825324213E+03 0.13596693667E+03 0.15239101866E+03
 0.13861541122E+03 0.13096045609E+03 0.11042115911E+03 0.83013160534E+02 0.55554137590E+02
 0.33243970609E+02 0.18572598361E+02 0.11262497486E+02 0.88029461355E+01 0.79079699662E+01
 0.76050225755E+01 0.79085186224E+01 0.88033673370E+01 0.11262291243E+02 0.18572043225E+02
 0.33243729466E+02 0.55554431338E+02 0.83013583796E+02 0.11042129016E+03 0.13096036560E+03
 0.13096735676E+03 0.13095997642E+03 0.11688818228E+03 0.93066686540E+02 0.65990560102E+02
 0.41662275137E+02 0.23862999852E+02 0.13621786586E+02 0.94408650463E+01 0.81496309136E+01
 0.75587737317E+01 0.75579749874E+01 0.81487551501E+01 0.94417947401E+01 0.13623167888E+02
 0.23862183086E+02 0.41660820887E+02 0.65994680709E+02 0.93079818754E+02 0.11690431133E+03
 0.11043169502E+03 0.11688460785E+03 0.11042121364E+03 0.93067147708E+02 0.69878161271E+02
 0.46677547190E+02 0.27992002594E+02 0.15978806995E+02 0.10249428140E+02 0.83681950082E+01
 0.75474879631E+01 0.72715606238E+01 0.75455586520E+01 0.83675590035E+01 0.10251047553E+02
 0.15979164640E+02 0.27988456366E+02 0.46673935083E+02 0.69881547740E+02 0.93078402422E+02
 0.83009168420E+02 0.93046673233E+02 0.93048323052E+02 0.83014050309E+02 0.65990519051E+02
 0.46677176062E+02 0.29551976764E+02 0.17454910037E+02 0.10966890917E+02 0.85429084558E+01
 0.75625726681E+01 0.70708417156E+01 0.70703019396E+01 0.75618462676E+01 0.85432987646E+01
 0.10967856332E+02 0.17454052250E+02 0.29547510209E+02 0.46669942965E+02 0.65983274171E+02
 0.55540230433E+02 0.65971353508E+02 0.69856598316E+02 0.65982763483E+02 0.55554269414E+02
 0.41661531026E+02 0.27992044222E+02 0.17455158242E+02 0.11255529754E+02 0.86567693622E+01
 0.75857435225E+01 0.69532076463E+01 0.67514259553E+01 0.69538471090E+01 0.75860334228E+01
 0.86570095202E+01 0.11257452294E+02 0.17458467626E+02 0.27992252412E+02 0.41653829725E+02
 0.33242670863E+02 0.41692502630E+02 0.46712438338E+02 0.46716336979E+02 0.41699286501E+02
 0.33243550023E+02 0.23862904047E+02 0.15979347883E+02 0.10966833295E+02 0.86566395218E+01
 0.75965702737E+01 0.69017451783E+01 0.65761634152E+01 0.65769996810E+01 0.69025384678E+01
 0.75954190047E+01 0.86559509170E+01 0.10971213104E+02 0.15988630738E+02 0.23870232851E+02
 0.18582448084E+02 0.23964507277E+02 0.28134610203E+02 0.29702924522E+02 0.28130825189E+02
 0.23956606740E+02 0.18572329367E+02 0.13622195570E+02 0.10249478452E+02 0.85425719546E+01
 0.75858458714E+01 0.69017947906E+01 0.65211143567E+01 0.64044714672E+01 0.65222705137E+01
 0.69012050056E+01 0.75822373772E+01 0.85391582477E+01 0.10251047553E+02 0.13629884191E+02
 0.11261387577E+02 0.13758100276E+02 0.16210643138E+02 0.17727855979E+02 0.17723417359E+02
 0.16201165356E+02 0.13751481669E+02 0.11262501486E+02 0.94410782364E+01 0.83678206454E+01
 0.75625817582E+01 0.69533901972E+01 0.65759755931E+01 0.64044411967E+01 0.64051002746E+01
 0.65771546179E+01 0.69529434426E+01 0.75583345581E+01 0.83600551752E+01 0.94338999111E+01
 0.87915069906E+01 0.95690045789E+01 0.10504011001E+02 0.11303894745E+02 0.11618304185E+02
 0.11300595691E+02 0.10503934588E+02 0.95766253830E+01 0.88031256539E+01 0.81494585720E+01
 0.75473029877E+01 0.70711492588E+01 0.67513304764E+01 0.65768792595E+01 0.65225698441E+01
 0.65772220185E+01 0.67537665135E+01 0.70747173156E+01 0.75470141393E+01 0.81417639876E+01
 0.79078510751E+01 0.82721310561E+01 0.86105943700E+01 0.88837997391E+01 0.90532324812E+01
 0.90544140189E+01 0.88881393455E+01 0.86180700641E+01 0.82787949471E+01 0.79081393305E+01
 0.75585614613E+01 0.72718104647E+01 0.70704817115E+01 0.69536263164E+01 0.69027371969E+01
 0.69013541222E+01 0.69525400991E+01 0.70745895443E+01 0.72806356657E+01 0.75656336971E+01
 0.76154274345E+01 0.76926686283E+01 0.77922733055E+01 0.79006483421E+01 0.79896008153E+01
 0.80259751489E+01 0.79932618349E+01 0.79041511462E+01 0.77910673533E+01 0.76852924426E+01
 0.76050216912E+01 0.75579335897E+01 0.75458475003E+01 0.75616384162E+01 0.75858458714E+01
 0.75955513461E+01 0.75819474769E+01 0.75581176165E+01 0.75474879631E+01 0.75658045699E+01
 0.79073538032E+01 0.76924993846E+01 0.75242377326E+01 0.74165486772E+01 0.73662226637E+01
 0.73528501995E+01 0.73540157714E+01 0.73668342361E+01 0.74121071515E+01 0.75155267997E+01
 0.76859482812E+01 0.79081907147E+01 0.81488424090E+01 0.83675331420E+01 0.85429132586E+01
 0.86570819621E+01 0.86561531992E+01 0.85391092429E+01 0.83604036765E+01 0.81420235881E+01
 0.87911398169E+01 0.82718950295E+01 0.77927384070E+01 0.74166624761E+01 0.71692884669E+01
 0.70396833799E+01 0.70014311852E+01 0.70396991918E+01 0.71670191804E+01 0.74127233145E+01
 0.77924688130E+01 0.82794624943E+01 0.88031796816E+01 0.94419819028E+01 0.10250879912E+02
 0.10967891899E+02 0.11257924340E+02 0.10971306293E+02 0.10250829600E+02 0.94338738838E+01
 0.11261613158E+02 0.95690889860E+01 0.86109347909E+01 0.79007824033E+01 0.73658408480E+01
 0.70396668562E+01 0.68938274074E+01 0.68933066546E+01 0.70388148640E+01 0.73665660713E+01
 0.79049957983E+01 0.86182868446E+01 0.95757410552E+01 0.11262520824E+02 0.13623354756E+02
 0.15979173607E+02 0.17454273914E+02 0.17458441085E+02 0.15988098817E+02 0.13629662076E+02
 0.18583003220E+02 0.13758367037E+02 0.10503792131E+02 0.88836806197E+01 0.79893302306E+01
 0.73528767461E+01 0.70017045748E+01 0.68932197271E+01 0.70000297256E+01 0.73531229608E+01
 0.79932618349E+01 0.88877484458E+01 0.10502479101E+02 0.13750301356E+02 0.18572329367E+02
 0.23862122091E+02 0.27988248176E+02 0.29547284740E+02 0.27992002594E+02 0.23870267662E+02
 0.33242931349E+02 0.23964433491E+02 0.16210114208E+02 0.11303687683E+02 0.90534323606E+01
 0.80261033907E+01 0.73541926537E+01 0.70395119240E+01 0.70386441198E+01 0.73532732965E+01
 0.80270540846E+01 0.90540423061E+01 0.11299556431E+02 0.16201300950E+02 0.23957371141E+02
 0.33243569366E+02 0.41660491766E+02 0.46673799946E+02 0.46670178955E+02 0.41654244715E+02
 0.55539980865E+02 0.41691976477E+02 0.28134362179E+02 0.17728003143E+02 0.11618757298E+02
 0.90544716206E+01 0.79930820970E+01 0.73667251758E+01 0.71669380601E+01 0.73668388267E+01
 0.79933526817E+01 0.90539000284E+01 0.11616007806E+02 0.17724321025E+02 0.28134577055E+02
 0.41700345104E+02 0.55554313593E+02 0.65994934427E+02 0.69881913137E+02 0.65983568939E+02
 0.83008779850E+02 0.65970986571E+02 0.46712678716E+02 0.29703459605E+02 0.17723622459E+02
 0.11300346259E+02 0.88877846563E+01 0.79042787597E+01 0.74122817919E+01 0.74127841560E+01
 0.79049893507E+01 0.88875128761E+01 0.11299514061E+02 0.17724378962E+02 0.29707580065E+02
 0.46719659060E+02 0.65978382799E+02 0.83014085001E+02 0.93079935887E+02 0.93078058386E+02
 0.11043156397E+03 0.93047075618E+02 0.69856979773E+02 0.46716664062E+02 0.28130610313E+02
 0.16200708917E+02 0.10503792131E+02 0.86184164936E+01 0.77913369474E+01 0.75152555391E+01
 0.77922733055E+01 0.86182928532E+01 0.10502555514E+02 0.16201373441E+02 0.28134610203E+02
 0.46719745765E+02 0.69852802271E+02 0.93035541646E+02 0.11042121364E+03 0.11690353947E+03
 0.13096743056E+03 0.11688552005E+03 0.93048467183E+02 0.65982341720E+02 0.41698950942E+02
 0.23956419765E+02 0.13751669219E+02 0.95769477792E+01 0.82788694949E+01 0.76849087562E+01
 0.76857338385E+01 0.82797730687E+01 0.95759790443E+01 0.13750222144E+02 0.23957257953E+02
 0.41700535698E+02 0.65978327973E+02 0.93035283392E+02 0.11686922589E+03 0.13095995973E+03
 0.10770950864E+03 0.10175771589E+03 0.85755964656E+02 0.64364625874E+02 0.42997731864E+02
 0.25888837052E+02 0.15025915469E+02 0.99526936340E+01 0.82777826798E+01 0.74883266832E+01
 0.72263935057E+01 0.74887887341E+01 0.82781334890E+01 0.99525108419E+01 0.15025438700E+02
 0.25888631118E+02 0.42997983455E+02 0.64364987995E+02 0.85756077206E+02 0.10175763910E+03
 0.10176233303E+03 0.10175730141E+03 0.90786928839E+02 0.72181252398E+02 0.51049787990E+02
 0.32234479513E+02 0.18811744428E+02 0.11475552543E+02 0.86870172313E+01 0.76591366334E+01
 0.71468625731E+01 0.71462125153E+01 0.76584173431E+01 0.86878354022E+01 0.11476997763E+02
 0.18811660944E+02 0.32233613052E+02 0.51052415678E+02 0.72189996806E+02 0.90797852022E+02
 0.85763080823E+02 0.90807403972E+02 0.85756006716E+02 0.72181649405E+02 0.54057010373E+02
 0.36047270584E+02 0.21825264981E+02 0.13054409478E+02 0.91541035328E+01 0.78181501213E+01
 0.71029395362E+01 0.68682962056E+01 0.71013452974E+01 0.78175501806E+01 0.91554453705E+01
 0.13055125114E+02 0.21823127295E+02 0.36044698612E+02 0.54059010745E+02 0.72189097190E+02
 0.64362111037E+02 0.72228038622E+02 0.72229140551E+02 0.64365391927E+02 0.51049759573E+02
 0.36046952259E+02 0.22973849911E+02 0.14064704171E+02 0.95760253451E+01 0.79376274395E+01
 0.70887751867E+01 0.66721351256E+01 0.66717132487E+01 0.70881342036E+01 0.79376948345E+01
 0.95764765354E+01 0.14063943357E+02 0.22970689996E+02 0.36041982023E+02 0.51044844789E+02
 0.42988630833E+02 0.51135622604E+02 0.54178430090E+02 0.51143204802E+02 0.42997851338E+02
 0.32233841279E+02 0.21825293591E+02 0.14064916451E+02 0.97489167040E+01 0.80018974579E+01
 0.70907618601E+01 0.65545674359E+01 0.63865568465E+01 0.65551788436E+01 0.70910064758E+01
 0.80017526858E+01 0.97497081317E+01 0.14066820315E+02 0.21825476299E+02 0.32228919121E+02
 0.25888103909E+02 0.32380671997E+02 0.36272279921E+02 0.36274918474E+02 0.32385191250E+02
 0.25888476053E+02 0.18811656749E+02 0.13054872941E+02 0.95759840411E+01 0.80017877434E+01
 0.70937227558E+01 0.65016146829E+01 0.62302869033E+01 0.62310294817E+01 0.65024914332E+01
 0.70931085706E+01 0.80012254770E+01 0.95788262849E+01 0.13061245870E+02 0.18816882084E+02
 0.15032442318E+02 0.19015534150E+02 0.22159880079E+02 0.23352684040E+02 0.22157536398E+02
 0.19010438674E+02 0.15025686605E+02 0.11475905045E+02 0.91541531791E+01 0.79373405280E+01
 0.70908412984E+01 0.65016541814E+01 0.61811773916E+01 0.60838823458E+01 0.61821134518E+01
 0.65014927265E+01 0.70886574717E+01 0.79352893742E+01 0.91554453705E+01 0.11481220197E+02
 0.99517119146E+01 0.11697726304E+02 0.13454967953E+02 0.14559715946E+02 0.14556815188E+02
 0.13448832391E+02 0.11693591710E+02 0.99527003455E+01 0.86871978398E+01 0.78178258071E+01
 0.70887751259E+01 0.65547198438E+01 0.62301316140E+01 0.60838594811E+01 0.60842097753E+01
 0.62307577631E+01 0.65543799163E+01 0.70860561727E+01 0.78127555606E+01 0.86823425435E+01
 0.82699397597E+01 0.88928077976E+01 0.95565864500E+01 0.10114293335E+02 0.10333795187E+02
 0.10111990292E+02 0.95565194344E+01 0.88980679344E+01 0.82779296370E+01 0.76589816612E+01
 0.71027809911E+01 0.66724017360E+01 0.63864816404E+01 0.62309305413E+01 0.61823675031E+01
 0.62308141120E+01 0.63877157391E+01 0.66745902069E+01 0.71025354088E+01 0.76537234118E+01
 0.74882570321E+01 0.78526465006E+01 0.81967680766E+01 0.84652115859E+01 0.86129328965E+01
 0.86135670710E+01 0.84677881669E+01 0.82015327604E+01 0.78570530526E+01 0.74884677366E+01
 0.71466868271E+01 0.68685202260E+01 0.66718700341E+01 0.65549870692E+01 0.65026573813E+01
 0.65016191761E+01 0.65540357340E+01 0.66744803819E+01 0.68744214550E+01 0.71514381486E+01
 0.72333971234E+01 0.73435122766E+01 0.74726945477E+01 0.76025384632E+01 0.77028845228E+01
 0.77419987443E+01 0.77051232203E+01 0.76046101356E+01 0.74717112988E+01 0.73385225853E+01
 0.72263980706E+01 0.71461846705E+01 0.71015908796E+01 0.70879466531E+01 0.70908412984E+01
 0.70932250925E+01 0.70884128560E+01 0.70858686830E+01 0.71029395362E+01 0.71515860498E+01
 0.74878331595E+01 0.73433646273E+01 0.72397287100E+01 0.71836328918E+01 0.71670715161E+01
 0.71692671902E+01 0.71701236837E+01 0.71676240324E+01 0.71807366884E+01 0.72339144632E+01
 0.73390456544E+01 0.74885059149E+01 0.76584881376E+01 0.78175204034E+01 0.79373625538E+01
 0.80018214285E+01 0.80014039342E+01 0.79352440049E+01 0.78130500975E+01 0.76539491785E+01
 0.82696287258E+01 0.78524389401E+01 0.74730896780E+01 0.71837337274E+01 0.69996555320E+01
 0.69068267825E+01 0.68804095124E+01 0.69072419423E+01 0.69985582688E+01 0.71812302120E+01
 0.74728616351E+01 0.78575847546E+01 0.82779694123E+01 0.86879967671E+01 0.91553035154E+01
 0.95765112498E+01 0.97501153719E+01 0.95789023034E+01 0.91552538691E+01 0.86823233000E+01
 0.99519084531E+01 0.88928766739E+01 0.81970562089E+01 0.76026601382E+01 0.71667500979E+01
 0.69068102138E+01 0.67926458729E+01 0.67924088686E+01 0.69064567613E+01 0.71673323750E+01
 0.76053657711E+01 0.82017862394E+01 0.88972827535E+01 0.99527140920E+01 0.11477161723E+02
 0.13055130913E+02 0.14064131270E+02 0.14066795949E+02 0.13060788206E+02 0.11481031655E+02
 0.15032919086E+02 0.11697954683E+02 0.95563977733E+01 0.84651139125E+01 0.77026574555E+01
 0.71692845406E+01 0.68806370941E+01 0.67923349306E+01 0.68792591762E+01 0.71691559214E+01
 0.77051232203E+01 0.84677307036E+01 0.95553293230E+01 0.11692318544E+02 0.15025686605E+02
 0.18811603779E+02 0.21822944587E+02 0.22970498714E+02 0.21825264981E+02 0.18816912598E+02
 0.25888325508E+02 0.19015471776E+02 0.13454515364E+02 0.10114115628E+02 0.86131032545E+01
 0.77421040051E+01 0.71702703235E+01 0.69070838505E+01 0.69063152382E+01 0.71692852108E+01
 0.77425398340E+01 0.86135872287E+01 0.10111478748E+02 0.13448545008E+02 0.19010478721E+02
 0.25888491717E+02 0.32233329735E+02 0.36044586845E+02 0.36042188581E+02 0.32229274037E+02
 0.42988414080E+02 0.32380221628E+02 0.22159668083E+02 0.14559839723E+02 0.10334179710E+02
 0.86136147988E+01 0.77049716214E+01 0.71675352788E+01 0.69984917023E+01 0.71675650397E+01
 0.77051986888E+01 0.86134645985E+01 0.10332671132E+02 0.14557614116E+02 0.22159850564E+02
 0.32385718459E+02 0.42997886176E+02 0.51052636531E+02 0.54059324539E+02 0.51045094059E+02
 0.64361776035E+02 0.51135310261E+02 0.36272486558E+02 0.23353141218E+02 0.14556989883E+02
 0.10111777332E+02 0.84674895135E+01 0.76047247969E+01 0.71808838878E+01 0.71812765758E+01
 0.76053587575E+01 0.84675297236E+01 0.10111443495E+02 0.14557665034E+02 0.23356005377E+02
 0.36277241105E+02 0.51140354962E+02 0.64365419046E+02 0.72190092792E+02 0.72188796169E+02
 0.85762968274E+02 0.72228389219E+02 0.54178759872E+02 0.36275197980E+02 0.22157353917E+02
 0.13448442559E+02 0.95563977733E+01 0.82018322893E+01 0.74719393417E+01 0.72336739251E+01
 0.74726945477E+01 0.82017976359E+01 0.95553963385E+01 0.13448607764E+02 0.22159880079E+02
 0.36277313974E+02 0.54176081085E+02 0.72220702332E+02 0.85756006716E+02 0.90797184032E+02
 0.10176239684E+03 0.90808192987E+02 0.72229269526E+02 0.51142841054E+02 0.32384902581E+02
 0.19010279279E+02 0.11693747968E+02 0.88983428084E+01 0.78571198936E+01 0.73381901501E+01
 0.73388608685E+01 0.78578591561E+01 0.88974887511E+01 0.11692246423E+02 0.19010381699E+02
 0.32385880159E+02 0.51140303557E+02 0.72220480710E+02 0.90797129471E+02 0.10175728843E+03
 0.75603721181E+02 0.71398045712E+02 0.60091393977E+02 0.45025122576E+02 0.30164275738E+02
 0.18630413529E+02 0.11748333619E+02 0.88186913598E+01 0.76923751880E+01 0.70370281916E+01
 0.68257321144E+01 0.70373889828E+01 0.76926435301E+01 0.88185366258E+01 0.11747951873E+02
 0.18630255413E+02 0.30164485233E+02 0.45025416959E+02 0.60091484096E+02 0.71397982683E+02
 0.71400497329E+02 0.71397711240E+02 0.63629585300E+02 0.50478148773E+02 0.35663461832E+02
 0.22763826893E+02 0.13987076544E+02 0.95761474030E+01 0.79641406985E+01 0.71211554040E+01