   2   2   0   0
  0.1011065E+02  0.2399900E-09  0.2399900E-09  0.4054080E-09  0.5000000E-15
  1.000000000000000E-004
  CAR 
 unknown system                          
     72.71268607     -5.52174846  301      6.95621683      1.00000000
     -5.522  0.0000E+00  0.0000E+00
     -5.261  0.0000E+00  0.0000E+00
     -5.000  0.0000E+00  0.0000E+00
     -4.739  0.0000E+00  0.0000E+00
     -4.479  0.0000E+00  0.0000E+00
     -4.218  0.0000E+00  0.0000E+00
     -3.957  0.0000E+00  0.0000E+00
     -3.696 -0.4262E-34 -0.1111E-34
     -3.435 -0.4183E-25 -0.1091E-25
     -3.175 -0.1333E-17 -0.3477E-18
     -2.914 -0.1312E-11 -0.3420E-12
     -2.653 -0.4176E-07 -0.1089E-07
     -2.392 -0.3943E-04 -0.1029E-04
     -2.132 -0.4304E-03 -0.1225E-03
     -1.871  0.8286E-02  0.2038E-02
     -1.610  0.5710E-01  0.1693E-01
     -1.349  0.9473E-01  0.4163E-01
     -1.088  0.6397E-01  0.5831E-01
     -0.828  0.1558E+00  0.9895E-01
     -0.567  0.1777E+00  0.1453E+00
     -0.306  0.1756E+00  0.1911E+00
     -0.045  0.8762E-01  0.2139E+00
      0.215  0.2707E+00  0.2845E+00
      0.476  0.2949E+00  0.3614E+00
      0.737  0.2787E+00  0.4341E+00
      0.998  0.2898E+00  0.5096E+00
      1.259  0.2098E+00  0.5644E+00
      1.519  0.5392E+00  0.7050E+00
      1.780  0.6963E+00  0.8865E+00
      2.041  0.9014E+00  0.1122E+01
      2.302  0.1681E+01  0.1560E+01
      2.562  0.2135E+01  0.2117E+01
      2.823  0.2622E+01  0.2801E+01
      3.084  0.2575E+01  0.3472E+01
      3.345  0.2687E+01  0.4173E+01
      3.606  0.2303E+01  0.4773E+01
      3.866  0.3122E+01  0.5588E+01
      4.127  0.3236E+01  0.6431E+01
      4.388  0.2976E+01  0.7208E+01
      4.649  0.2001E+01  0.7730E+01
      4.910  0.2896E+01  0.8485E+01
      5.170  0.4085E+01  0.9550E+01
      5.431  0.4032E+01  0.1060E+02
      5.692  0.4238E+01  0.1171E+02
      5.953  0.4470E+01  0.1287E+02
      6.213  0.3563E+01  0.1380E+02
      6.474  0.2845E+01  0.1454E+02
      6.735  0.2951E+01  0.1531E+02
      6.996  0.3015E+01  0.1610E+02
      7.257  0.2188E+01  0.1667E+02
      7.517  0.4062E+01  0.1773E+02
      7.778  0.5367E+01  0.1913E+02
      8.039  0.5499E+01  0.2056E+02
      8.300  0.2412E+01  0.2119E+02
      8.560  0.2161E+00  0.2125E+02
      8.821  0.2454E+00  0.2131E+02
      9.082  0.1237E+01  0.2163E+02
      9.343  0.7368E+00  0.2183E+02
      9.604  0.2723E+00  0.2190E+02
      9.864  0.6537E+00  0.2207E+02
     10.125  0.5321E+00  0.2221E+02
     10.386  0.2676E+00  0.2228E+02
     10.647  0.3473E+00  0.2237E+02
     10.907  0.9444E+00  0.2261E+02
     11.168  0.5384E+00  0.2275E+02
     11.429  0.3409E+00  0.2284E+02
     11.690  0.2179E+00  0.2290E+02
     11.951  0.4772E+00  0.2302E+02
     12.211  0.4544E+00  0.2314E+02
     12.472  0.5216E+00  0.2328E+02
     12.733  0.2068E+00  0.2333E+02
     12.994  0.3345E+00  0.2342E+02
     13.255  0.2655E+00  0.2349E+02
     13.515  0.4783E+00  0.2361E+02
     13.776  0.6709E+00  0.2379E+02
     14.037  0.2458E+00  0.2385E+02
     14.298  0.8541E-01  0.2388E+02
     14.558  0.7330E-01  0.2389E+02
     14.819  0.1898E+00  0.2394E+02
     15.080  0.1523E+00  0.2398E+02
     15.341  0.1848E+00  0.2403E+02
     15.602  0.2804E+00  0.2411E+02
     15.862  0.2855E+00  0.2418E+02
     16.123  0.3579E+00  0.2427E+02
     16.384  0.2895E+00  0.2435E+02
     16.645  0.8940E+00  0.2458E+02
     16.905  0.1042E+01  0.2485E+02
     17.166  0.6086E+00  0.2501E+02
     17.427  0.7795E+00  0.2522E+02
     17.688  0.3163E+00  0.2530E+02
     17.949  0.6642E+00  0.2547E+02
     18.209  0.6996E+00  0.2565E+02
     18.470  0.8847E+00  0.2588E+02
     18.731  0.7948E+00  0.2609E+02
     18.992  0.5385E+00  0.2623E+02
     19.252  0.6522E+00  0.2640E+02
     19.513  0.8929E+00  0.2663E+02
     19.774  0.7683E+00  0.2684E+02
     20.035  0.5388E+00  0.2698E+02
     20.296  0.8478E+00  0.2720E+02
     20.556  0.5612E+00  0.2734E+02
     20.817  0.6430E+00  0.2751E+02
     21.078  0.6279E+00  0.2767E+02
     21.339  0.3615E+00  0.2777E+02
     21.600  0.5692E+00  0.2792E+02
     21.860  0.5347E+00  0.2806E+02
     22.121  0.6007E+00  0.2821E+02
     22.382  0.8559E+00  0.2844E+02
     22.643  0.4299E+00  0.2855E+02
     22.903  0.6750E+00  0.2872E+02
     23.164  0.1085E+01  0.2901E+02
     23.425  0.6559E+00  0.2918E+02
     23.686  0.8522E+00  0.2940E+02
     23.947  0.1083E+01  0.2968E+02
     24.207  0.5500E+00  0.2983E+02
     24.468  0.7931E+00  0.3003E+02
     24.729  0.9607E+00  0.3028E+02
     24.990  0.1171E+01  0.3059E+02
     25.250  0.5870E+00  0.3074E+02
     25.511  0.7773E+00  0.3095E+02
     25.772  0.9436E+00  0.3119E+02
     26.033  0.1276E+01  0.3152E+02
     26.294  0.9319E+00  0.3177E+02
     26.554  0.6566E+00  0.3194E+02
     26.815  0.7007E+00  0.3212E+02
     27.076  0.8129E+00  0.3233E+02
     27.337  0.1178E+01  0.3264E+02
     27.597  0.6895E+00  0.3282E+02
     27.858  0.1156E+01  0.3312E+02
     28.119  0.8774E+00  0.3335E+02
     28.380  0.6529E+00  0.3352E+02
     28.641  0.9212E+00  0.3376E+02
     28.901  0.9925E+00  0.3402E+02
     29.162  0.6791E+00  0.3420E+02
     29.423  0.5485E+00  0.3434E+02
     29.684  0.7139E+00  0.3453E+02
     29.945  0.8779E+00  0.3475E+02
     30.205  0.8906E+00  0.3499E+02
     30.466  0.6896E+00  0.3517E+02
     30.727  0.5211E+00  0.3530E+02
     30.988  0.1044E+01  0.3557E+02
     31.248  0.6851E+00  0.3575E+02
     31.509  0.5748E+00  0.3590E+02
     31.770  0.7320E+00  0.3609E+02
     32.031  0.5849E+00  0.3625E+02
     32.292  0.8564E+00  0.3647E+02
     32.552  0.1163E+01  0.3677E+02
     32.813  0.6055E+00  0.3693E+02
     33.074  0.7972E+00  0.3714E+02
     33.335  0.9878E+00  0.3740E+02
     33.595  0.8940E+00  0.3763E+02
     33.856  0.7800E+00  0.3783E+02
     34.117  0.1024E+01  0.3810E+02
     34.378  0.6611E+00  0.3827E+02
     34.639  0.1023E+01  0.3854E+02
     34.899  0.1142E+01  0.3884E+02
     35.160  0.5098E+00  0.3897E+02
     35.421  0.7482E+00  0.3917E+02
     35.682  0.1093E+01  0.3945E+02
     35.943  0.1222E+01  0.3977E+02
     36.203  0.8795E+00  0.4000E+02
     36.464  0.7979E+00  0.4021E+02
     36.725  0.7427E+00  0.4040E+02
     36.986  0.5317E+00  0.4054E+02
     37.246  0.8535E+00  0.4076E+02
     37.507  0.9200E+00  0.4100E+02
     37.768  0.6815E+00  0.4118E+02
     38.029  0.8566E+00  0.4140E+02
     38.290  0.7586E+00  0.4160E+02
     38.550  0.1270E+01  0.4193E+02
     38.811  0.8398E+00  0.4215E+02
     39.072  0.1067E+01  0.4243E+02
     39.333  0.9779E+00  0.4268E+02
     39.593  0.5972E+00  0.4284E+02
     39.854  0.1001E+01  0.4310E+02
     40.115  0.1112E+01  0.4339E+02
     40.376  0.7097E+00  0.4358E+02
     40.637  0.6699E+00  0.4375E+02
     40.897  0.7126E+00  0.4394E+02
     41.158  0.8623E+00  0.4416E+02
     41.419  0.7671E+00  0.4436E+02
     41.680  0.9408E+00  0.4461E+02
     41.940  0.1005E+01  0.4487E+02
     42.201  0.1185E+01  0.4518E+02
     42.462  0.1393E+01  0.4554E+02
     42.723  0.8261E+00  0.4576E+02
     42.984  0.1149E+01  0.4606E+02
     43.244  0.9340E+00  0.4630E+02
     43.505  0.9211E+00  0.4654E+02
     43.766  0.1077E+01  0.4682E+02
     44.027  0.1396E+01  0.4719E+02
     44.288  0.9778E+00  0.4744E+02
     44.548  0.9132E+00  0.4768E+02
     44.809  0.1296E+01  0.4802E+02
     45.070  0.1222E+01  0.4833E+02
     45.331  0.8008E+00  0.4854E+02
     45.591  0.7852E+00  0.4875E+02
     45.852  0.7860E+00  0.4895E+02
     46.113  0.6758E+00  0.4913E+02
     46.374  0.6742E+00  0.4931E+02
     46.635  0.1080E+01  0.4959E+02
     46.895  0.8288E+00  0.4980E+02
     47.156  0.4994E+00  0.4993E+02
     47.417  0.1016E+01  0.5020E+02
     47.678  0.1009E+01  0.5046E+02
     47.938  0.1454E+01  0.5084E+02
     48.199  0.8738E+00  0.5107E+02
     48.460  0.8831E+00  0.5130E+02
     48.721  0.1679E+01  0.5174E+02
     48.982  0.1305E+01  0.5208E+02
     49.242  0.9840E+00  0.5233E+02
     49.503  0.7163E+00  0.5252E+02
     49.764  0.6636E+00  0.5269E+02
     50.025  0.1105E+01  0.5298E+02
     50.285  0.1300E+01  0.5332E+02
     50.546  0.1161E+01  0.5362E+02
     50.807  0.1005E+01  0.5389E+02
     51.068  0.1042E+01  0.5416E+02
     51.329  0.1115E+01  0.5445E+02
     51.589  0.1122E+01  0.5474E+02
     51.850  0.1415E+01  0.5511E+02
     52.111  0.9349E+00  0.5535E+02
     52.372  0.1762E+01  0.5581E+02
     52.633  0.8320E+00  0.5603E+02
     52.893  0.1160E+01  0.5633E+02
     53.154  0.1327E+01  0.5668E+02
     53.415  0.9843E+00  0.5693E+02
     53.676  0.1068E+01  0.5721E+02
     53.936  0.7373E+00  0.5741E+02
     54.197  0.9593E+00  0.5766E+02
     54.458  0.1439E+01  0.5803E+02
     54.719  0.1551E+01  0.5844E+02
     54.980  0.1538E+01  0.5884E+02
     55.240  0.9734E+00  0.5909E+02
     55.501  0.9090E+00  0.5933E+02
     55.762  0.1616E+01  0.5975E+02
     56.023  0.1385E+01  0.6011E+02
     56.283  0.1276E+01  0.6044E+02
     56.544  0.1775E+01  0.6091E+02
     56.805  0.1695E+01  0.6135E+02
     57.066  0.1623E+01  0.6177E+02
     57.327  0.1156E+01  0.6207E+02
     57.587  0.1529E+01  0.6247E+02
     57.848  0.1240E+01  0.6279E+02
     58.109  0.1270E+01  0.6313E+02
     58.370  0.1857E+01  0.6361E+02
     58.630  0.1546E+01  0.6401E+02
     58.891  0.2159E+01  0.6458E+02
     59.152  0.1843E+01  0.6506E+02
     59.413  0.1725E+01  0.6551E+02
     59.674  0.1871E+01  0.6599E+02
     59.934  0.1863E+01  0.6648E+02
     60.195  0.1692E+01  0.6692E+02
     60.456  0.1567E+01  0.6733E+02
     60.717  0.1030E+01  0.6760E+02
     60.978  0.1497E+01  0.6799E+02
     61.238  0.1442E+01  0.6837E+02
     61.499  0.1543E+01  0.6877E+02
     61.760  0.1436E+01  0.6914E+02
     62.021  0.1967E+01  0.6966E+02
     62.281  0.1785E+01  0.7012E+02
     62.542  0.1435E+01  0.7050E+02
     62.803  0.1788E+01  0.7096E+02
     63.064  0.1759E+01  0.7142E+02
     63.325  0.1535E+01  0.7182E+02
     63.585  0.1537E+01  0.7222E+02
     63.846  0.1679E+01  0.7266E+02
     64.107  0.1446E+01  0.7304E+02
     64.368  0.1682E+01  0.7347E+02
     64.628  0.2064E+01  0.7401E+02
     64.889  0.2091E+01  0.7456E+02
     65.150  0.1845E+01  0.7504E+02
     65.411  0.2000E+01  0.7556E+02
     65.672  0.1792E+01  0.7603E+02
     65.932  0.1990E+01  0.7655E+02
     66.193  0.1931E+01  0.7705E+02
     66.454  0.1387E+01  0.7741E+02
     66.715  0.1708E+01  0.7786E+02
     66.975  0.1992E+01  0.7838E+02
     67.236  0.1704E+01  0.7882E+02
     67.497  0.1242E+01  0.7915E+02
     67.758  0.9957E+00  0.7941E+02
     68.019  0.1077E+01  0.7969E+02
     68.279  0.9216E+00  0.7993E+02
     68.540  0.1600E+00  0.7997E+02
     68.801  0.5075E-01  0.7998E+02
     69.062  0.1060E-01  0.7998E+02
     69.323  0.5864E-01  0.8000E+02
     69.583  0.5384E-03  0.8000E+02
     69.844 -0.3501E-03  0.8000E+02
     70.105 -0.4544E-06  0.8000E+02
     70.366 -0.1524E-10  0.8000E+02
     70.626 -0.1535E-16  0.8000E+02
     70.887  0.0000E+00  0.8000E+02
     71.148  0.0000E+00  0.8000E+02
     71.409  0.0000E+00  0.8000E+02
     71.670  0.0000E+00  0.8000E+02
     71.930  0.0000E+00  0.8000E+02
     72.191  0.0000E+00  0.8000E+02
     72.452  0.0000E+00  0.8000E+02
     72.713  0.0000E+00  0.8000E+02
