    2    2    1    1
  0.1011065E+02  0.2399900E-09  0.2399900E-09  0.4054080E-09  0.5000000E-15
  1.000000000000000E-004
  CAR 
 unknown system                          
     16     96     40
 
  0.0000000E+00  0.0000000E+00  0.0000000E+00  0.7513148E-03
    1       -1.965638   1.000000
    2        1.979809   1.000000
    3        5.022075   1.000000
    4        5.372440   1.000000
    5        5.372564   1.000000
    6        5.737042   1.000000
    7        5.737191   1.000000
    8        6.456165   1.001157
    9        6.456201   1.001158
   10        6.727456   1.034333
   11        7.715861  -0.000001
   12        7.715899  -0.000001
   13       14.903352   0.000000
   14       29.871856   0.000000
   15       31.792362   0.000000
   16       33.129104   0.000000
   17       34.771604   0.000000
   18       34.771660   0.000000
   19       35.690833   0.000000
   20       35.690990   0.000000
   21       38.628515   0.000000
   22       38.934433   0.000000
   23       38.934464   0.000000
   24       40.028948   0.000000
   25       42.705622   0.000000
   26       42.705637   0.000000
   27       44.030356   0.000000
   28       46.220870   0.000000
   29       46.221211   0.000000
   30       48.071161   0.000000
   31       48.071274   0.000000
   32       51.121611   0.000000
   33       59.402643   0.000000
   34       62.049476   0.000000
   35       62.050435   0.000000
   36       62.388175   0.000000
   37       63.437729   0.000000
   38       64.404097   0.000000
   39       64.405286   0.000000
   40       65.954036   0.000000
 
  0.9090909E-01  0.3677141E-18  0.0000000E+00  0.4507889E-02
    1       -1.643367   1.000000
    2        2.207161   1.000000
    3        4.907353   1.000000
    4        5.423871   1.000000
    5        5.553067   1.000000
    6        5.637916   1.000000
    7        5.672176   1.000000
    8        5.903950   1.000000
    9        6.340582   1.000060
   10        6.363903   1.000116
   11        7.750937  -0.000000
   12        8.999135  -0.000000
   13       14.919814   0.000000
   14       28.560461   0.000000
   15       31.205500   0.000000
   16       32.020380   0.000000
   17       32.064930   0.000000
   18       34.713610   0.000000
   19       35.083540   0.000000
   20       38.309206   0.000000
   21       38.405534   0.000000
   22       38.493357   0.000000
   23       39.315305   0.000000
   24       39.802504   0.000000
   25       43.640006   0.000000
   26       43.772991   0.000000
   27       43.881569   0.000000
   28       44.149835   0.000000
   29       47.835593   0.000000
   30       49.554805   0.000000
   31       50.444830   0.000000
   32       52.889717   0.000000
   33       58.687093   0.000000
   34       60.848022   0.000000
   35       61.315746   0.000000
   36       61.489682   0.000000
   37       61.957013   0.000000
   38       65.191678   0.000000
   39       65.805108   0.000000
   40       66.250189   0.000000
 
  0.1818182E+00 -0.4963485E-17  0.0000000E+00  0.4507889E-02
    1       -0.728669   1.000000
    2        2.745161   1.000000
    3        4.528450   1.000000
    4        4.578849   1.000000
    5        5.285161   1.000000
    6        5.867534   1.000000
    7        6.070342   1.000000
    8        6.070383   1.000000
    9        6.080338   1.000000
   10        6.371299   1.000141
   11        7.827638  -0.000000
   12       10.894760  -0.000000
   13       15.010302   0.000000
   14       24.829175   0.000000
   15       29.280480   0.000000
   16       30.026445   0.000000
   17       30.843343   0.000000
   18       32.574624   0.000000
   19       35.474537   0.000000
   20       37.284134   0.000000
   21       37.607875   0.000000
   22       37.884826   0.000000
   23       39.861482   0.000000
   24       41.374259   0.000000
   25       43.187302   0.000000
   26       44.451467   0.000000
   27       46.281994   0.000000
   28       48.588830   0.000000
   29       50.583128   0.000000
   30       53.084998   0.000000
   31       53.389356   0.000000
   32       56.365797   0.000000
   33       57.129443   0.000000
   34       58.269333   0.000000
   35       59.156858   0.000000
   36       60.880627   0.000000
   37       62.031010   0.000000
   38       65.549573   0.000000
   39       66.221483   0.000000
   40       67.819869   0.000000
 
  0.2727273E+00 -0.4345254E-16  0.0000000E+00  0.4507889E-02
    1        0.583081   1.000000
    2        3.033848   1.000000
    3        3.650881   1.000000
    4        4.443059   1.000000
    5        5.140963   1.000000
    6        5.726499   1.000000
    7        5.764599   1.000000
    8        6.580426   1.011586
    9        6.806051   0.976377
   10        7.026414   0.222281
   11        7.885853  -0.000000
   12       13.000322   0.000000
   13       15.196831   0.000000
   14       20.927560   0.000000
   15       26.899149   0.000000
   16       27.306298   0.000000
   17       28.547274   0.000000
   18       31.965340   0.000000
   19       33.629232   0.000000
   20       37.011913   0.000000
   21       37.634972   0.000000
   22       37.967226   0.000000
   23       38.247196   0.000000
   24       42.071966   0.000000
   25       46.653076   0.000000
   26       48.596894   0.000000
   27       49.653073   0.000000
   28       51.533458   0.000000
   29       52.907401   0.000000
   30       54.100194   0.000000
   31       55.290000   0.000000
   32       56.516284   0.000000
   33       58.507227   0.000000
   34       59.377711   0.000000
   35       59.435986   0.000000
   36       60.414134   0.000000
   37       62.764992   0.000000
   38       65.235724   0.000000
   39       66.741967   0.000000
   40       66.857285   0.000000
 
  0.3636364E+00 -0.5418601E-16  0.0000000E+00  0.4507889E-02
    1        1.808667   1.000000
    2        2.805827   1.000000
    3        3.063640   1.000000
    4        4.638052   1.000000
    5        5.407098   1.000000
    6        5.428229   1.000000
    7        5.512324   1.000000
    8        7.541377  -0.000141
    9        7.686696  -0.000002
   10        7.720220  -0.000000
   11        7.914803  -0.000000
   12       14.843355   0.000000
   13       15.237496   0.000000
   14       18.320526   0.000000
   15       24.115072   0.000000
   16       25.071582   0.000000
   17       25.917320   0.000000
   18       30.924294   0.000000
   19       32.411700   0.000000
   20       35.670125   0.000000
   21       36.640676   0.000000
   22       38.873597   0.000000
   23       40.379878   0.000000
   24       42.707560   0.000000
   25       50.384050   0.000000
   26       50.516552   0.000000
   27       50.696746   0.000000
   28       53.701169   0.000000
   29       54.093798   0.000000
   30       55.240521   0.000000
   31       57.261097   0.000000
   32       57.937313   0.000000
   33       58.594573   0.000000
   34       59.639584   0.000000
   35       61.310642   0.000000
   36       63.124841   0.000000
   37       64.655689   0.000000
   38       65.458732   0.000000
   39       66.003725   0.000000
   40       66.412882   0.000000
 
  0.4545455E+00 -0.1511072E-16  0.0000000E+00  0.4507889E-02
    1        2.360476   1.000000
    2        2.574821   1.000000
    3        2.770920   1.000000
    4        5.102812   1.000000
    5        5.221405   1.000000
    6        5.370037   1.000000
    7        5.666918   1.000000
    8        7.923890  -0.000000
    9        7.987958  -0.000000
   10        8.136919  -0.000000
   11        9.309279  -0.000000
   12       12.698656   0.000000
   13       17.344237   0.000000
   14       18.561827   0.000000
   15       21.557700   0.000000
   16       23.386004   0.000000
   17       24.052591   0.000000
   18       30.278024   0.000000
   19       32.038761   0.000000
   20       34.582189   0.000000
   21       36.434551   0.000000
   22       39.532044   0.000000
   23       42.517443   0.000000
   24       43.171764   0.000000
   25       47.160784   0.000000
   26       51.454984   0.000000
   27       52.682527   0.000000
   28       55.964306   0.000000
   29       56.829170   0.000000
   30       57.622462   0.000000
   31       58.160132   0.000000
   32       59.742656   0.000000
   33       59.868154   0.000000
   34       61.634827   0.000000
   35       61.859543   0.000000
   36       62.661432   0.000000
   37       64.639324   0.000000
   38       65.150449   0.000000
   39       65.174802   0.000000
   40       65.956719   0.000000
 
  0.9090909E-01  0.9090909E-01  0.0000000E+00  0.4507889E-02
    1       -1.022569   1.000000
    2        2.605388   1.000000
    3        4.640571   1.000000
    4        4.830319   1.000000
    5        5.443622   1.000000
    6        5.597835   1.000000
    7        5.931014   1.000000
    8        5.964015   1.000000
    9        6.271635   1.000007
   10        6.351524   1.000082
   11        7.785917  -0.000000
   12       10.369950  -0.000000
   13       14.980106   0.000000
   14       26.534660   0.000000
   15       27.760130   0.000000
   16       32.147952   0.000000
   17       32.370393   0.000000
   18       33.253594   0.000000
   19       33.809686   0.000000
   20       36.208099   0.000000
   21       37.661500   0.000000
   22       40.441683   0.000000
   23       41.267353   0.000000
   24       41.786248   0.000000
   25       42.620762   0.000000
   26       42.772601   0.000000
   27       42.784418   0.000000
   28       48.972643   0.000000
   29       51.284396   0.000000
   30       51.458658   0.000000
   31       51.467191   0.000000
   32       55.640817   0.000000
   33       57.674527   0.000000
   34       59.217809   0.000000
   35       59.523575   0.000000
   36       60.873205   0.000000
   37       61.653512   0.000000
   38       65.834399   0.000000
   39       66.334880   0.000000
   40       67.655396   0.000000
 
  0.1818182E+00  0.9090909E-01  0.0000000E+00  0.9015778E-02
    1        0.111822   1.000000
    2        3.119306   1.000000
    3        3.969672   1.000000
    4        4.278406   1.000000
    5        5.210980   1.000000
    6        5.583716   1.000000
    7        6.014148   1.000000
    8        6.124267   1.000000
    9        6.606714   1.016528
   10        6.948451   0.532832
   11        7.817357  -0.000000
   12       12.258749  -0.000000
   13       15.165462   0.000000
   14       22.904278   0.000000
   15       25.414873   0.000000
   16       29.039400   0.000000
   17       31.279690   0.000000
   18       31.354415   0.000000
   19       34.396421   0.000000
   20       35.995256   0.000000
   21       36.063406   0.000000
   22       40.754388   0.000000
   23       40.837773   0.000000
   24       41.152570   0.000000
   25       44.392755   0.000000
   26       45.477763   0.000000
   27       47.000534   0.000000
   28       51.690754   0.000000
   29       53.512836   0.000000
   30       54.322129   0.000000
   31       55.089690   0.000000
   32       56.976675   0.000000
   33       57.825726   0.000000
   34       57.907871   0.000000
   35       59.156714   0.000000
   36       59.381982   0.000000
   37       62.170665   0.000000
   38       65.798988   0.000000
   39       66.545438   0.000000
   40       67.614605   0.000000
 
  0.2727273E+00  0.9090909E-01  0.0000000E+00  0.9015778E-02
    1        1.457245   1.000000
    2        3.104977   1.000000
    3        3.317508   1.000000
    4        4.297417   1.000000
    5        5.274469   1.000000
    6        5.293795   1.000000
    7        5.779695   1.000000
    8        6.708703   1.035433
    9        7.354403  -0.008232
   10        7.835349  -0.000000
   11        7.835905  -0.000000
   12       14.396762   0.000000
   13       15.397398   0.000000
   14       19.365108   0.000000
   15       23.726905   0.000000
   16       25.778275   0.000000
   17       28.150482   0.000000
   18       30.073867   0.000000
   19       33.748377   0.000000
   20       34.695342   0.000000
   21       37.244559   0.000000
   22       40.667283   0.000000
   23       40.693943   0.000000
   24       42.846350   0.000000
   25       46.395587   0.000000
   26       49.192979   0.000000
   27       51.147245   0.000000
   28       52.266288   0.000000
   29       52.523471   0.000000
   30       55.609648   0.000000
   31       57.237093   0.000000
   32       57.594434   0.000000
   33       58.493276   0.000000
   34       59.057523   0.000000
   35       60.787177   0.000000
   36       62.510541   0.000000
   37       63.452824   0.000000
   38       65.383105   0.000000
   39       65.850844   0.000000
   40       67.596215   0.000000
 
  0.3636364E+00  0.9090909E-01  0.0000000E+00  0.9015778E-02
    1        2.373990   1.000000
    2        2.815740   1.000000
    3        2.921649   1.000000
    4        4.666538   1.000000
    5        5.159076   1.000000
    6        5.447488   1.000000
    7        5.590554   1.000000
    8        7.527503  -0.000204
    9        7.840573  -0.000000
   10        7.888443  -0.000000
   11        8.998237  -0.000000
   12       14.143658   0.000000
   13       16.640059   0.000000
   14       18.301084   0.000000
   15       22.441108   0.000000
   16       22.872276   0.000000
   17       25.038032   0.000000
   18       29.175877   0.000000
   19       32.786452   0.000000
   20       34.117864   0.000000
   21       37.805780   0.000000
   22       41.103828   0.000000
   23       42.291900   0.000000
   24       43.125903   0.000000
   25       49.068960   0.000000
   26       49.193352   0.000000
   27       51.759537   0.000000
   28       53.119647   0.000000
   29       54.672013   0.000000
   30       56.996564   0.000000
   31       57.289788   0.000000
   32       58.783561   0.000000
   33       59.974956   0.000000
   34       62.000831   0.000000
   35       62.019934   0.000000
   36       63.504148   0.000000
   37       64.036600   0.000000
   38       65.302096   0.000000
   39       66.458019   0.000000
   40       66.628755   0.000000
 
  0.4545455E+00  0.9090909E-01  0.0000000E+00  0.4507889E-02
    1        2.582518   1.000000
    2        2.704628   1.000000
    3        2.789579   1.000000
    4        4.987491   1.000000
    5        5.177259   1.000000
    6        5.258071   1.000000
    7        5.718941   1.000000
    8        7.840660  -0.000000
    9        7.983998  -0.000000
   10        7.990123  -0.000000
   11       10.204477  -0.000000
   12       12.335976  -0.000000
   13       18.158320   0.000000
   14       19.003662   0.000000
   15       21.136241   0.000000
   16       21.757832   0.000000
   17       23.533816   0.000000
   18       28.858959   0.000000
   19       32.397061   0.000000
   20       33.952659   0.000000
   21       37.853413   0.000000
   22       41.675864   0.000000
   23       42.533948   0.000000
   24       44.231622   0.000000
   25       46.710206   0.000000
   26       51.466184   0.000000
   27       51.486229   0.000000
   28       54.740383   0.000000
   29       55.802945   0.000000
   30       56.189071   0.000000
   31       59.229394   0.000000
   32       60.014763   0.000000
   33       60.120044   0.000000
   34       60.283563   0.000000
   35       62.514991   0.000000
   36       64.897632   0.000000
   37       65.282762   0.000000
   38       65.572873   0.000000
   39       65.888719   0.000000
   40       67.391094   0.000000
 
  0.1818182E+00  0.1818182E+00  0.0000000E+00  0.4507889E-02
    1        1.342219   1.000000
    2        3.465554   1.000000
    3        3.522825   1.000000
    4        3.840285   1.000000
    5        5.173185   1.000000
    6        5.268046   1.000000
    7        5.934945   1.000000
    8        6.260762   1.000005
    9        7.334851  -0.011116
   10        7.755183  -0.000000
   11        7.887253  -0.000000
   12       14.124939   0.000000
   13       15.581404   0.000000
   14       20.957187   0.000000
   15       21.712548   0.000000
   16       27.221623   0.000000
   17       28.642177   0.000000
   18       30.391358   0.000000
   19       31.203655   0.000000
   20       37.194502   0.000000
   21       37.540457   0.000000
   22       40.985795   0.000000
   23       41.926461   0.000000
   24       44.118426   0.000000
   25       44.537612   0.000000
   26       46.559020   0.000000
   27       48.245578   0.000000
   28       53.185299   0.000000
   29       54.030688   0.000000
   30       55.518047   0.000000
   31       55.951070   0.000000
   32       58.128329   0.000000
   33       58.251787   0.000000
   34       60.473329   0.000000
   35       60.927720   0.000000
   36       61.377362   0.000000
   37       61.533115   0.000000
   38       65.723274   0.000000
   39       65.891751   0.000000
   40       68.665719   0.000000
 
  0.2727273E+00  0.1818182E+00  0.0000000E+00  0.9015778E-02
    1        2.541947   1.000000
    2        3.118382   1.000000
    3        3.313526   1.000000
    4        3.971719   1.000000
    5        4.958843   1.000000
    6        5.530677   1.000000
    7        5.581976   1.000000
    8        6.774320   1.013006
    9        7.699568  -0.000001
   10        7.855048  -0.000000
   11        9.094715  -0.000000
   12       15.795620   0.000000
   13       16.289365   0.000000
   14       18.329971   0.000000
   15       20.163771   0.000000
   16       24.685389   0.000000
   17       27.052112   0.000000
   18       27.078128   0.000000
   19       29.867172   0.000000
   20       37.956735   0.000000
   21       39.083477   0.000000
   22       41.981680   0.000000
   23       43.874971   0.000000
   24       44.238069   0.000000
   25       46.357164   0.000000
   26       47.921154   0.000000
   27       49.563733   0.000000
   28       51.655766   0.000000
   29       54.680052   0.000000
   30       54.855011   0.000000
   31       56.481085   0.000000
   32       58.645087   0.000000
   33       60.199241   0.000000
   34       61.118289   0.000000
   35       63.285234   0.000000
   36       63.436184   0.000000
   37       64.544928   0.000000
   38       66.039885   0.000000
   39       66.624077   0.000000
   40       67.686504   0.000000
 
  0.3636364E+00  0.1818182E+00  0.0000000E+00  0.9015778E-02
    1        2.946980   1.000000
    2        3.017266   1.000000
    3        3.102263   1.000000
    4        4.408268   1.000000
    5        4.978150   1.000000
    6        5.221233   1.000000
    7        5.785008   1.000000
    8        7.407712  -0.003192
    9        7.668098  -0.000003
   10        7.921150  -0.000000
   11       10.643719  -0.000000
   12       13.665426   0.000000
   13       18.498097   0.000000
   14       18.673414   0.000000
   15       19.586430   0.000000
   16       22.099959   0.000000
   17       24.267896   0.000000
   18       26.455445   0.000000
   19       29.223600   0.000000
   20       37.773616   0.000000
   21       40.449090   0.000000
   22       42.696707   0.000000
   23       44.422947   0.000000
   24       44.784068   0.000000
   25       48.280674   0.000000
   26       48.752936   0.000000
   27       50.647330   0.000000
   28       50.785020   0.000000
   29       54.241039   0.000000
   30       55.493892   0.000000
   31       55.642342   0.000000
   32       59.291385   0.000000
   33       59.593550   0.000000
   34       60.652776   0.000000
   35       64.348304   0.000000
   36       65.180608   0.000000
   37       66.234175   0.000000
   38       66.858981   0.000000
   39       66.989054   0.000000
   40       67.728710   0.000000
 
  0.2727273E+00  0.2727273E+00  0.0000000E+00  0.4507889E-02
    1        3.055168   1.000000
    2        3.319288   1.000000
    3        3.678838   1.000000
    4        3.680957   1.000000
    5        4.823174   1.000000
    6        5.244180   1.000000
    7        5.835895   1.000000
    8        7.031169   0.206192
    9        7.579406  -0.000048
   10        7.902551  -0.000000
   11       10.752148  -0.000000
   12       15.759158   0.000000
   13       16.202476   0.000000
   14       18.520175   0.000000
   15       19.582109   0.000000
   16       24.019847   0.000000
   17       24.119311   0.000000
   18       25.882885   0.000000
   19       26.802088   0.000000
   20       40.434569   0.000000
   21       41.569801   0.000000
   22       43.652168   0.000000
   23       44.824686   0.000000
   24       46.557702   0.000000
   25       46.676111   0.000000
   26       46.684555   0.000000
   27       49.203065   0.000000
   28       51.773154   0.000000
   29       52.226409   0.000000
   30       54.496111   0.000000
   31       55.743503   0.000000
   32       58.096490   0.000000
   33       59.414501   0.000000
   34       60.858602   0.000000
   35       64.123264   0.000000
   36       65.341943   0.000000
   37       65.798599   0.000000
   38       67.391613   0.000000
   39       67.975748   0.000000
   40       68.099465   0.000000
 
  0.3636364E+00  0.2727273E+00  0.0000000E+00  0.4507889E-02
    1        3.050636   1.000000
    2        3.503557   1.000000
    3        3.507625   1.000000
    4        4.004594   1.000000
    5        4.883984   1.000000
    6        4.989102   1.000000
    7        5.984008   1.000000
    8        7.369409  -0.006423
    9        7.533473  -0.000174
   10        7.644752  -0.000006
   11       12.468166   0.000000
   12       13.724926   0.000000
   13       15.821786   0.000000
   14       20.452907   0.000000
   15       20.546257   0.000000
   16       21.900242   0.000000
   17       23.839980   0.000000
   18       24.333238   0.000000
   19       26.191458   0.000000
   20       40.919475   0.000000
   21       43.482783   0.000000
   22       44.201222   0.000000
   23       45.347746   0.000000
   24       45.826175   0.000000
   25       47.557312   0.000000
   26       47.604963   0.000000
   27       49.948645   0.000000
   28       50.561705   0.000000
   29       50.751178   0.000000
   30       54.228759   0.000000
   31       55.960858   0.000000
   32       56.205543   0.000000
   33       59.440556   0.000000
   34       60.050825   0.000000
   35       65.339925   0.000000
   36       65.742923   0.000000
   37       66.919730   0.000000
   38       67.311446   0.000000
   39       67.910890   0.000000
   40       68.043146   0.000000
 
  0.0000000E+00  0.0000000E+00  0.9090909E-01  0.1502630E-02
    1       -1.880633   1.000000
    2        1.954974   1.000000
    3        4.995512   1.000000
    4        5.352266   1.000000
    5        5.352401   1.000000
    6        5.712691   1.000000
    7        5.712843   1.000000
    8        6.477268   1.001829
    9        6.505917   1.003267
   10        6.505955   1.003270
   11        7.702253  -0.000001
   12        7.702293  -0.000001
   13       15.311105   0.000000
   14       29.741960   0.000000
   15       31.349234   0.000000
   16       32.939502   0.000000
   17       34.825976   0.000000
   18       34.826030   0.000000
   19       35.651085   0.000000
   20       35.651293   0.000000
   21       38.808235   0.000000
   22       38.808257   0.000000
   23       38.996244   0.000000
   24       40.295126   0.000000
   25       42.290217   0.000000
   26       42.290233   0.000000
   27       44.360259   0.000000
   28       46.467507   0.000000
   29       46.467875   0.000000
   30       48.498689   0.000000
   31       48.498832   0.000000
   32       51.014176   0.000000
   33       58.740877   0.000000
   34       61.745805   0.000000
   35       61.746884   0.000000
   36       62.429860   0.000000
   37       62.811007   0.000000
   38       62.811548   0.000000
   39       64.182538   0.000000
   40       67.222208   0.000000
 
  0.9090909E-01  0.3677141E-18  0.9090909E-01  0.9015778E-02
    1       -1.560195   1.000000
    2        2.187835   1.000000
    3        4.906300   1.000000
    4        5.365965   1.000000
    5        5.432959   1.000000
    6        5.530229   1.000000
    7        5.757857   1.000000
    8        5.877384   1.000000
    9        6.404059   1.000334
   10        6.415567   1.000445
   11        7.741904  -0.000000
   12        8.817954  -0.000000
   13       15.366540   0.000000
   14       28.567311   0.000000
   15       31.014883   0.000000
   16       31.619258   0.000000
   17       32.140419   0.000000
   18       34.075576   0.000000
   19       35.621435   0.000000
   20       38.019848   0.000000
   21       38.315929   0.000000
   22       38.635902   0.000000
   23       39.332454   0.000000
   24       40.264682   0.000000
   25       43.323700   0.000000
   26       43.650359   0.000000
   27       44.504949   0.000000
   28       44.611569   0.000000
   29       47.712580   0.000000
   30       49.895021   0.000000
   31       50.799665   0.000000
   32       52.883316   0.000000
   33       57.584692   0.000000
   34       60.296846   0.000000
   35       61.007587   0.000000
   36       62.075189   0.000000
   37       62.457645   0.000000
   38       63.999046   0.000000
   39       65.167278   0.000000
   40       67.163862   0.000000
 
  0.1818182E+00 -0.4963485E-17  0.9090909E-01  0.9015778E-02
    1       -0.653102   1.000000
    2        2.741859   1.000000
    3        4.432081   1.000000
    4        4.598955   1.000000
    5        5.252243   1.000000
    6        5.746344   1.000000
    7        5.945937   1.000000
    8        6.207934   1.000001
    9        6.241759   1.000003
   10        6.376785   1.000164
   11        7.810734  -0.000000
   12       10.521285  -0.000000
   13       15.578195   0.000000
   14       24.890993   0.000000
   15       29.381747   0.000000
   16       29.638378   0.000000
   17       31.019224   0.000000
   18       32.044224   0.000000
   19       35.475572   0.000000
   20       36.996521   0.000000
   21       37.038854   0.000000
   22       38.299608   0.000000
   23       40.264566   0.000000
   24       42.167787   0.000000
   25       43.513270   0.000000
   26       44.492274   0.000000
   27       46.051056   0.000000
   28       48.616347   0.000000
   29       50.556169   0.000000
   30       53.107703   0.000000
   31       53.751782   0.000000
   32       55.560552   0.000000
   33       56.247000   0.000000
   34       58.566029   0.000000
   35       59.695671   0.000000
   36       60.792594   0.000000
   37       62.231584   0.000000
   38       65.043468   0.000000
   39       67.047288   0.000000
   40       67.064564   0.000000
 
  0.2727273E+00 -0.4345254E-16  0.9090909E-01  0.9015778E-02
    1        0.637181   1.000000
    2        3.045302   1.000000
    3        3.614095   1.000000
    4        4.458413   1.000000
    5        5.078731   1.000000
    6        5.749939   1.000000
    7        5.786483   1.000000
    8        6.616332   1.018573
    9        6.819553   0.953915
   10        7.004666   0.301512
   11        7.863187  -0.000000
   12       12.285312  -0.000000
   13       16.048712   0.000000
   14       20.998057   0.000000
   15       26.739467   0.000000
   16       27.012833   0.000000
   17       28.992812   0.000000
   18       31.760472   0.000000
   19       33.699182   0.000000
   20       35.835450   0.000000
   21       36.794112   0.000000
   22       38.810815   0.000000
   23       38.949636   0.000000
   24       43.087237   0.000000
   25       46.780653   0.000000
   26       48.535382   0.000000
   27       49.309158   0.000000
   28       50.253377   0.000000
   29       53.320738   0.000000
   30       54.192371   0.000000
   31       55.598950   0.000000
   32       57.223053   0.000000
   33       58.059295   0.000000
   34       58.238390   0.000000
   35       59.717655   0.000000
   36       60.797304   0.000000
   37       62.948882   0.000000
   38       65.349762   0.000000
   39       66.042499   0.000000
   40       67.008507   0.000000
 
  0.3636364E+00 -0.5418601E-16  0.9090909E-01  0.9015778E-02
    1        1.803457   1.000000
    2        2.789086   1.000000
    3        3.140743   1.000000
    4        4.474360   1.000000
    5        5.416630   1.000000
    6        5.548565   1.000000
    7        5.634072   1.000000
    8        7.547356  -0.000119
    9        7.630972  -0.000010
   10        7.683291  -0.000002
   11        7.909878  -0.000000
   12       13.635488   0.000000
   13       16.374870   0.000000
   14       18.517144   0.000000
   15       23.623144   0.000000
   16       25.200789   0.000000
   17       26.469522   0.000000
   18       30.874010   0.000000
   19       32.438345   0.000000
   20       34.546137   0.000000
   21       37.783467   0.000000
   22       37.942069   0.000000
   23       40.256715   0.000000
   24       43.985097   0.000000
   25       48.581376   0.000000
   26       50.342698   0.000000
   27       52.170919   0.000000
   28       52.856841   0.000000
   29       54.347584   0.000000
   30       55.930164   0.000000
   31       56.889128   0.000000
   32       58.166266   0.000000
   33       58.631897   0.000000
   34       59.443556   0.000000
   35       61.461782   0.000000
   36       63.058942   0.000000
   37       64.914296   0.000000
   38       64.952620   0.000000
   39       66.140694   0.000000
   40       66.573191   0.000000
 
  0.4545455E+00 -0.1511072E-16  0.9090909E-01  0.9015778E-02
    1        2.268675   1.000000
    2        2.496663   1.000000
    3        3.014472   1.000000
    4        4.563265   1.000000
    5        5.412215   1.000000
    6        5.658753   1.000000
    7        5.845018   1.000000
    8        7.844110  -0.000000
    9        8.000299  -0.000000
   10        8.141181  -0.000000
   11        9.221591  -0.000000
   12       12.535040   0.000000
   13       17.070220   0.000000
   14       18.659674   0.000000
   15       21.646718   0.000000
   16       23.863137   0.000000
   17       24.190689   0.000000
   18       30.264958   0.000000
   19       32.045223   0.000000
   20       33.699882   0.000000
   21       37.357275   0.000000