<?xml version="1.0" encoding="ISO-8859-1"?>
<modeling>
 <generator>
  <i name="program" type="string">vasp </i>
  <i name="version" type="string">6.2.0  </i>
  <i name="subversion" type="string">18Jan21 (build Mar 17 2021 09:06:54) complex                          serial </i>
  <i name="platform" type="string">LinuxIFC </i>
  <i name="date" type="string">2021 09 09 </i>
  <i name="time" type="string">12:08:18 </i>
 </generator>
 <incar>
  <i type="string" name="PREC">normal</i>
  <i type="int" name="ICHARG">     1</i>
  <i type="int" name="IBRION">     1</i>
  <i name="EDIFF">      0.00000100</i>
  <i type="int" name="NSW">     0</i>
  <i type="int" name="ISIF">     2</i>
  <i name="ENCUT">    280.00000000</i>
  <i type="int" name="NBANDS">    40</i>
  <i type="int" name="ISMEAR">     1</i>
  <i name="SIGMA">      0.20000000</i>
  <i type="logical" name="LCHARG"> T  </i>
  <i type="int" name="KPAR">     1</i>
  <i type="int" name="NCORE">     1</i>
  <i type="string" name="GGA">PE</i>
 </incar>
 <primitive_cell>
  <structure name="primitive_cell" >
   <crystal>
    <varray name="basis" >
     <v>       2.39990000       0.00000000       0.00000000 </v>
     <v>      -1.19995000       2.07837437       0.00000000 </v>
     <v>       0.00000000       0.00000000       4.05408000 </v>
    </varray>
    <i name="volume">     20.22130769 </i>
    <varray name="rec_basis" >
     <v>       0.41668403       0.24057264       0.00000000 </v>
     <v>       0.00000000       0.48114527       0.00000000 </v>
     <v>       0.00000000       0.00000000       0.24666509 </v>
    </varray>
   </crystal>
   <varray name="positions" >
    <v>       0.00000000       0.00000000       0.00000000 </v>
    <v>       0.33333333       0.66666667       0.50000000 </v>
   </varray>
  </structure>
  <varray name="primitive_index" >
   <v type="int" >        1 </v>
   <v type="int" >        2 </v>
  </varray>
 </primitive_cell>
 <kpoints>
  <generation param="Monkhorst-Pack">
   <v type="int" name="divisions">      11       11       11 </v>
   <v name="usershift">      0.00000000       0.00000000       0.00000000 </v>
   <v name="genvec1">      0.09090909       0.00000000       0.00000000 </v>
   <v name="genvec2">      0.00000000       0.09090909       0.00000000 </v>
   <v name="genvec3">      0.00000000       0.00000000       0.09090909 </v>
   <v name="shift">      0.00000000       0.00000000       0.00000000 </v>
  </generation>
  <varray name="kpointlist" >
   <v>       0.00000000       0.00000000       0.00000000 </v>
   <v>       0.09090909       0.00000000       0.00000000 </v>
   <v>       0.18181818      -0.00000000       0.00000000 </v>
   <v>       0.27272727      -0.00000000       0.00000000 </v>
   <v>       0.36363636      -0.00000000       0.00000000 </v>
   <v>       0.45454545      -0.00000000       0.00000000 </v>
   <v>       0.09090909       0.09090909       0.00000000 </v>
   <v>       0.18181818       0.09090909       0.00000000 </v>
   <v>       0.27272727       0.09090909       0.00000000 </v>
   <v>       0.36363636       0.09090909       0.00000000 </v>
   <v>       0.45454545       0.09090909       0.00000000 </v>
   <v>       0.18181818       0.18181818       0.00000000 </v>
   <v>       0.27272727       0.18181818       0.00000000 </v>
   <v>       0.36363636       0.18181818       0.00000000 </v>
   <v>       0.27272727       0.27272727       0.00000000 </v>
   <v>       0.36363636       0.27272727       0.00000000 </v>
   <v>       0.00000000       0.00000000       0.09090909 </v>
   <v>       0.09090909       0.00000000       0.09090909 </v>
   <v>       0.18181818      -0.00000000       0.09090909 </v>
   <v>       0.27272727      -0.00000000       0.09090909 </v>
   <v>       0.36363636      -0.00000000       0.09090909 </v>
   <v>       0.45454545      -0.00000000       0.09090909 </v>
   <v>       0.09090909       0.09090909       0.09090909 </v>
   <v>       0.18181818       0.09090909       0.09090909 </v>
   <v>       0.27272727       0.09090909       0.09090909 </v>
   <v>       0.36363636       0.09090909       0.09090909 </v>
   <v>       0.45454545       0.09090909       0.09090909 </v>
   <v>       0.18181818       0.18181818       0.09090909 </v>
   <v>       0.27272727       0.18181818       0.09090909 </v>
   <v>       0.36363636       0.18181818       0.09090909 </v>
   <v>       0.27272727       0.27272727       0.09090909 </v>
   <v>       0.36363636       0.27272727       0.09090909 </v>
   <v>       0.00000000       0.00000000       0.18181818 </v>
   <v>       0.09090909       0.00000000       0.18181818 </v>
   <v>       0.18181818      -0.00000000       0.18181818 </v>
   <v>       0.27272727      -0.00000000       0.18181818 </v>
   <v>       0.36363636      -0.00000000       0.18181818 </v>
   <v>       0.45454545      -0.00000000       0.18181818 </v>
   <v>       0.09090909       0.09090909       0.18181818 </v>
   <v>       0.18181818       0.09090909       0.18181818 </v>
   <v>       0.27272727       0.09090909       0.18181818 </v>
   <v>       0.36363636       0.09090909       0.18181818 </v>
   <v>       0.45454545       0.09090909       0.18181818 </v>
   <v>       0.18181818       0.18181818       0.18181818 </v>
   <v>       0.27272727       0.18181818       0.18181818 </v>
   <v>       0.36363636       0.18181818       0.18181818 </v>
   <v>       0.27272727       0.27272727       0.18181818 </v>
   <v>       0.36363636       0.27272727       0.18181818 </v>
   <v>       0.00000000       0.00000000       0.27272727 </v>
   <v>       0.09090909       0.00000000       0.27272727 </v>
   <v>       0.18181818      -0.00000000       0.27272727 </v>
   <v>       0.27272727      -0.00000000       0.27272727 </v>
   <v>       0.36363636      -0.00000000       0.27272727 </v>
   <v>       0.45454545      -0.00000000       0.27272727 </v>
   <v>       0.09090909       0.09090909       0.27272727 </v>
   <v>       0.18181818       0.09090909       0.27272727 </v>
   <v>       0.27272727       0.09090909       0.27272727 </v>
   <v>       0.36363636       0.09090909       0.27272727 </v>
   <v>       0.45454545       0.09090909       0.27272727 </v>
   <v>       0.18181818       0.18181818       0.27272727 </v>
   <v>       0.27272727       0.18181818       0.27272727 </v>
   <v>       0.36363636       0.18181818       0.27272727 </v>
   <v>       0.27272727       0.27272727       0.27272727 </v>
   <v>       0.36363636       0.27272727       0.27272727 </v>
   <v>       0.00000000       0.00000000       0.36363636 </v>
   <v>       0.09090909       0.00000000       0.36363636 </v>
   <v>       0.18181818      -0.00000000       0.36363636 </v>
   <v>       0.27272727      -0.00000000       0.36363636 </v>
   <v>       0.36363636      -0.00000000       0.36363636 </v>
   <v>       0.45454545      -0.00000000       0.36363636 </v>
   <v>       0.09090909       0.09090909       0.36363636 </v>
   <v>       0.18181818       0.09090909       0.36363636 </v>
   <v>       0.27272727       0.09090909       0.36363636 </v>
   <v>       0.36363636       0.09090909       0.36363636 </v>
   <v>       0.45454545       0.09090909       0.36363636 </v>
   <v>       0.18181818       0.18181818       0.36363636 </v>
   <v>       0.27272727       0.18181818       0.36363636 </v>
   <v>       0.36363636       0.18181818       0.36363636 </v>
   <v>       0.27272727       0.27272727       0.36363636 </v>
   <v>       0.36363636       0.27272727       0.36363636 </v>
   <v>       0.00000000       0.00000000       0.45454545 </v>
   <v>       0.09090909       0.00000000       0.45454545 </v>
   <v>       0.18181818      -0.00000000       0.45454545 </v>
   <v>       0.27272727      -0.00000000       0.45454545 </v>
   <v>       0.36363636      -0.00000000       0.45454545 </v>
   <v>       0.45454545      -0.00000000       0.45454545 </v>
   <v>       0.09090909       0.09090909       0.45454545 </v>
   <v>       0.18181818       0.09090909       0.45454545 </v>
   <v>       0.27272727       0.09090909       0.45454545 </v>
   <v>       0.36363636       0.09090909       0.45454545 </v>
   <v>       0.45454545       0.09090909       0.45454545 </v>
   <v>       0.18181818       0.18181818       0.45454545 </v>
   <v>       0.27272727       0.18181818       0.45454545 </v>
   <v>       0.36363636       0.18181818       0.45454545 </v>
   <v>       0.27272727       0.27272727       0.45454545 </v>
   <v>       0.36363636       0.27272727       0.45454545 </v>
  </varray>
  <varray name="weights" >
   <v>       0.00075131 </v>
   <v>       0.00450789 </v>
   <v>       0.00450789 </v>
   <v>       0.00450789 </v>
   <v>       0.00450789 </v>
   <v>       0.00450789 </v>
   <v>       0.00450789 </v>
   <v>       0.00901578 </v>
   <v>       0.00901578 </v>
   <v>       0.00901578 </v>
   <v>       0.00450789 </v>
   <v>       0.00450789 </v>
   <v>       0.00901578 </v>
   <v>       0.00901578 </v>
   <v>       0.00450789 </v>
   <v>       0.00450789 </v>
   <v>       0.00150263 </v>
   <v>       0.00901578 </v>
   <v>       0.00901578 </v>
   <v>       0.00901578 </v>
   <v>       0.00901578 </v>
   <v>       0.00901578 </v>
   <v>       0.00901578 </v>
   <v>       0.01803156 </v>
   <v>       0.01803156 </v>
   <v>       0.01803156 </v>
   <v>       0.00901578 </v>
   <v>       0.00901578 </v>
   <v>       0.01803156 </v>
   <v>       0.01803156 </v>
   <v>       0.00901578 </v>
   <v>       0.00901578 </v>
   <v>       0.00150263 </v>
   <v>       0.00901578 </v>
   <v>       0.00901578 </v>
   <v>       0.00901578 </v>
   <v>       0.00901578 </v>
   <v>       0.00901578 </v>
   <v>       0.00901578 </v>
   <v>       0.01803156 </v>
   <v>       0.01803156 </v>
   <v>       0.01803156 </v>
   <v>       0.00901578 </v>
   <v>       0.00901578 </v>
   <v>       0.01803156 </v>
   <v>       0.01803156 </v>
   <v>       0.00901578 </v>
   <v>       0.00901578 </v>
   <v>       0.00150263 </v>
   <v>       0.00901578 </v>
   <v>       0.00901578 </v>
   <v>       0.00901578 </v>
   <v>       0.00901578 </v>
   <v>       0.00901578 </v>
   <v>       0.00901578 </v>
   <v>       0.01803156 </v>
   <v>       0.01803156 </v>
   <v>       0.01803156 </v>
   <v>       0.00901578 </v>
   <v>       0.00901578 </v>
   <v>       0.01803156 </v>
   <v>       0.01803156 </v>
   <v>       0.00901578 </v>
   <v>       0.00901578 </v>
   <v>       0.00150263 </v>
   <v>       0.00901578 </v>
   <v>       0.00901578 </v>
   <v>       0.00901578 </v>
   <v>       0.00901578 </v>
   <v>       0.00901578 </v>
   <v>       0.00901578 </v>
   <v>       0.01803156 </v>
   <v>       0.01803156 </v>
   <v>       0.01803156 </v>
   <v>       0.00901578 </v>
   <v>       0.00901578 </v>
   <v>       0.01803156 </v>
   <v>       0.01803156 </v>
   <v>       0.00901578 </v>
   <v>       0.00901578 </v>
   <v>       0.00150263 </v>
   <v>       0.00901578 </v>
   <v>       0.00901578 </v>
   <v>       0.00901578 </v>
   <v>       0.00901578 </v>
   <v>       0.00901578 </v>
   <v>       0.00901578 </v>
   <v>       0.01803156 </v>
   <v>       0.01803156 </v>
   <v>       0.01803156 </v>
   <v>       0.00901578 </v>
   <v>       0.00901578 </v>
   <v>       0.01803156 </v>
   <v>       0.01803156 </v>
   <v>       0.00901578 </v>
   <v>       0.00901578 </v>
  </varray>
 </kpoints>
 <parameters>
  <separator name="general" >
   <i type="string" name="SYSTEM">unknown system</i>
   <i type="logical" name="LCOMPAT"> F  </i>
  </separator>
  <separator name="electronic" >
   <i type="string" name="PREC">normal</i>
   <i name="ENMAX">    280.00000000</i>
   <i name="ENAUG">    511.36800000</i>
   <i name="EDIFF">      0.00000100</i>
   <i type="int" name="IALGO">    38</i>
   <i type="int" name="IWAVPR">     0</i>
   <i type="int" name="NBANDS">    40</i>
   <i type="int" name="NBANDSLOW">    -1</i>
   <i type="int" name="NBANDSHIGH">    -1</i>
   <i name="NELECT">     16.00000000</i>
   <i type="int" name="TURBO">     0</i>
   <i type="int" name="IRESTART">     0</i>
   <i type="int" name="NREBOOT">     0</i>
   <i type="int" name="NMIN">     0</i>
   <i name="EREF">      0.00000000</i>
   <separator name="electronic smearing" >
    <i type="int" name="ISMEAR">     1</i>
    <i name="SIGMA">      0.20000000</i>
    <i name="KSPACING">      0.50000000</i>
    <i type="logical" name="KGAMMA"> T  </i>
    <i type="logical" name="KBLOWUP"> T  </i>
   </separator>
   <separator name="electronic projectors" >
    <i type="logical" name="LREAL"> F  </i>
    <v name="ROPT">      0.00000000</v>
    <i type="int" name="LMAXPAW">  -100</i>
    <i type="int" name="LMAXMIX">     2</i>
    <i type="logical" name="NLSPLINE"> F  </i>
   </separator>
   <separator name="electronic startup" >
    <i type="int" name="ISTART">     0</i>
    <i type="int" name="ICHARG">     1</i>
    <i type="int" name="INIWAV">     1</i>
   </separator>
   <separator name="electronic spin" >
    <i type="int" name="ISPIN">     1</i>
    <i type="logical" name="LNONCOLLINEAR"> F  </i>
    <v name="MAGMOM">      1.00000000      1.00000000</v>
    <i name="NUPDOWN">     -1.00000000</i>
    <i type="logical" name="LSORBIT"> F  </i>
    <v name="SAXIS">      0.00000000      0.00000000      1.00000000</v>
    <i type="logical" name="LSPIRAL"> F  </i>
    <v name="QSPIRAL">      0.00000000      0.00000000      0.00000000</v>
    <i type="logical" name="LZEROZ"> F  </i>
   </separator>
   <separator name="electronic exchange-correlation" >
    <i type="logical" name="LASPH"> F  </i>
    <i type="logical" name="LMETAGGA"> F  </i>
   </separator>
   <separator name="electronic convergence" >
    <i type="int" name="NELM">    60</i>
    <i type="int" name="NELMDL">    -5</i>
    <i type="int" name="NELMIN">     2</i>
    <i name="ENINI">    280.00000000</i>
    <separator name="electronic convergence detail" >
     <i type="logical" name="LDIAG"> T  </i>
     <i type="logical" name="LSUBROT"> F  </i>
     <i name="WEIMIN">      0.00000000</i>
     <i name="EBREAK">      0.00000001</i>
     <i name="DEPER">      0.30000000</i>
     <i type="int" name="NRMM">     4</i>
     <i name="TIME">      0.40000000</i>
    </separator>
   </separator>
   <separator name="electronic mixer" >
    <i name="AMIX">      0.40000000</i>
    <i name="BMIX">      1.00000000</i>
    <i name="AMIN">      0.10000000</i>
    <i name="AMIX_MAG">      1.60000000</i>
    <i name="BMIX_MAG">      1.00000000</i>
    <separator name="electronic mixer details" >
     <i type="int" name="IMIX">     4</i>
     <i type="logical" name="MIXFIRST"> F  </i>
     <i type="int" name="MAXMIX">   -45</i>
     <i name="WC">    100.00000000</i>
     <i type="int" name="INIMIX">     1</i>
     <i type="int" name="MIXPRE">     1</i>
     <i type="int" name="MREMOVE">     5</i>
    </separator>
   </separator>
   <separator name="electronic dipolcorrection" >
    <i type="logical" name="LDIPOL"> F  </i>
    <i type="logical" name="LMONO"> F  </i>
    <i type="int" name="IDIPOL">     0</i>
    <i name="EPSILON">      1.00000000</i>
    <v name="DIPOL">   -100.00000000   -100.00000000   -100.00000000</v>
    <i name="EFIELD">      0.00000000</i>
   </separator>
  </separator>
  <separator name="grids" >
   <i type="int" name="NGX">    10</i>
   <i type="int" name="NGY">    10</i>
   <i type="int" name="NGZ">    18</i>
   <i type="int" name="NGXF">    20</i>
   <i type="int" name="NGYF">    20</i>
   <i type="int" name="NGZF">    36</i>
   <i type="logical" name="ADDGRID"> F  </i>
  </separator>
  <separator name="ionic" >
   <i type="int" name="NSW">     0</i>
   <i type="int" name="IBRION">    -1</i>
   <i type="int" name="MDALGO">     0</i>
   <i type="int" name="ISIF">     2</i>
   <i name="PSTRESS">      0.00000000</i>
   <i name="EDIFFG">      0.00001000</i>
   <i type="int" name="NFREE">     0</i>
   <i name="POTIM">      0.50000000</i>
   <i name="SMASS">     -3.00000000</i>
   <i name="SCALEE">      1.00000000</i>
  </separator>
  <separator name="ionic md" >
   <i name="TEBEG">      0.00010000</i>
   <i name="TEEND">      0.00010000</i>
   <i type="int" name="NBLOCK">     1</i>
   <i type="int" name="KBLOCK">     1</i>
   <i type="int" name="NPACO">   256</i>
   <i name="APACO">     16.00000000</i>
  </separator>
  <separator name="symmetry" >
   <i type="int" name="ISYM">     2</i>
   <i name="SYMPREC">      0.00001000</i>
  </separator>
  <separator name="dos" >
   <i type="int" name="LORBIT">     0</i>
   <v name="RWIGS">     -1.00000000</v>
   <i type="int" name="NEDOS">   301</i>
   <i name="EMIN">     10.00000000</i>
   <i name="EMAX">    -10.00000000</i>
   <i name="EFERMI">      0.00000000</i>
  </separator>
  <separator name="writing" >
   <i type="int" name="NWRITE">     2</i>
   <i type="logical" name="LWAVE"> T  </i>
   <i type="logical" name="LDOWNSAMPLE"> F  </i>
   <i type="logical" name="LCHARG"> T  </i>
   <i type="logical" name="LPARD"> F  </i>
   <i type="logical" name="LVTOT"> F  </i>
   <i type="logical" name="LVHAR"> F  </i>
   <i type="logical" name="LELF"> F  </i>
   <i type="logical" name="LOPTICS"> F  </i>
   <v name="STM">      0.00000000      0.00000000      0.00000000      0.00000000      0.00000000      0.00000000      0.00000000</v>
  </separator>
  <separator name="performance" >
   <i type="int" name="NPAR">     1</i>
   <i type="int" name="NSIM">     4</i>
   <i type="int" name="NBLK">    -1</i>
   <i type="logical" name="LPLANE"> T  </i>
   <i type="logical" name="LSCALAPACK"> F  </i>
   <i type="logical" name="LSCAAWARE"> F  </i>
   <i type="logical" name="LSCALU"> F  </i>
   <i type="logical" name="LASYNC"> F  </i>
   <i type="logical" name="LORBITALREAL"> F  </i>
  </separator>
  <separator name="miscellaneous" >
   <i type="int" name="IDIOT">     3</i>
   <i type="int" name="PHON_NSTRUCT">    -1</i>
   <i type="logical" name="LMUSIC"> F  </i>
   <v name="POMASS">     55.84700000</v>
   <v name="DARWINR">      0.00000000</v>
   <v name="DARWINV">      1.00000000</v>
   <i type="logical" name="LCORR"> T  </i>
  </separator>
  <i type="logical" name="GGA_COMPAT"> T  </i>
  <i type="logical" name="LBERRY"> F  </i>
  <i type="int" name="ICORELEVEL">     0</i>
  <i type="logical" name="LDAU"> F  </i>
  <i type="int" name="I_CONSTRAINED_M">     0</i>
  <separator name="electronic exchange-correlation" >
   <i type="string" name="GGA">PE</i>
   <i type="int" name="VOSKOWN">     0</i>
   <i type="logical" name="LHFCALC"> F  </i>
   <i type="string" name="PRECFOCK"></i>
   <i type="logical" name="LSYMGRAD"> F  </i>
   <i type="logical" name="LHFONE"> F  </i>
   <i type="logical" name="LRHFCALC"> F  </i>
   <i type="logical" name="LTHOMAS"> F  </i>
   <i type="logical" name="LMODELHF"> F  </i>
   <i type="logical" name="LFOCKACE"> F  </i>
   <i name="ENCUT4O">     -1.00000000</i>
   <i type="int" name="EXXOEP">     0</i>
   <i type="int" name="FOURORBIT">     0</i>
   <i name="AEXX">      0.00000000</i>
   <i name="HFALPHA">      0.00000000</i>
   <i name="MCALPHA">      0.00000000</i>
   <i name="ALDAX">      1.00000000</i>
   <i name="AGGAX">      1.00000000</i>
   <i name="ALDAC">      1.00000000</i>
   <i name="AGGAC">      1.00000000</i>
   <i type="int" name="NKREDX">     1</i>
   <i type="int" name="NKREDY">     1</i>
   <i type="int" name="NKREDZ">     1</i>
   <i type="logical" name="SHIFTRED"> F  </i>
   <i type="logical" name="ODDONLY"> F  </i>
   <i type="logical" name="EVENONLY"> F  </i>
   <i type="int" name="LMAXFOCK">     0</i>
   <i type="int" name="NMAXFOCKAE">     0</i>
   <i type="logical" name="LFOCKAEDFT"> F  </i>
   <i name="HFSCREEN">      0.00000000</i>
   <i name="HFSCREENC">      0.00000000</i>
   <i type="int" name="NBANDSGWLOW">     0</i>
  </separator>
  <separator name="vdW DFT" >
   <i type="logical" name="LUSE_VDW"> F  </i>
   <i name="Zab_VDW">     -0.84910000</i>
   <i name="PARAM1">      0.12340000</i>
   <i name="PARAM2">      1.00000000</i>
   <i name="PARAM3">      0.00000000</i>
  </separator>
  <separator name="model GW" >
   <i type="int" name="MODEL_GW">     0</i>
   <i name="MODEL_EPS0">      6.06639231</i>
   <i name="MODEL_ALPHA">      1.00000000</i>
  </separator>
  <separator name="linear response parameters" >
   <i type="logical" name="LEPSILON"> F  </i>
   <i type="logical" name="LRPA"> F  </i>
   <i type="logical" name="LNABLA"> F  </i>
   <i type="logical" name="LVEL"> F  </i>
   <i type="int" name="KINTER">     0</i>
   <i name="CSHIFT">      0.10000000</i>
   <i name="OMEGAMAX">     -1.00000000</i>
   <i name="DEG_THRESHOLD">      0.00200000</i>
   <i name="RTIME">     -0.10000000</i>
   <i name="WPLASMAI">      0.00000000</i>
   <v name="DFIELD">      0.00000000      0.00000000      0.00000000</v>
   <v name="WPLASMA">      0.00000000      0.00000000      0.00000000      0.00000000      0.00000000      0.00000000      0.00000000      0.00000000      0.00000000</v>
  </separator>
  <separator name="orbital magnetization" >
   <i type="logical" name="NUCIND"> F  </i>
   <v name="MAGPOS">      0.00000000      0.00000000      0.00000000</v>
   <i type="logical" name="LNICSALL"> T  </i>
   <i type="logical" name="ORBITALMAG"> F  </i>
   <i type="logical" name="LMAGBLOCH"> F  </i>
   <i type="logical" name="LCHIMAG"> F  </i>
   <i type="logical" name="LGAUGE"> T  </i>
   <i type="int" name="MAGATOM">     0</i>
   <v name="MAGDIPOL">      0.00000000      0.00000000      0.00000000</v>
   <v name="AVECCONST">      0.00000000      0.00000000      0.00000000</v>
  </separator>
  <separator name="response functions" >
   <i type="logical" name="LFINITE_TEMPERATURE"> F  </i>
   <i type="logical" name="LADDER"> F  </i>
   <i type="logical" name="LRPAFORCE"> F  </i>
   <i type="logical" name="LFXC"> F  </i>
   <i type="logical" name="LHARTREE"> T  </i>
   <i type="int" name="IBSE">     0</i>
   <v type="int" name="KPOINT">    -1     0     0     0</v>
   <i type="logical" name="LTCTC"> F  </i>
   <i type="logical" name="LTCTE"> F  </i>
   <i type="logical" name="LTETE"> F  </i>
   <i type="logical" name="LTRIPLET"> F  </i>
   <i type="logical" name="LFXCEPS"> F  </i>
   <i type="logical" name="LFXHEG"> F  </i>
   <i type="int" name="NATURALO">     2</i>
   <i type="logical" name="LHOLEGF"> F  </i>
   <i type="logical" name="L2ORDER"> F  </i>
   <i type="logical" name="LDMP1"> F  </i>
   <i type="logical" name="LMP2LT"> F  </i>
   <i type="logical" name="LSMP2LT"> F  </i>
   <i type="logical" name="LGWLF"> F  </i>
   <i name="ENCUTGW">     -2.00000000</i>
   <i name="ENCUTGWSOFT">     -2.00000000</i>
   <i name="ENCUTLF">     -1.00000000</i>
   <i type="logical" name="LESF_SPLINES"> F  </i>
   <i type="int" name="LMAXMP2">    -1</i>
   <i name="SCISSOR">      0.00000000</i>
   <i type="int" name="NOMEGA">     0</i>
   <i type="int" name="NOMEGAR">     0</i>
   <i type="int" name="NBANDSGW">    -1</i>
   <i type="int" name="NBANDSO">    -1</i>
   <i type="int" name="NBANDSV">    -1</i>
   <i type="int" name="NELM">     1</i>
   <i type="int" name="NELMHF">     1</i>
   <i type="int" name="DIM">     3</i>
   <i type="int" name="IESPILON">     4</i>
   <i type="int" name="ANTIRES">     0</i>
   <i name="OMEGAMAX">    -30.00000000</i>
   <i name="OMEGAMIN">    -30.00000000</i>
   <i name="OMEGATL">   -200.00000000</i>
   <i type="int" name="OMEGAGRID">     0</i>
   <i name="CSHIFT">     -0.10000000</i>
   <i type="logical" name="LSELFENERGY"> F  </i>
   <i type="logical" name="LSPECTRAL"> F  </i>
   <i type="logical" name="LSPECTRALGW"> F  </i>
   <i type="logical" name="LSINGLES"> F  </i>
   <i type="logical" name="LFERMIGW"> F  </i>
   <i type="logical" name="ODDONLYGW"> F  </i>
   <i type="logical" name="EVENONLYGW"> F  </i>
   <i type="int" name="NKREDLFX">     1</i>
   <i type="int" name="NKREDLFY">     1</i>
   <i type="int" name="NKREDLFZ">     1</i>
   <i type="int" name="MAXMEM">  2800</i>
   <i type="int" name="TELESCOPE">     0</i>
   <i type="int" name="NTAUPAR">    -1</i>
   <i type="int" name="NOMEGAPAR">    -1</i>
   <i name="DAMP_NEWTON">      0.80000001</i>
   <i name="LAMBDA">      1.00000000</i>
  </separator>
  <separator name="External order field" >
   <i name="OFIELD_KAPPA">      0.00000000</i>
   <v name="OFIELD_K">      0.00000000      0.00000000      0.00000000</v>
   <i name="OFIELD_Q6_NEAR">      0.00000000</i>
   <i name="OFIELD_Q6_FAR">      0.00000000</i>
   <i name="OFIELD_A">      0.00000000</i>
  </separator>
 </parameters>
 <atominfo>
  <atoms>       2 </atoms>
  <types>       1 </types>
  <array name="atoms" >
   <dimension dim="1">ion</dimension>
   <field type="string">element</field>
   <field type="int">atomtype</field>
   <set>
    <rc><c>Fe</c><c>   1</c></rc>
    <rc><c>Fe</c><c>   1</c></rc>
   </set>
  </array>
  <array name="atomtypes" >
   <dimension dim="1">type</dimension>
   <field type="int">atomspertype</field>
   <field type="string">element</field>
   <field>mass</field>
   <field>valence</field>
   <field type="string">pseudopotential</field>
   <set>
    <rc><c>   2</c><c>Fe</c><c>     55.84700000</c><c>      8.00000000</c><c>  PAW_PBE Fe 06Sep2000                  </c></rc>
   </set>
  </array>
 </atominfo>
 <structure name="initialpos" >
  <crystal>
   <varray name="basis" >
    <v>       2.39990000       0.00000000       0.00000000 </v>
    <v>      -1.19995000       2.07837437       0.00000000 </v>
    <v>       0.00000000       0.00000000       4.05408000 </v>
   </varray>
   <i name="volume">     20.22130769 </i>
   <varray name="rec_basis" >
    <v>       0.41668403       0.24057264       0.00000000 </v>
    <v>       0.00000000       0.48114527       0.00000000 </v>
    <v>       0.00000000       0.00000000       0.24666509 </v>
   </varray>
  </crystal>
  <varray name="positions" >
   <v>       0.00000000       0.00000000       0.00000000 </v>
   <v>       0.33333333       0.66666667       0.50000000 </v>
  </varray>
 </structure>
 <calculation>
  <scstep>
   <time name="dav">    0.78    0.80</time>
   <time name="total">    0.79    0.81</time>
   <energy>
    <i name="alphaZ">    136.71475068 </i>
    <i name="ewald">  -1230.73902822 </i>
    <i name="hartreedc">   -205.80328086 </i>
    <i name="XCdc">      8.53637588 </i>
    <i name="pawpsdc">   1109.69170683 </i>
    <i name="pawaedc">  -1125.09647265 </i>
    <i name="eentropy">      0.00053423 </i>
    <i name="bandstr">    178.60519600 </i>
    <i name="atom">   1188.57490811 </i>
    <i name="e_fr_energy">     60.48469000 </i>
    <i name="e_wo_entrp">     60.48415577 </i>
    <i name="e_0_energy">     60.48451192 </i>
   </energy>
  </scstep>
  <scstep>
   <time name="dav">    0.69    0.69</time>
   <time name="total">    0.70    0.70</time>
   <energy>
    <i name="e_fr_energy">    -14.87624694 </i>
    <i name="e_wo_entrp">    -14.87730787 </i>
    <i name="e_0_energy">    -14.87660058 </i>
   </energy>
  </scstep>
  <scstep>
   <time name="dav">    0.79    0.79</time>
   <time name="total">    0.80    0.80</time>
   <energy>
    <i name="e_fr_energy">    -19.35538661 </i>
    <i name="e_wo_entrp">    -19.35375938 </i>
    <i name="e_0_energy">    -19.35484420 </i>
   </energy>
  </scstep>
  <scstep>
   <time name="dav">    0.76    0.76</time>
   <time name="total">    0.77    0.77</time>
   <energy>
    <i name="e_fr_energy">    -19.37589365 </i>
    <i name="e_wo_entrp">    -19.37424422 </i>
    <i name="e_0_energy">    -19.37534384 </i>
   </energy>
  </scstep>
  <scstep>
   <time name="dav">    0.77    0.77</time>
   <time name="total">    0.79    0.79</time>
   <energy>
    <i name="e_fr_energy">    -19.37591705 </i>
    <i name="e_wo_entrp">    -19.37426762 </i>
    <i name="e_0_energy">    -19.37536724 </i>
   </energy>
  </scstep>
  <scstep>
   <time name="dav">    0.90    0.90</time>
   <time name="total">    0.93    0.93</time>
   <energy>
    <i name="e_fr_energy">    -16.46623235 </i>
    <i name="e_wo_entrp">    -16.46702894 </i>
    <i name="e_0_energy">    -16.46649788 </i>
   </energy>
  </scstep>
  <scstep>
   <time name="dav">    0.83    0.83</time>
   <time name="total">    0.86    0.86</time>
   <energy>
    <i name="e_fr_energy">    -16.27194701 </i>
    <i name="e_wo_entrp">    -16.27255242 </i>
    <i name="e_0_energy">    -16.27214881 </i>
   </energy>
  </scstep>
  <scstep>
   <time name="dav">    0.82    0.82</time>
   <time name="total">    0.85    0.85</time>
   <energy>
    <i name="e_fr_energy">    -16.24557285 </i>
    <i name="e_wo_entrp">    -16.24624437 </i>
    <i name="e_0_energy">    -16.24579669 </i>
   </energy>
  </scstep>
  <scstep>
   <time name="dav">    0.94    0.94</time>
   <time name="total">    0.97    0.97</time>
   <energy>
    <i name="e_fr_energy">    -16.23406310 </i>
    <i name="e_wo_entrp">    -16.23474345 </i>
    <i name="e_0_energy">    -16.23428989 </i>
   </energy>
  </scstep>
  <scstep>
   <time name="dav">    0.73    0.73</time>
   <time name="total">    0.76    0.76</time>
   <energy>
    <i name="e_fr_energy">    -16.23408377 </i>
    <i name="e_wo_entrp">    -16.23475987 </i>
    <i name="e_0_energy">    -16.23430914 </i>
   </energy>
  </scstep>
  <scstep>
   <time name="dav">    0.74    0.74</time>
   <time name="total">    0.77    0.77</time>
   <energy>
    <i name="e_fr_energy">    -16.23407669 </i>
    <i name="e_wo_entrp">    -16.23475258 </i>
    <i name="e_0_energy">    -16.23430199 </i>
   </energy>
  </scstep>
  <scstep>
   <time name="dav">    0.58    0.58</time>
   <time name="total">    0.59    0.59</time>
   <energy>
    <i name="alphaZ">    136.71475068 </i>
    <i name="ewald">  -1230.73902822 </i>
    <i name="hartreedc">   -171.38839838 </i>
    <i name="XCdc">      6.93011770 </i>
    <i name="pawpsdc">   1479.94236515 </i>
    <i name="pawaedc">  -1497.42702315 </i>
    <i name="eentropy">      0.00067613 </i>
    <i name="bandstr">     71.15755541 </i>
    <i name="atom">   1188.57490811 </i>
    <i name="e_fr_energy">    -16.23407657 </i>
    <i name="e_wo_entrp">    -16.23475270 </i>
    <i name="e_0_energy">    -16.23430195 </i>
   </energy>
  </scstep>
  <structure>
   <crystal>
    <varray name="basis" >
     <v>       2.39990000       0.00000000       0.00000000 </v>
     <v>      -1.19995000       2.07837437       0.00000000 </v>
     <v>       0.00000000       0.00000000       4.05408000 </v>
    </varray>
    <i name="volume">     20.22130769 </i>
    <varray name="rec_basis" >
     <v>       0.41668403       0.24057264       0.00000000 </v>
     <v>       0.00000000       0.48114527       0.00000000 </v>
     <v>       0.00000000       0.00000000       0.24666509 </v>
    </varray>
   </crystal>
   <varray name="positions" >
    <v>       0.00000000       0.00000000       0.00000000 </v>
    <v>       0.33333333       0.66666667       0.50000000 </v>
   </varray>
  </structure>
  <varray name="forces" >
   <v>      -0.00000000      -0.00000000      -0.00000000 </v>
   <v>       0.00000000       0.00000000       0.00000000 </v>
  </varray>
  <varray name="stress" >
   <v>     103.99085557      -0.00000000       0.00000000 </v>
   <v>      -0.00000000     103.99085557       0.00000000 </v>
   <v>       0.00000000      -0.00000000    -194.83830976 </v>
  </varray>
  <energy>
   <i name="e_fr_energy">    -16.23407657 </i>
   <i name="e_wo_entrp">    -16.23475270 </i>
   <i name="e_0_energy">    -16.23430195 </i>
  </energy>
  <time name="totalsc">    9.91    9.93</time>
  <eigenvalues>
   <array>
    <dimension dim="1">band</dimension>
    <dimension dim="2">kpoint</dimension>
    <dimension dim="3">spin</dimension>
    <field>eigene</field>
    <field>occ</field>
    <set>
     <set comment="spin 1">
      <set comment="kpoint 1">
       <r>   -1.9656    1.0000 </r>
       <r>    1.9798    1.0000 </r>
       <r>    5.0221    1.0000 </r>
       <r>    5.3724    1.0000 </r>
       <r>    5.3726    1.0000 </r>
       <r>    5.7370    1.0000 </r>
       <r>    5.7372    1.0000 </r>
       <r>    6.4562    1.0012 </r>
       <r>    6.4562    1.0012 </r>
       <r>    6.7275    1.0343 </r>
       <r>    7.7159   -0.0000 </r>
       <r>    7.7159   -0.0000 </r>
       <r>   14.9034    0.0000 </r>
       <r>   29.8719    0.0000 </r>
       <r>   31.7924    0.0000 </r>
       <r>   33.1291    0.0000 </r>
       <r>   34.7716    0.0000 </r>
       <r>   34.7717    0.0000 </r>
       <r>   35.6908    0.0000 </r>
       <r>   35.6910    0.0000 </r>
       <r>   38.6285    0.0000 </r>
       <r>   38.9344    0.0000 </r>
       <r>   38.9345    0.0000 </r>
       <r>   40.0289    0.0000 </r>
       <r>   42.7056    0.0000 </r>
       <r>   42.7056    0.0000 </r>
       <r>   44.0304    0.0000 </r>
       <r>   46.2209    0.0000 </r>
       <r>   46.2212    0.0000 </r>
       <r>   48.0712    0.0000 </r>
       <r>   48.0713    0.0000 </r>
       <r>   51.1216    0.0000 </r>
       <r>   59.4026    0.0000 </r>
       <r>   62.0495    0.0000 </r>
       <r>   62.0504    0.0000 </r>
       <r>   62.3882    0.0000 </r>
       <r>   63.4377    0.0000 </r>
       <r>   64.4041    0.0000 </r>
       <r>   64.4053    0.0000 </r>
       <r>   65.9540    0.0000 </r>
      </set>
      <set comment="kpoint 2">
       <r>   -1.6434    1.0000 </r>
       <r>    2.2072    1.0000 </r>
       <r>    4.9074    1.0000 </r>
       <r>    5.4239    1.0000 </r>
       <r>    5.5531    1.0000 </r>
       <r>    5.6379    1.0000 </r>
       <r>    5.6722    1.0000 </r>
       <r>    5.9039    1.0000 </r>
       <r>    6.3406    1.0001 </r>
       <r>    6.3639    1.0001 </r>
       <r>    7.7509   -0.0000 </r>
       <r>    8.9991   -0.0000 </r>
       <r>   14.9198    0.0000 </r>
       <r>   28.5605    0.0000 </r>
       <r>   31.2055    0.0000 </r>
       <r>   32.0204    0.0000 </r>
       <r>   32.0649    0.0000 </r>
       <r>   34.7136    0.0000 </r>
       <r>   35.0835    0.0000 </r>
       <r>   38.3092    0.0000 </r>
       <r>   38.4055    0.0000 </r>
       <r>   38.4934    0.0000 </r>
       <r>   39.3153    0.0000 </r>
       <r>   39.8025    0.0000 </r>
       <r>   43.6400    0.0000 </r>
       <r>   43.7730    0.0000 </r>
       <r>   43.8816    0.0000 </r>
       <r>   44.1498    0.0000 </r>
       <r>   47.8356    0.0000 </r>
       <r>   49.5548    0.0000 </r>
       <r>   50.4448    0.0000 </r>
       <r>   52.8897    0.0000 </r>
       <r>   58.6871    0.0000 </r>
       <r>   60.8480    0.0000 </r>
       <r>   61.3157    0.0000 </r>
       <r>   61.4897    0.0000 </r>
       <r>   61.9570    0.0000 </r>
       <r>   65.1917    0.0000 </r>
       <r>   65.8051    0.0000 </r>
       <r>   66.2502    0.0000 </r>
      </set>
      <set comment="kpoint 3">
       <r>   -0.7287    1.0000 </r>
       <r>    2.7452    1.0000 </r>
       <r>    4.5285    1.0000 </r>
       <r>    4.5788    1.0000 </r>
       <r>    5.2852    1.0000 </r>
       <r>    5.8675    1.0000 </r>
       <r>    6.0703    1.0000 </r>
       <r>    6.0704    1.0000 </r>
       <r>    6.0803    1.0000 </r>
       <r>    6.3713    1.0001 </r>
       <r>    7.8276   -0.0000 </r>
       <r>   10.8948   -0.0000 </r>
       <r>   15.0103    0.0000 </r>
       <r>   24.8292    0.0000 </r>
       <r>   29.2805    0.0000 </r>
       <r>   30.0264    0.0000 </r>
       <r>   30.8433    0.0000 </r>
       <r>   32.5746    0.0000 </r>
       <r>   35.4745    0.0000 </r>
       <r>   37.2841    0.0000 </r>
       <r>   37.6079    0.0000 </r>
       <r>   37.8848    0.0000 </r>
       <r>   39.8615    0.0000 </r>
       <r>   41.3743    0.0000 </r>
       <r>   43.1873    0.0000 </r>
       <r>   44.4515    0.0000 </r>
       <r>   46.2820    0.0000 </r>
       <r>   48.5888    0.0000 </r>
       <r>   50.5831    0.0000 </r>
       <r>   53.0850    0.0000 </r>
       <r>   53.3894    0.0000 </r>
       <r>   56.3658    0.0000 </r>
       <r>   57.1294    0.0000 </r>
       <r>   58.2693    0.0000 </r>
       <r>   59.1569    0.0000 </r>
       <r>   60.8806    0.0000 </r>
       <r>   62.0310    0.0000 </r>
       <r>   65.5496    0.0000 </r>
       <r>   66.2215    0.0000 </r>
       <r>   67.8199    0.0000 </r>
      </set>
      <set comment="kpoint 4">
       <r>    0.5831    1.0000 </r>
       <r>    3.0338    1.0000 </r>
       <r>    3.6509    1.0000 </r>
       <r>    4.4431    1.0000 </r>
       <r>    5.1410    1.0000 </r>
       <r>    5.7265    1.0000 </r>
       <r>    5.7646    1.0000 </r>
       <r>    6.5804    1.0116 </r>
       <r>    6.8061    0.9764 </r>
       <r>    7.0264    0.2223 </r>
       <r>    7.8859   -0.0000 </r>
       <r>   13.0003    0.0000 </r>
       <r>   15.1968    0.0000 </r>
       <r>   20.9276    0.0000 </r>
       <r>   26.8991    0.0000 </r>
       <r>   27.3063    0.0000 </r>
       <r>   28.5473    0.0000 </r>
       <r>   31.9653    0.0000 </r>
       <r>   33.6292    0.0000 </r>
       <r>   37.0119    0.0000 </r>
       <r>   37.6350    0.0000 </r>
       <r>   37.9672    0.0000 </r>
       <r>   38.2472    0.0000 </r>
       <r>   42.0720    0.0000 </r>
       <r>   46.6531    0.0000 </r>
       <r>   48.5969    0.0000 </r>
       <r>   49.6531    0.0000 </r>
       <r>   51.5335    0.0000 </r>
       <r>   52.9074    0.0000 </r>
       <r>   54.1002    0.0000 </r>
       <r>   55.2900    0.0000 </r>
       <r>   56.5163    0.0000 </r>
       <r>   58.5072    0.0000 </r>
       <r>   59.3777    0.0000 </r>
       <r>   59.4360    0.0000 </r>
       <r>   60.4141    0.0000 </r>
       <r>   62.7650    0.0000 </r>
       <r>   65.2357    0.0000 </r>
       <r>   66.7420    0.0000 </r>
       <r>   66.8573    0.0000 </r>
      </set>
      <set comment="kpoint 5">
       <r>    1.8087    1.0000 </r>
       <r>    2.8058    1.0000 </r>
       <r>    3.0636    1.0000 </r>
       <r>    4.6381    1.0000 </r>
       <r>    5.4071    1.0000 </r>
       <r>    5.4282    1.0000 </r>
       <r>    5.5123    1.0000 </r>
       <r>    7.5414   -0.0001 </r>
       <r>    7.6867   -0.0000 </r>
       <r>    7.7202   -0.0000 </r>
       <r>    7.9148   -0.0000 </r>
       <r>   14.8434    0.0000 </r>
       <r>   15.2375    0.0000 </r>
       <r>   18.3205    0.0000 </r>
       <r>   24.1151    0.0000 </r>
       <r>   25.0716    0.0000 </r>
       <r>   25.9173    0.0000 </r>
       <r>   30.9243    0.0000 </r>
       <r>   32.4117    0.0000 </r>
       <r>   35.6701    0.0000 </r>
       <r>   36.6407    0.0000 </r>
       <r>   38.8736    0.0000 </r>
       <r>   40.3799    0.0000 </r>
       <r>   42.7076    0.0000 </r>
       <r>   50.3841    0.0000 </r>
       <r>   50.5166    0.0000 </r>
       <r>   50.6967    0.0000 </r>
       <r>   53.7012    0.0000 </r>
       <r>   54.0938    0.0000 </r>
       <r>   55.2405    0.0000 </r>
       <r>   57.2611    0.0000 </r>
       <r>   57.9373    0.0000 </r>
       <r>   58.5946    0.0000 </r>
       <r>   59.6396    0.0000 </r>
       <r>   61.3106    0.0000 </r>
       <r>   63.1248    0.0000 </r>
       <r>   64.6557    0.0000 </r>
       <r>   65.4587    0.0000 </r>
       <r>   66.0037    0.0000 </r>
       <r>   66.4129    0.0000 </r>
      </set>
      <set comment="kpoint 6">
       <r>    2.3605    1.0000 </r>
       <r>    2.5748    1.0000 </r>
       <r>    2.7709    1.0000 </r>
       <r>    5.1028    1.0000 </r>
       <r>    5.2214    1.0000 </r>
       <r>    5.3700    1.0000 </r>
       <r>    5.6669    1.0000 </r>
       <r>    7.9239   -0.0000 </r>
       <r>    7.9880   -0.0000 </r>
       <r>    8.1369   -0.0000 </r>
       <r>    9.3093   -0.0000 </r>
       <r>   12.6987    0.0000 </r>
       <r>   17.3442    0.0000 </r>
       <r>   18.5618    0.0000 </r>
       <r>   21.5577    0.0000 </r>
       <r>   23.3860    0.0000 </r>
       <r>   24.0526    0.0000 </r>
       <r>   30.2780    0.0000 </r>
       <r>   32.0388    0.0000 </r>
       <r>   34.5822    0.0000 </r>
       <r>   36.4346    0.0000 </r>
       <r>   39.5320    0.0000 </r>
       <r>   42.5174    0.0000 </r>
       <r>   43.1718    0.0000 </r>
       <r>   47.1608    0.0000 </r>
       <r>   51.4550    0.0000 </r>
       <r>   52.6825    0.0000 </r>
       <r>   55.9643    0.0000 </r>
       <r>   56.8292    0.0000 </r>
       <r>   57.6225    0.0000 </r>
       <r>   58.1601    0.0000 </r>
       <r>   59.7427    0.0000 </r>
       <r>   59.8682    0.0000 </r>
       <r>   61.6348    0.0000 </r>
       <r>   61.8595    0.0000 </r>
       <r>   62.6614    0.0000 </r>
       <r>   64.6393    0.0000 </r>
       <r>   65.1504    0.0000 </r>
       <r>   65.1748    0.0000 </r>
       <r>   65.9567    0.0000 </r>
      </set>
      <set comment="kpoint 7">
       <r>   -1.0226    1.0000 </r>
       <r>    2.6054    1.0000 </r>
       <r>    4.6406    1.0000 </r>
       <r>    4.8303    1.0000 </r>
       <r>    5.4436    1.0000 </r>
       <r>    5.5978    1.0000 </r>
       <r>    5.9310    1.0000 </r>
       <r>    5.9640    1.0000 </r>
       <r>    6.2716    1.0000 </r>
       <r>    6.3515    1.0001 </r>
       <r>    7.7859   -0.0000 </r>
       <r>   10.3700   -0.0000 </r>
       <r>   14.9801    0.0000 </r>
       <r>   26.5347    0.0000 </r>
       <r>   27.7601    0.0000 </r>
       <r>   32.1480    0.0000 </r>
       <r>   32.3704    0.0000 </r>
       <r>   33.2536    0.0000 </r>
       <r>   33.8097    0.0000 </r>
       <r>   36.2081    0.0000 </r>
       <r>   37.6615    0.0000 </r>
       <r>   40.4417    0.0000 </r>
       <r>   41.2674    0.0000 </r>
       <r>   41.7862    0.0000 </r>
       <r>   42.6208    0.0000 </r>
       <r>   42.7726    0.0000 </r>
       <r>   42.7844    0.0000 </r>
       <r>   48.9726    0.0000 </r>
       <r>   51.2844    0.0000 </r>
       <r>   51.4587    0.0000 </r>
       <r>   51.4672    0.0000 </r>
       <r>   55.6408    0.0000 </r>
       <r>   57.6745    0.0000 </r>
       <r>   59.2178    0.0000 </r>
       <r>   59.5236    0.0000 </r>
       <r>   60.8732    0.0000 </r>
       <r>   61.6535    0.0000 </r>
       <r>   65.8344    0.0000 </r>
       <r>   66.3349    0.0000 </r>
       <r>   67.6554    0.0000 </r>
      </set>
      <set comment="kpoint 8">
       <r>    0.1118    1.0000 </r>
       <r>    3.1193    1.0000 </r>
       <r>    3.9697    1.0000 </r>
       <r>    4.2784    1.0000 </r>
       <r>    5.2110    1.0000 </r>
       <r>    5.5837    1.0000 </r>
       <r>    6.0141    1.0000 </r>
       <r>    6.1243    1.0000 </r>
       <r>    6.6067    1.0165 </r>
       <r>    6.9485    0.5328 </r>
       <r>    7.8174   -0.0000 </r>
       <r>   12.2587   -0.0000 </r>
       <r>   15.1655    0.0000 </r>
       <r>   22.9043    0.0000 </r>
       <r>   25.4149    0.0000 </r>
       <r>   29.0394    0.0000 </r>
       <r>   31.2797    0.0000 </r>
       <r>   31.3544    0.0000 </r>
       <r>   34.3964    0.0000 </r>
       <r>   35.9953    0.0000 </r>
       <r>   36.0634    0.0000 </r>
       <r>   40.7544    0.0000 </r>
       <r>   40.8378    0.0000 </r>
       <r>   41.1526    0.0000 </r>
       <r>   44.3928    0.0000 </r>
       <r>   45.4778    0.0000 </r>
       <r>   47.0005    0.0000 </r>
       <r>   51.6908    0.0000 </r>
       <r>   53.5128    0.0000 </r>
       <r>   54.3221    0.0000 </r>
       <r>   55.0897    0.0000 </r>
       <r>   56.9767    0.0000 </r>
       <r>   57.8257    0.0000 </r>
       <r>   57.9079    0.0000 </r>
       <r>   59.1567    0.0000 </r>
       <r>   59.3820    0.0000 </r>
       <r>   62.1707    0.0000 </r>
       <r>   65.7990    0.0000 </r>
       <r>   66.5454    0.0000 </r>
       <r>   67.6146    0.0000 </r>
      </set>
      <set comment="kpoint 9">
       <r>    1.4572    1.0000 </r>
       <r>    3.1050    1.0000 </r>
       <r>    3.3175    1.0000 </r>
       <r>    4.2974    1.0000 </r>
       <r>    5.2745    1.0000 </r>
       <r>    5.2938    1.0000 </r>
       <r>    5.7797    1.0000 </r>
       <r>    6.7087    1.0354 </r>
       <r>    7.3544   -0.0082 </r>
       <r>    7.8353   -0.0000 </r>
       <r>    7.8359   -0.0000 </r>
       <r>   14.3968    0.0000 </r>
       <r>   15.3974    0.0000 </r>
       <r>   19.3651    0.0000 </r>
       <r>   23.7269    0.0000 </r>
       <r>   25.7783    0.0000 </r>
       <r>   28.1505    0.0000 </r>
       <r>   30.0739    0.0000 </r>
       <r>   33.7484    0.0000 </r>
       <r>   34.6953    0.0000 </r>
       <r>   37.2446    0.0000 </r>
       <r>   40.6673    0.0000 </r>
       <r>   40.6939    0.0000 </r>
       <r>   42.8464    0.0000 </r>
       <r>   46.3956    0.0000 </r>
       <r>   49.1930    0.0000 </r>
       <r>   51.1472    0.0000 </r>
       <r>   52.2663    0.0000 </r>
       <r>   52.5235    0.0000 </r>
       <r>   55.6096    0.0000 </r>
       <r>   57.2371    0.0000 </r>
       <r>   57.5944    0.0000 </r>
       <r>   58.4933    0.0000 </r>
       <r>   59.0575    0.0000 </r>
       <r>   60.7872    0.0000 </r>
       <r>   62.5105    0.0000 </r>
       <r>   63.4528    0.0000 </r>
       <r>   65.3831    0.0000 </r>
       <r>   65.8508    0.0000 </r>
       <r>   67.5962    0.0000 </r>
      </set>
      <set comment="kpoint 10">
       <r>    2.3740    1.0000 </r>
       <r>    2.8157    1.0000 </r>
       <r>    2.9216    1.0000 </r>
       <r>    4.6665    1.0000 </r>
       <r>    5.1591    1.0000 </r>
       <r>    5.4475    1.0000 </r>
       <r>    5.5906    1.0000 </r>
       <r>    7.5275   -0.0002 </r>
       <r>    7.8406   -0.0000 </r>
       <r>    7.8884   -0.0000 </r>
       <r>    8.9982   -0.0000 </r>
       <r>   14.1437    0.0000 </r>
       <r>   16.6401    0.0000 </r>
       <r>   18.3011    0.0000 </r>
       <r>   22.4411    0.0000 </r>
       <r>   22.8723    0.0000 </r>
       <r>   25.0380    0.0000 </r>
       <r>   29.1759    0.0000 </r>
       <r>   32.7865    0.0000 </r>
       <r>   34.1179    0.0000 </r>
       <r>   37.8058    0.0000 </r>
       <r>   41.1038    0.0000 </r>
       <r>   42.2919    0.0000 </r>
       <r>   43.1259    0.0000 </r>
       <r>   49.0690    0.0000 </r>
       <r>   49.1934    0.0000 </r>
       <r>   51.7595    0.0000 </r>
       <r>   53.1196    0.0000 </r>
       <r>   54.6720    0.0000 </r>
       <r>   56.9966    0.0000 </r>
       <r>   57.2898    0.0000 </r>
       <r>   58.7836    0.0000 </r>
       <r>   59.9750    0.0000 </r>
       <r>   62.0008    0.0000 </r>
       <r>   62.0199    0.0000 </r>
       <r>   63.5041    0.0000 </r>
       <r>   64.0366    0.0000 </r>
       <r>   65.3021    0.0000 </r>
       <r>   66.4580    0.0000 </r>
       <r>   66.6288    0.0000 </r>
      </set>
      <set comment="kpoint 11">
       <r>    2.5825    1.0000 </r>
       <r>    2.7046    1.0000 </r>
       <r>    2.7896    1.0000 </r>
       <r>    4.9875    1.0000 </r>
       <r>    5.1773    1.0000 </r>
       <r>    5.2581    1.0000 </r>
       <r>    5.7189    1.0000 </r>
       <r>    7.8407   -0.0000 </r>
       <r>    7.9840   -0.0000 </r>
       <r>    7.9901   -0.0000 </r>
       <r>   10.2045   -0.0000 </r>
       <r>   12.3360   -0.0000 </r>
       <r>   18.1583    0.0000 </r>
       <r>   19.0037    0.0000 </r>
       <r>   21.1362    0.0000 </r>
       <r>   21.7578    0.0000 </r>
       <r>   23.5338    0.0000 </r>
       <r>   28.8590    0.0000 </r>
       <r>   32.3971    0.0000 </r>
       <r>   33.9527    0.0000 </r>
       <r>   37.8534    0.0000 </r>
       <r>   41.6759    0.0000 </r>
       <r>   42.5339    0.0000 </r>
       <r>   44.2316    0.0000 </r>
       <r>   46.7102    0.0000 </r>
       <r>   51.4662    0.0000 </r>
       <r>   51.4862    0.0000 </r>
       <r>   54.7404    0.0000 </r>
       <r>   55.8029    0.0000 </r>
       <r>   56.1891    0.0000 </r>
       <r>   59.2294    0.0000 </r>
       <r>   60.0148    0.0000 </r>
       <r>   60.1200    0.0000 </r>
       <r>   60.2836    0.0000 </r>
       <r>   62.5150    0.0000 </r>
       <r>   64.8976    0.0000 </r>
       <r>   65.2828    0.0000 </r>
       <r>   65.5729    0.0000 </r>
       <r>   65.8887    0.0000 </r>
       <r>   67.3911    0.0000 </r>
      </set>
      <set comment="kpoint 12">
       <r>    1.3422    1.0000 </r>
       <r>    3.4656    1.0000 </r>
       <r>    3.5228    1.0000 </r>
       <r>    3.8403    1.0000 </r>
       <r>    5.1732    1.0000 </r>
       <r>    5.2680    1.0000 </r>
       <r>    5.9349    1.0000 </r>
       <r>    6.2608    1.0000 </r>
       <r>    7.3349   -0.0111 </r>
       <r>    7.7552   -0.0000 </r>
       <r>    7.8873   -0.0000 </r>
       <r>   14.1249    0.0000 </r>
       <r>   15.5814    0.0000 </r>
       <r>   20.9572    0.0000 </r>
       <r>   21.7125    0.0000 </r>
       <r>   27.2216    0.0000 </r>
       <r>   28.6422    0.0000 </r>
       <r>   30.3914    0.0000 </r>
       <r>   31.2037    0.0000 </r>
       <r>   37.1945    0.0000 </r>
       <r>   37.5405    0.0000 </r>
       <r>   40.9858    0.0000 </r>
       <r>   41.9265    0.0000 </r>
       <r>   44.1184    0.0000 </r>
       <r>   44.5376    0.0000 </r>
       <r>   46.5590    0.0000 </r>
       <r>   48.2456    0.0000 </r>
       <r>   53.1853    0.0000 </r>
       <r>   54.0307    0.0000 </r>
       <r>   55.5180    0.0000 </r>
       <r>   55.9511    0.0000 </r>
       <r>   58.1283    0.0000 </r>
       <r>   58.2518    0.0000 </r>
       <r>   60.4733    0.0000 </r>
       <r>   60.9277    0.0000 </r>
       <r>   61.3774    0.0000 </r>
       <r>   61.5331    0.0000 </r>
       <r>   65.7233    0.0000 </r>
       <r>   65.8918    0.0000 </r>
       <r>   68.6657    0.0000 </r>
      </set>
      <set comment="kpoint 13">
       <r>    2.5419    1.0000 </r>
       <r>    3.1184    1.0000 </r>
       <r>    3.3135    1.0000 </r>
       <r>    3.9717    1.0000 </r>
       <r>    4.9588    1.0000 </r>
       <r>    5.5307    1.0000 </r>
       <r>    5.5820    1.0000 </r>
       <r>    6.7743    1.0130 </r>
       <r>    7.6996   -0.0000 </r>
       <r>    7.8550   -0.0000 </r>
       <r>    9.0947   -0.0000 </r>
       <r>   15.7956    0.0000 </r>
       <r>   16.2894    0.0000 </r>
       <r>   18.3300    0.0000 </r>
       <r>   20.1638    0.0000 </r>
       <r>   24.6854    0.0000 </r>
       <r>   27.0521    0.0000 </r>
       <r>   27.0781    0.0000 </r>
       <r>   29.8672    0.0000 </r>
       <r>   37.9567    0.0000 </r>
       <r>   39.0835    0.0000 </r>
       <r>   41.9817    0.0000 </r>
       <r>   43.8750    0.0000 </r>
       <r>   44.2381    0.0000 </r>
       <r>   46.3572    0.0000 </r>
       <r>   47.9212    0.0000 </r>
       <r>   49.5637    0.0000 </r>
       <r>   51.6558    0.0000 </r>
       <r>   54.6801    0.0000 </r>
       <r>   54.8550    0.0000 </r>
       <r>   56.4811    0.0000 </r>
       <r>   58.6451    0.0000 </r>
       <r>   60.1992    0.0000 </r>
       <r>   61.1183    0.0000 </r>
       <r>   63.2852    0.0000 </r>
       <r>   63.4362    0.0000 </r>
       <r>   64.5449    0.0000 </r>
       <r>   66.0399    0.0000 </r>
       <r>   66.6241    0.0000 </r>
       <r>   67.6865    0.0000 </r>
      </set>
      <set comment="kpoint 14">
       <r>    2.9470    1.0000 </r>
       <r>    3.0173    1.0000 </r>
       <r>    3.1023    1.0000 </r>
       <r>    4.4083    1.0000 </r>
       <r>    4.9781    1.0000 </r>
       <r>    5.2212    1.0000 </r>
       <r>    5.7850    1.0000 </r>
       <r>    7.4077   -0.0032 </r>
       <r>    7.6681   -0.0000 </r>
       <r>    7.9212   -0.0000 </r>
       <r>   10.6437   -0.0000 </r>
       <r>   13.6654    0.0000 </r>
       <r>   18.4981    0.0000 </r>
       <r>   18.6734    0.0000 </r>
       <r>   19.5864    0.0000 </r>
       <r>   22.1000    0.0000 </r>
       <r>   24.2679    0.0000 </r>
       <r>   26.4554    0.0000 </r>
       <r>   29.2236    0.0000 </r>
       <r>   37.7736    0.0000 </r>
       <r>   40.4491    0.0000 </r>
       <r>   42.6967    0.0000 </r>
       <r>   44.4229    0.0000 </r>
       <r>   44.7841    0.0000 </r>
       <r>   48.2807    0.0000 </r>
       <r>   48.7529    0.0000 </r>
       <r>   50.6473    0.0000 </r>
       <r>   50.7850    0.0000 </r>
       <r>   54.2410    0.0000 </r>
       <r>   55.4939    0.0000 </r>
       <r>   55.6423    0.0000 </r>
       <r>   59.2914    0.0000 </r>
       <r>   59.5936    0.0000 </r>
       <r>   60.6528    0.0000 </r>
       <r>   64.3483    0.0000 </r>
       <r>   65.1806    0.0000 </r>
       <r>   66.2342    0.0000 </r>
       <r>   66.8590    0.0000 </r>
       <r>   66.9891    0.0000 </r>
       <r>   67.7287    0.0000 </r>
      </set>
      <set comment="kpoint 15">
       <r>    3.0552    1.0000 </r>
       <r>    3.3193    1.0000 </r>
       <r>    3.6788    1.0000 </r>
       <r>    3.6810    1.0000 </r>
       <r>    4.8232    1.0000 </r>
       <r>    5.2442    1.0000 </r>
       <r>    5.8359    1.0000 </r>
       <r>    7.0312    0.2062 </r>
       <r>    7.5794   -0.0000 </r>
       <r>    7.9026   -0.0000 </r>
       <r>   10.7521   -0.0000 </r>
       <r>   15.7592    0.0000 </r>
       <r>   16.2025    0.0000 </r>
       <r>   18.5202    0.0000 </r>
       <r>   19.5821    0.0000 </r>
       <r>   24.0198    0.0000 </r>
       <r>   24.1193    0.0000 </r>
       <r>   25.8829    0.0000 </r>
       <r>   26.8021    0.0000 </r>
       <r>   40.4346    0.0000 </r>
       <r>   41.5698    0.0000 </r>
       <r>   43.6522    0.0000 </r>
       <r>   44.8247    0.0000 </r>
       <r>   46.5577    0.0000 </r>
       <r>   46.6761    0.0000 </r>
       <r>   46.6846    0.0000 </r>
       <r>   49.2031    0.0000 </r>
       <r>   51.7732    0.0000 </r>
       <r>   52.2264    0.0000 </r>
       <r>   54.4961    0.0000 </r>
       <r>   55.7435    0.0000 </r>
       <r>   58.0965    0.0000 </r>
       <r>   59.4145    0.0000 </r>
       <r>   60.8586    0.0000 </r>
       <r>   64.1233    0.0000 </r>
       <r>   65.3419    0.0000 </r>
       <r>   65.7986    0.0000 </r>
       <r>   67.3916    0.0000 </r>
       <r>   67.9757    0.0000 </r>
       <r>   68.0995    0.0000 </r>
      </set>
      <set comment="kpoint 16">
       <r>    3.0506    1.0000 </r>
       <r>    3.5036    1.0000 </r>
       <r>    3.5076    1.0000 </r>
       <r>    4.0046    1.0000 </r>
       <r>    4.8840    1.0000 </r>
       <r>    4.9891    1.0000 </r>
       <r>    5.9840    1.0000 </r>
       <r>    7.3694   -0.0064 </r>
       <r>    7.5335   -0.0002 </r>
       <r>    7.6448   -0.0000 </r>
       <r>   12.4682    0.0000 </r>
       <r>   13.7249    0.0000 </r>
       <r>   15.8218    0.0000 </r>
       <r>   20.4529    0.0000 </r>
       <r>   20.5463    0.0000 </r>
       <r>   21.9002    0.0000 </r>
       <r>   23.8400    0.0000 </r>
       <r>   24.3332    0.0000 </r>
       <r>   26.1915    0.0000 </r>
       <r>   40.9195    0.0000 </r>
       <r>   43.4828    0.0000 </r>
       <r>   44.2012    0.0000 </r>
       <r>   45.3477    0.0000 </r>
       <r>   45.8262    0.0000 </r>
       <r>   47.5573    0.0000 </r>
       <r>   47.6050    0.0000 </r>
       <r>   49.9486    0.0000 </r>
       <r>   50.5617    0.0000 </r>
       <r>   50.7512    0.0000 </r>
       <r>   54.2288    0.0000 </r>
       <r>   55.9609    0.0000 </r>
       <r>   56.2055    0.0000 </r>
       <r>   59.4406    0.0000 </r>
       <r>   60.0508    0.0000 </r>
       <r>   65.3399    0.0000 </r>
       <r>   65.7429    0.0000 </r>
       <r>   66.9197    0.0000 </r>
       <r>   67.3114    0.0000 </r>
       <r>   67.9109    0.0000 </r>
       <r>   68.0431    0.0000 </r>
      </set>
      <set comment="kpoint 17">
       <r>   -1.8806    1.0000 </r>
       <r>    1.9550    1.0000 </r>
       <r>    4.9955    1.0000 </r>
       <r>    5.3523    1.0000 </r>
       <r>    5.3524    1.0000 </r>
       <r>    5.7127    1.0000 </r>
       <r>    5.7128    1.0000 </r>
       <r>    6.4773    1.0018 </r>
       <r>    6.5059    1.0033 </r>
       <r>    6.5060    1.0033 </r>
       <r>    7.7023   -0.0000 </r>
       <r>    7.7023   -0.0000 </r>
       <r>   15.3111    0.0000 </r>
       <r>   29.7420    0.0000 </r>
       <r>   31.3492    0.0000 </r>
       <r>   32.9395    0.0000 </r>
       <r>   34.8260    0.0000 </r>
       <r>   34.8260    0.0000 </r>
       <r>   35.6511    0.0000 </r>
       <r>   35.6513    0.0000 </r>
       <r>   38.8082    0.0000 </r>
       <r>   38.8083    0.0000 </r>
       <r>   38.9962    0.0000 </r>
       <r>   40.2951    0.0000 </r>
       <r>   42.2902    0.0000 </r>
       <r>   42.2902    0.0000 </r>
       <r>   44.3603    0.0000 </r>
       <r>   46.4675    0.0000 </r>
       <r>   46.4679    0.0000 </r>
       <r>   48.4987    0.0000 </r>
       <r>   48.4988    0.0000 </r>
       <r>   51.0142    0.0000 </r>
       <r>   58.7409    0.0000 </r>
       <r>   61.7458    0.0000 </r>
       <r>   61.7469    0.0000 </r>
       <r>   62.4299    0.0000 </r>
       <r>   62.8110    0.0000 </r>
       <r>   62.8115    0.0000 </r>
       <r>   64.1825    0.0000 </r>
       <r>   67.2222    0.0000 </r>
      </set>
      <set comment="kpoint 18">
       <r>   -1.5602    1.0000 </r>
       <r>    2.1878    1.0000 </r>
       <r>    4.9063    1.0000 </r>
       <r>    5.3660    1.0000 </r>
       <r>    5.4330    1.0000 </r>
       <r>    5.5302    1.0000 </r>
       <r>    5.7579    1.0000 </r>
       <r>    5.8774    1.0000 </r>
       <r>    6.4041    1.0003 </r>
       <r>    6.4156    1.0004 </r>
       <r>    7.7419   -0.0000 </r>
       <r>    8.8180   -0.0000 </r>
       <r>   15.3665    0.0000 </r>
       <r>   28.5673    0.0000 </r>
       <r>   31.0149    0.0000 </r>
       <r>   31.6193    0.0000 </r>
       <r>   32.1404    0.0000 </r>
       <r>   34.0756    0.0000 </r>
       <r>   35.6214    0.0000 </r>
       <r>   38.0198    0.0000 </r>
       <r>   38.3159    0.0000 </r>
       <r>   38.6359    0.0000 </r>
       <r>   39.3325    0.0000 </r>
       <r>   40.2647    0.0000 </r>
       <r>   43.3237    0.0000 </r>
       <r>   43.6504    0.0000 </r>
       <r>   44.5049    0.0000 </r>
       <r>   44.6116    0.0000 </r>
       <r>   47.7126    0.0000 </r>
       <r>   49.8950    0.0000 </r>
       <r>   50.7997    0.0000 </r>
       <r>   52.8833    0.0000 </r>
       <r>   57.5847    0.0000 </r>
       <r>   60.2968    0.0000 </r>
       <r>   61.0076    0.0000 </r>
       <r>   62.0752    0.0000 </r>
       <r>   62.4576    0.0000 </r>
       <r>   63.9990    0.0000 </r>
       <r>   65.1673    0.0000 </r>
       <r>   67.1639    0.0000 </r>
      </set>
      <set comment="kpoint 19">
       <r>   -0.6531    1.0000 </r>
       <r>    2.7419    1.0000 </r>
       <r>    4.4321    1.0000 </r>
       <r>    4.5990    1.0000 </r>
       <r>    5.2522    1.0000 </r>
       <r>    5.7463    1.0000 </r>
       <r>    5.9459    1.0000 </r>
       <r>    6.2079    1.0000 </r>
       <r>    6.2418    1.0000 </r>
       <r>    6.3768    1.0002 </r>
       <r>    7.8107   -0.0000 </r>
       <r>   10.5213   -0.0000 </r>
       <r>   15.5782    0.0000 </r>
       <r>   24.8910    0.0000 </r>
       <r>   29.3817    0.0000 </r>
       <r>   29.6384    0.0000 </r>
       <r>   31.0192    0.0000 </r>
       <r>   32.0442    0.0000 </r>
       <r>   35.4756    0.0000 </r>
       <r>   36.9965    0.0000 </r>
       <r>   37.0389    0.0000 </r>
       <r>   38.2996    0.0000 </r>
       <r>   40.2646    0.0000 </r>
       <r>   42.1678    0.0000 </r>
       <r>   43.5133    0.0000 </r>
       <r>   44.4923    0.0000 </r>
       <r>   46.0511    0.0000 </r>
       <r>   48.6163    0.0000 </r>
       <r>   50.5562    0.0000 </r>
       <r>   53.1077    0.0000 </r>
       <r>   53.7518    0.0000 </r>
       <r>   55.5606    0.0000 </r>
       <r>   56.2470    0.0000 </r>
       <r>   58.5660    0.0000 </r>
       <r>   59.6957    0.0000 </r>
       <r>   60.7926    0.0000 </r>
       <r>   62.2316    0.0000 </r>
       <r>   65.0435    0.0000 </r>
       <r>   67.0473    0.0000 </r>
       <r>   67.0646    0.0000 </r>
      </set>
      <set comment="kpoint 20">
       <r>    0.6372    1.0000 </r>
       <r>    3.0453    1.0000 </r>
       <r>    3.6141    1.0000 </r>
       <r>    4.4584    1.0000 </r>
       <r>    5.0787    1.0000 </r>
       <r>    5.7499    1.0000 </r>
       <r>    5.7865    1.0000 </r>
       <r>    6.6163    1.0186 </r>
       <r>    6.8196    0.9539 </r>
       <r>    7.0047    0.3015 </r>
       <r>    7.8632   -0.0000 </r>
       <r>   12.2853   -0.0000 </r>
       <r>   16.0487    0.0000 </r>
       <r>   20.9981    0.0000 </r>
       <r>   26.7395    0.0000 </r>
       <r>   27.0128    0.0000 </r>
       <r>   28.9928    0.0000 </r>
       <r>   31.7605    0.0000 </r>
       <r>   33.6992    0.0000 </r>
       <r>   35.8355    0.0000 </r>
       <r>   36.7941    0.0000 </r>
       <r>   38.8108    0.0000 </r>
       <r>   38.9496    0.0000 </r>
       <r>   43.0872    0.0000 </r>
       <r>   46.7807    0.0000 </r>
       <r>   48.5354    0.0000 </r>
       <r>   49.3092    0.0000 </r>
       <r>   50.2534    0.0000 </r>
       <r>   53.3207    0.0000 </r>
       <r>   54.1924    0.0000 </r>
       <r>   55.5989    0.0000 </r>
       <r>   57.2231    0.0000 </r>
       <r>   58.0593    0.0000 </r>
       <r>   58.2384    0.0000 </r>
       <r>   59.7177    0.0000 </r>
       <r>   60.7973    0.0000 </r>
       <r>   62.9489    0.0000 </r>
       <r>   65.3498    0.0000 </r>
       <r>   66.0425    0.0000 </r>
       <r>   67.0085    0.0000 </r>
      </set>
      <set comment="kpoint 21">
       <r>    1.8035    1.0000 </r>
       <r>    2.7891    1.0000 </r>
       <r>    3.1407    1.0000 </r>
       <r>    4.4744    1.0000 </r>
       <r>    5.4166    1.0000 </r>
       <r>    5.5486    1.0000 </r>
       <r>    5.6341    1.0000 </r>
       <r>    7.5474   -0.0001 </r>
       <r>    7.6310   -0.0000 </r>
       <r>    7.6833   -0.0000 </r>
       <r>    7.9099   -0.0000 </r>
       <r>   13.6355    0.0000 </r>
       <r>   16.3749    0.0000 </r>
       <r>   18.5171    0.0000 </r>
       <r>   23.6231    0.0000 </r>
       <r>   25.2008    0.0000 </r>
       <r>   26.4695    0.0000 </r>
       <r>   30.8740    0.0000 </r>
       <r>   32.4383    0.0000 </r>
       <r>   34.5461    0.0000 </r>
       <r>   37.7835    0.0000 </r>
       <r>   37.9421    0.0000 </r>
       <r>   40.2567    0.0000 </r>
       <r>   43.9851    0.0000 </r>
       <r>   48.5814    0.0000 </r>
       <r>   50.3427    0.0000 </r>
       <r>   52.1709    0.0000 </r>
       <r>   52.8568    0.0000 </r>
       <r>   54.3476    0.0000 </r>
       <r>   55.9302    0.0000 </r>
       <r>   56.8891    0.0000 </r>
       <r>   58.1663    0.0000 </r>
       <r>   58.6319    0.0000 </r>
       <r>   59.4436    0.0000 </r>
       <r>   61.4618    0.0000 </r>
       <r>   63.0589    0.0000 </r>
       <r>   64.9143    0.0000 </r>
       <r>   64.9526    0.0000 </r>
       <r>   66.1407    0.0000 </r>
       <r>   66.5732    0.0000 </r>
      </set>
      <set comment="kpoint 22">
       <r>    2.2687    1.0000 </r>
       <r>    2.4967    1.0000 </r>
       <r>    3.0145    1.0000 </r>
       <r>    4.5633    1.0000 </r>
       <r>    5.4122    1.0000 </r>
       <r>    5.6588    1.0000 </r>
       <r>    5.8450    1.0000 </r>
       <r>    7.8441   -0.0000 </r>
       <r>    8.0003   -0.0000 </r>
       <r>    8.1412   -0.0000 </r>
       <r>    9.2216   -0.0000 </r>
       <r>   12.5350    0.0000 </r>
       <r>   17.0702    0.0000 </r>
       <r>   18.6597    0.0000 </r>
       <r>   21.6467    0.0000 </r>
       <r>   23.8631    0.0000 </r>
       <r>   24.1907    0.0000 </r>
       <r>   30.2650    0.0000 </r>
       <r>   32.0452    0.0000 </r>
       <r>   33.6999    0.0000 </r>
       <r>   37.3573    0.0000 </r>
       <r>   39.3061    0.0000 </r>
       <r>   40.6824    0.0000 </r>
       <r>   44.8751    0.0000 </r>
       <r>   46.8992    0.0000 </r>
       <r>   52.1799    0.0000 </r>
       <r>   52.4246    0.0000 </r>
       <r>   55.7147    0.0000 </r>
       <r>   56.1371    0.0000 </r>
       <r>   57.3443    0.0000 </r>
       <r>   58.8112    0.0000 </r>
       <r>   59.5966    0.0000 </r>
       <r>   59.7280    0.0000 </r>
       <r>   61.8274    0.0000 </r>
       <r>   62.3757    0.0000 </r>
       <r>   62.9418    0.0000 </r>
       <r>   64.4616    0.0000 </r>
       <r>   65.3142    0.0000 </r>
       <r>   65.6385    0.0000 </r>
       <r>   65.8888    0.0000 </r>
      </set>
      <set comment="kpoint 23">
       <r>   -0.9441    1.0000 </r>
       <r>    2.5969    1.0000 </r>
       <r>    4.6547    1.0000 </r>
       <r>    4.7098    1.0000 </r>
       <r>    5.4587    1.0000 </r>
       <r>    5.4837    1.0000 </r>
       <r>    5.8817    1.0000 </r>
       <r>    6.0630    1.0000 </r>
       <r>    6.2951    1.0000 </r>
       <r>    6.4156    1.0004 </r>
       <r>    7.7703   -0.0000 </r>
       <r>   10.0562   -0.0000 </r>
       <r>   15.5037    0.0000 </r>
       <r>   26.5798    0.0000 </r>
       <r>   27.8239    0.0000 </r>
       <r>   31.4854    0.0000 </r>
       <r>   31.8318    0.0000 </r>
       <r>   33.5334    0.0000 </r>
       <r>   34.3355    0.0000 </r>
       <r>   35.4369    0.0000 </r>
       <r>   38.0727    0.0000 </r>
       <r>   40.5332    0.0000 </r>
       <r>   41.4366    0.0000 </r>
       <r>   41.6539    0.0000 </r>
       <r>   42.0788    0.0000 </r>
       <r>   43.2860    0.0000 </r>
       <r>   43.7645    0.0000 </r>
       <r>   48.7959    0.0000 </r>
       <r>   50.9082    0.0000 </r>
       <r>   51.6832    0.0000 </r>
       <r>   52.0269    0.0000 </r>
       <r>   55.5444    0.0000 </r>
       <r>   56.1954    0.0000 </r>
       <r>   58.8277    0.0000 </r>
       <r>   60.3880    0.0000 </r>
       <r>   61.3118    0.0000 </r>
       <r>   61.6236    0.0000 </r>
       <r>   65.1174    0.0000 </r>
       <r>   66.6951    0.0000 </r>
       <r>   66.8464    0.0000 </r>
      </set>
      <set comment="kpoint 24">
       <r>    0.1771    1.0000 </r>
       <r>    3.1329    1.0000 </r>
       <r>    3.8985    1.0000 </r>
       <r>    4.3017    1.0000 </r>
       <r>    5.1780    1.0000 </r>
       <r>    5.5364    1.0000 </r>
       <r>    6.0285    1.0000 </r>
       <r>    6.1536    1.0000 </r>
       <r>    6.6687    1.0303 </r>
       <r>    6.9274    0.6203 </r>
       <r>    7.8017   -0.0000 </r>
       <r>   11.6980   -0.0000 </r>
       <r>   15.8846    0.0000 </r>
       <r>   22.9723    0.0000 </r>
       <r>   25.4888    0.0000 </r>
       <r>   28.6077    0.0000 </r>
       <r>   30.8480    0.0000 </r>
       <r>   31.7888    0.0000 </r>
       <r>   34.7931    0.0000 </r>
       <r>   34.8308    0.0000 </r>
       <r>   36.4640    0.0000 </r>
       <r>   39.8533    0.0000 </r>
       <r>   41.7107    0.0000 </r>
       <r>   41.9743    0.0000 </r>
       <r>   44.5559    0.0000 </r>
       <r>   45.3323    0.0000 </r>
       <r>   47.2729    0.0000 </r>
       <r>   51.2863    0.0000 </r>
       <r>   53.0253    0.0000 </r>
       <r>   54.6108    0.0000 </r>
       <r>   54.8832    0.0000 </r>
       <r>   56.5423    0.0000 </r>
       <r>   56.9245    0.0000 </r>
       <r>   58.7417    0.0000 </r>
       <r>   59.0976    0.0000 </r>
       <r>   60.2319    0.0000 </r>
       <r>   62.2350    0.0000 </r>
       <r>   65.8691    0.0000 </r>
       <r>   66.4839    0.0000 </r>
       <r>   66.8552    0.0000 </r>
      </set>
      <set comment="kpoint 25">
       <r>    1.4868    1.0000 </r>
       <r>    3.1155    1.0000 </r>
       <r>    3.3141    1.0000 </r>
       <r>    4.2954    1.0000 </r>
       <r>    5.1419    1.0000 </r>
       <r>    5.4662    1.0000 </r>
       <r>    5.7739    1.0000 </r>
       <r>    6.7174    1.0353 </r>
       <r>    7.3819   -0.0052 </r>
       <r>    7.6709   -0.0000 </r>
       <r>    7.9446   -0.0000 </r>
       <r>   13.3449    0.0000 </r>
       <r>   16.5437    0.0000 </r>
       <r>   19.4511    0.0000 </r>
       <r>   23.8009    0.0000 </r>
       <r>   25.3437    0.0000 </r>
       <r>   28.6200    0.0000 </r>
       <r>   29.8052    0.0000 </r>
       <r>   34.0807    0.0000 </r>
       <r>   34.6313    0.0000 </r>
       <r>   36.3902    0.0000 </r>
       <r>   39.7670    0.0000 </r>
       <r>   41.8290    0.0000 </r>
       <r>   43.7379    0.0000 </r>
       <r>   46.3762    0.0000 </r>
       <r>   48.4212    0.0000 </r>
       <r>   50.5821    0.0000 </r>
       <r>   52.0736    0.0000 </r>
       <r>   53.6090    0.0000 </r>
       <r>   55.1864    0.0000 </r>
       <r>   57.5535    0.0000 </r>
       <r>   57.7218    0.0000 </r>
       <r>   58.1993    0.0000 </r>
       <r>   59.3371    0.0000 </r>
       <r>   61.1047    0.0000 </r>
       <r>   62.1115    0.0000 </r>
       <r>   63.7937    0.0000 </r>
       <r>   65.5219    0.0000 </r>
       <r>   65.6253    0.0000 </r>
       <r>   66.9243    0.0000 </r>
      </set>
      <set comment="kpoint 26">
       <r>    2.3067    1.0000 </r>
       <r>    2.7711    1.0000 </r>
       <r>    3.0998    1.0000 </r>
       <r>    4.4220    1.0000 </r>
       <r>    5.2905    1.0000 </r>
       <r>    5.5674    1.0000 </r>
       <r>    5.6518    1.0000 </r>
       <r>    7.5111   -0.0003 </r>
       <r>    7.7717   -0.0000 </r>
       <r>    7.9060   -0.0000 </r>
       <r>    8.9826   -0.0000 </r>
       <r>   13.7350    0.0000 </r>
       <r>   16.6391    0.0000 </r>
       <r>   18.7316    0.0000 </r>
       <r>   22.2422    0.0000 </r>
       <r>   22.8695    0.0000 </r>
       <r>   25.5621    0.0000 </r>
       <r>   28.9011    0.0000 </r>
       <r>   33.0479    0.0000 </r>
       <r>   34.1229    0.0000 </r>
       <r>   37.2922    0.0000 </r>
       <r>   40.0846    0.0000 </r>
       <r>   42.3282    0.0000 </r>
       <r>   44.5997    0.0000 </r>
       <r>   47.7571    0.0000 </r>
       <r>   49.6726    0.0000 </r>
       <r>   51.6671    0.0000 </r>
       <r>   53.5155    0.0000 </r>
       <r>   55.2738    0.0000 </r>
       <r>   56.9023    0.0000 </r>
       <r>   57.1363    0.0000 </r>
       <r>   58.6303    0.0000 </r>
       <r>   59.9918    0.0000 </r>
       <r>   61.7596    0.0000 </r>
       <r>   62.4760    0.0000 </r>
       <r>   63.5820    0.0000 </r>
       <r>   64.0727    0.0000 </r>
       <r>   65.0539    0.0000 </r>
       <r>   66.0224    0.0000 </r>
       <r>   67.3907    0.0000 </r>
      </set>
      <set comment="kpoint 27">
       <r>    2.4590    1.0000 </r>
       <r>    2.6016    1.0000 </r>
       <r>    3.0993    1.0000 </r>
       <r>    4.5179    1.0000 </r>
       <r>    5.2437    1.0000 </r>
       <r>    5.6803    1.0000 </r>
       <r>    5.7682    1.0000 </r>
       <r>    7.7645   -0.0000 </r>
       <r>    7.9795   -0.0000 </r>
       <r>    8.0020   -0.0000 </r>
       <r>   10.1448   -0.0000 </r>
       <r>   12.2642   -0.0000 </r>
       <r>   17.9348    0.0000 </r>
       <r>   18.5491    0.0000 </r>
       <r>   21.7470    0.0000 </r>
       <r>   21.9576    0.0000 </r>
       <r>   23.8542    0.0000 </r>
       <r>   28.5893    0.0000 </r>
       <r>   32.6414    0.0000 </r>
       <r>   33.9588    0.0000 </r>
       <r>   37.5698    0.0000 </r>
       <r>   40.6756    0.0000 </r>
       <r>   41.9753    0.0000 </r>
       <r>   46.0866    0.0000 </r>
       <r>   46.2211    0.0000 </r>
       <r>   50.6705    0.0000 </r>
       <r>   52.2514    0.0000 </r>
       <r>   54.8044    0.0000 </r>
       <r>   55.9298    0.0000 </r>
       <r>   56.6747    0.0000 </r>
       <r>   58.7715    0.0000 </r>
       <r>   59.5870    0.0000 </r>
       <r>   60.3600    0.0000 </r>
       <r>   60.5770    0.0000 </r>
       <r>   62.2217    0.0000 </r>
       <r>   64.9101    0.0000 </r>
       <r>   65.1737    0.0000 </r>
       <r>   66.0468    0.0000 </r>
       <r>   66.0921    0.0000 </r>
       <r>   67.3203    0.0000 </r>
      </set>
      <set comment="kpoint 28">
       <r>    1.3848    1.0000 </r>
       <r>    3.4095    1.0000 </r>
       <r>    3.5714    1.0000 </r>
       <r>    3.8612    1.0000 </r>
       <r>    5.1564    1.0000 </r>
       <r>    5.2671    1.0000 </r>
       <r>    5.8977    1.0000 </r>
       <r>    6.3088    1.0000 </r>
       <r>    7.3769   -0.0056 </r>
       <r>    7.6174   -0.0000 </r>
       <r>    7.9765   -0.0000 </r>
       <r>   13.2150    0.0000 </r>
       <r>   16.6126    0.0000 </r>
       <r>   21.0315    0.0000 </r>
       <r>   21.7999    0.0000 </r>
       <r>   26.8340    0.0000 </r>
       <r>   28.1438    0.0000 </r>
       <r>   30.9089    0.0000 </r>
       <r>   31.6922    0.0000 </r>
       <r>   35.9798    0.0000 </r>
       <r>   37.8712    0.0000 </r>
       <r>   40.9443    0.0000 </r>
       <r>   42.7073    0.0000 </r>
       <r>   43.9114    0.0000 </r>
       <r>   44.1596    0.0000 </r>
       <r>   47.2616    0.0000 </r>
       <r>   48.2815    0.0000 </r>
       <r>   52.3890    0.0000 </r>
       <r>   53.6926    0.0000 </r>
       <r>   54.8404    0.0000 </r>
       <r>   57.4896    0.0000 </r>
       <r>   58.2771    0.0000 </r>
       <r>   58.4795    0.0000 </r>
       <r>   59.8410    0.0000 </r>
       <r>   60.4094    0.0000 </r>
       <r>   61.9712    0.0000 </r>
       <r>   62.1499    0.0000 </r>
       <r>   65.8012    0.0000 </r>
       <r>   66.0257    0.0000 </r>
       <r>   67.1747    0.0000 </r>
      </set>
      <set comment="kpoint 29">
       <r>    2.5267    1.0000 </r>
       <r>    3.1256    1.0000 </r>
       <r>    3.3448    1.0000 </r>
       <r>    3.9862    1.0000 </r>
       <r>    4.9888    1.0000 </r>
       <r>    5.4771    1.0000 </r>
       <r>    5.6221    1.0000 </r>
       <r>    6.7929    0.9942 </r>
       <r>    7.6187   -0.0000 </r>
       <r>    7.8877   -0.0000 </r>
       <r>    9.1198   -0.0000 </r>
       <r>   14.6666    0.0000 </r>
       <r>   17.2503    0.0000 </r>
       <r>   18.6398    0.0000 </r>
       <r>   20.2555    0.0000 </r>
       <r>   24.2316    0.0000 </r>
       <r>   26.5798    0.0000 </r>
       <r>   27.6832    0.0000 </r>
       <r>   30.4248    0.0000 </r>
       <r>   37.3416    0.0000 </r>
       <r>   38.6326    0.0000 </r>
       <r>   42.0019    0.0000 </r>
       <r>   43.9135    0.0000 </r>
       <r>   44.6409    0.0000 </r>
       <r>   46.3988    0.0000 </r>
       <r>   47.3275    0.0000 </r>
       <r>   50.2218    0.0000 </r>
       <r>   51.5114    0.0000 </r>
       <r>   53.9349    0.0000 </r>
       <r>   55.8740    0.0000 </r>
       <r>   57.0462    0.0000 </r>
       <r>   58.6916    0.0000 </r>
       <r>   60.1672    0.0000 </r>
       <r>   61.0749    0.0000 </r>
       <r>   63.1735    0.0000 </r>
       <r>   63.5091    0.0000 </r>
       <r>   64.5672    0.0000 </r>
       <r>   65.9978    0.0000 </r>
       <r>   66.5418    0.0000 </r>
       <r>   67.6636    0.0000 </r>
      </set>
      <set comment="kpoint 30">
       <r>    2.7811    1.0000 </r>
       <r>    3.0683    1.0000 </r>
       <r>    3.2982    1.0000 </r>
       <r>    4.2515    1.0000 </r>
       <r>    5.0080    1.0000 </r>
       <r>    5.2894    1.0000 </r>
       <r>    5.8363    1.0000 </r>
       <r>    7.4100   -0.0031 </r>
       <r>    7.5871   -0.0000 </r>
       <r>    7.9417   -0.0000 </r>
       <r>   10.6648   -0.0000 </r>
       <r>   13.5888    0.0000 </r>
       <r>   17.7649    0.0000 </r>
       <r>   19.2103    0.0000 </r>
       <r>   19.5840    0.0000 </r>
       <r>   22.2181    0.0000 </r>
       <r>   24.7944    0.0000 </r>
       <r>   25.9787    0.0000 </r>
       <r>   29.8134    0.0000 </r>
       <r>   37.6722    0.0000 </r>
       <r>   39.6263    0.0000 </r>
       <r>   41.4600    0.0000 </r>
       <r>   44.9309    0.0000 </r>
       <r>   45.7762    0.0000 </r>
       <r>   47.7362    0.0000 </r>
       <r>   48.6007    0.0000 </r>
       <r>   50.1045    0.0000 </r>
       <r>   52.1790    0.0000 </r>
       <r>   54.6698    0.0000 </r>
       <r>   55.4309    0.0000 </r>
       <r>   55.9092    0.0000 </r>
       <r>   59.1283    0.0000 </r>
       <r>   59.5081    0.0000 </r>
       <r>   60.9869    0.0000 </r>
       <r>   64.2031    0.0000 </r>
       <r>   65.0330    0.0000 </r>
       <r>   66.1164    0.0000 </r>
       <r>   66.1767    0.0000 </r>
       <r>   67.2637    0.0000 </r>
       <r>   67.8987    0.0000 </r>
      </set>
      <set comment="kpoint 31">
       <r>    3.0484    1.0000 </r>
       <r>    3.3247    1.0000 </r>
       <r>    3.6541    1.0000 </r>
       <r>    3.7371    1.0000 </r>
       <r>    4.8751    1.0000 </r>
       <r>    5.1826    1.0000 </r>
       <r>    5.8449    1.0000 </r>
       <r>    7.0563    0.1297 </r>
       <r>    7.4957   -0.0005 </r>
       <r>    7.9284   -0.0000 </r>
       <r>   10.7975   -0.0000 </r>
       <r>   15.4850    0.0000 </r>
       <r>   16.2847    0.0000 </r>
       <r>   18.2183    0.0000 </r>
       <r>   20.1671    0.0000 </r>
       <r>   23.6070    0.0000 </r>
       <r>   23.6231    0.0000 </r>
       <r>   26.5806    0.0000 </r>
       <r>   27.4245    0.0000 </r>
       <r>   39.2659    0.0000 </r>
       <r>   41.7070    0.0000 </r>
       <r>   43.4143    0.0000 </r>
       <r>   44.0604    0.0000 </r>
       <r>   45.8008    0.0000 </r>
       <r>   46.7149    0.0000 </r>
       <r>   48.3782    0.0000 </r>
       <r>   49.8007    0.0000 </r>
       <r>   51.7306    0.0000 </r>
       <r>   52.2237    0.0000 </r>
       <r>   54.6425    0.0000 </r>
       <r>   56.3100    0.0000 </r>
       <r>   58.3542    0.0000 </r>
       <r>   59.0306    0.0000 </r>
       <r>   61.1968    0.0000 </r>
       <r>   64.1210    0.0000 </r>
       <r>   65.3181    0.0000 </r>
       <r>   65.6828    0.0000 </r>
       <r>   67.3590    0.0000 </r>
       <r>   67.9359    0.0000 </r>
       <r>   68.0064    0.0000 </r>
      </set>
      <set comment="kpoint 32">
       <r>    3.0527    1.0000 </r>
       <r>    3.5282    1.0000 </r>
       <r>    3.5499    1.0000 </r>
       <r>    3.9657    1.0000 </r>
       <r>    4.8679    1.0000 </r>
       <r>    4.9905    1.0000 </r>
       <r>    5.9903    1.0000 </r>
       <r>    7.3905   -0.0044 </r>
       <r>    7.4458   -0.0015 </r>
       <r>    7.6703   -0.0000 </r>
       <r>   12.5506    0.0000 </r>
       <r>   13.7269    0.0000 </r>
       <r>   15.8479    0.0000 </r>
       <r>   19.8826    0.0000 </r>
       <r>   20.1475    0.0000 </r>
       <r>   22.3277    0.0000 </r>
       <r>   23.6934    0.0000 </r>
       <r>   24.8385    0.0000 </r>
       <r>   26.8443    0.0000 </r>
       <r>   40.1999    0.0000 </r>
       <r>   42.3187    0.0000 </r>
       <r>   43.4227    0.0000 </r>
       <r>   44.8481    0.0000 </r>
       <r>   46.6840    0.0000 </r>
       <r>   47.8186    0.0000 </r>
       <r>   48.7710    0.0000 </r>
       <r>   50.1626    0.0000 </r>
       <r>   50.4537    0.0000 </r>
       <r>   51.6421    0.0000 </r>
       <r>   54.0021    0.0000 </r>
       <r>   55.6926    0.0000 </r>
       <r>   56.5688    0.0000 </r>
       <r>   59.6696    0.0000 </r>
       <r>   60.2352    0.0000 </r>
       <r>   65.2782    0.0000 </r>
       <r>   65.7317    0.0000 </r>
       <r>   66.9275    0.0000 </r>
       <r>   67.1344    0.0000 </r>
       <r>   68.0966    0.0000 </r>
       <r>   68.3192    0.0000 </r>
      </set>
      <set comment="kpoint 33">
       <r>   -1.6289    1.0000 </r>
       <r>    1.8603    1.0000 </r>
       <r>    4.9237    1.0000 </r>
       <r>    5.3160    1.0000 </r>
       <r>    5.3161    1.0000 </r>
       <r>    5.6487    1.0000 </r>
       <r>    5.6488    1.0000 </r>
       <r>    5.8892    1.0000 </r>
       <r>    6.6423    1.0245 </r>
       <r>    6.6423    1.0245 </r>
       <r>    7.6754   -0.0000 </r>
       <r>    7.6755   -0.0000 </r>
       <r>   16.4058    0.0000 </r>
       <r>   29.0723    0.0000 </r>
       <r>   30.6271    0.0000 </r>
       <r>   32.4681    0.0000 </r>
       <r>   34.9977    0.0000 </r>
       <r>   34.9978    0.0000 </r>
       <r>   35.6909    0.0000 </r>
       <r>   35.6911    0.0000 </r>
       <r>   38.5360    0.0000 </r>
[...]
       <r>   21.5099    0.0000 </r>
       <r>   22.2877    0.0000 </r>
       <r>   27.5657    0.0000 </r>
       <r>   28.7284    0.0000 </r>
       <r>   32.9778    0.0000 </r>
       <r>   34.0576    0.0000 </r>
       <r>   36.0277    0.0000 </r>
       <r>   37.4778    0.0000 </r>
       <r>   41.9094    0.0000 </r>
       <r>   42.2179    0.0000 </r>
       <r>   51.0908    0.0000 </r>
       <r>   51.7186    0.0000 </r>
       <r>   53.0379    0.0000 </r>
       <r>   54.7334    0.0000 </r>
       <r>   55.8429    0.0000 </r>
       <r>   56.4107    0.0000 </r>
       <r>   58.8029    0.0000 </r>
       <r>   60.1948    0.0000 </r>
       <r>   61.7559    0.0000 </r>
       <r>   62.1405    0.0000 </r>
       <r>   63.4708    0.0000 </r>
       <r>   63.9005    0.0000 </r>
       <r>   64.8212    0.0000 </r>
       <r>   65.0998    0.0000 </r>
       <r>   65.7896    0.0000 </r>
       <r>   66.8199    0.0000 </r>
      </set>
      <set comment="kpoint 95">
       <r>    3.0687    1.0000 </r>
       <r>    3.1102    1.0000 </r>
       <r>    4.0725    1.0000 </r>
       <r>    4.3004    1.0000 </r>
       <r>    4.6543    1.0000 </r>
       <r>    4.8765    1.0000 </r>
       <r>    6.1064    1.0000 </r>
       <r>    6.3150    1.0000 </r>
       <r>    7.7915   -0.0000 </r>
       <r>    7.9654   -0.0000 </r>
       <r>   11.7835   -0.0000 </r>
       <r>   12.3323   -0.0000 </r>
       <r>   17.9202    0.0000 </r>
       <r>   18.3632    0.0000 </r>
       <r>   19.7720    0.0000 </r>
       <r>   20.1731    0.0000 </r>
       <r>   27.7182    0.0000 </r>
       <r>   29.4126    0.0000 </r>
       <r>   33.0525    0.0000 </r>
       <r>   34.5311    0.0000 </r>
       <r>   35.9366    0.0000 </r>
       <r>   37.0916    0.0000 </r>
       <r>   43.6902    0.0000 </r>
       <r>   44.0895    0.0000 </r>
       <r>   48.1295    0.0000 </r>
       <r>   48.2479    0.0000 </r>
       <r>   55.2489    0.0000 </r>
       <r>   55.9109    0.0000 </r>
       <r>   56.4143    0.0000 </r>
       <r>   57.7981    0.0000 </r>
       <r>   59.3176    0.0000 </r>
       <r>   59.4980    0.0000 </r>
       <r>   60.1585    0.0000 </r>
       <r>   60.6268    0.0000 </r>
       <r>   63.2787    0.0000 </r>
       <r>   63.6037    0.0000 </r>
       <r>   64.3076    0.0000 </r>
       <r>   64.5852    0.0000 </r>
       <r>   65.5824    0.0000 </r>
       <r>   66.6406    0.0000 </r>
      </set>
      <set comment="kpoint 96">
       <r>    3.2624    1.0000 </r>
       <r>    3.3928    1.0000 </r>
       <r>    3.9793    1.0000 </r>
       <r>    4.0530    1.0000 </r>
       <r>    4.7012    1.0000 </r>
       <r>    4.8103    1.0000 </r>
       <r>    6.1867    1.0000 </r>
       <r>    6.3467    1.0001 </r>
       <r>    7.7569   -0.0000 </r>
       <r>    7.8227   -0.0000 </r>
       <r>   13.5648    0.0000 </r>
       <r>   13.6860    0.0000 </r>
       <r>   16.3032    0.0000 </r>
       <r>   16.6632    0.0000 </r>
       <r>   19.1325    0.0000 </r>
       <r>   19.5890    0.0000 </r>
       <r>   29.3487    0.0000 </r>
       <r>   30.1510    0.0000 </r>
       <r>   32.2550    0.0000 </r>
       <r>   32.5909    0.0000 </r>
       <r>   35.7133    0.0000 </r>
       <r>   36.5746    0.0000 </r>
       <r>   44.8987    0.0000 </r>
       <r>   45.5718    0.0000 </r>
       <r>   49.4803    0.0000 </r>
       <r>   49.8879    0.0000 </r>
       <r>   52.3565    0.0000 </r>
       <r>   52.7312    0.0000 </r>
       <r>   57.1748    0.0000 </r>
       <r>   58.9066    0.0000 </r>
       <r>   59.7496    0.0000 </r>
       <r>   60.6751    0.0000 </r>
       <r>   61.3986    0.0000 </r>
       <r>   61.4176    0.0000 </r>
       <r>   61.6236    0.0000 </r>
       <r>   62.8875    0.0000 </r>
       <r>   64.6068    0.0000 </r>
       <r>   66.3870    0.0000 </r>
       <r>   67.1447    0.0000 </r>
       <r>   67.2246    0.0000 </r>
      </set>
     </set>
    </set>
   </array>
  </eigenvalues>
  <separator name="orbital magnetization" >
   <v name="MAGDIPOLOUT">      0.00000000      0.00000000      0.00000000</v>
  </separator>
  <dos>
   <i name="efermi">      6.95621683 </i>
   <total>
    <array>
     <dimension dim="1">gridpoints</dimension>
     <dimension dim="2">spin</dimension>
     <field>energy</field>
     <field>total</field>
     <field>integrated</field>
     <set>
      <set comment="spin 1">
       <r>    -5.5217     0.0000     0.0000 </r>
       <r>    -5.2610     0.0000     0.0000 </r>
       <r>    -5.0002     0.0000     0.0000 </r>
       <r>    -4.7394     0.0000     0.0000 </r>
       <r>    -4.4786     0.0000     0.0000 </r>
       <r>    -4.2178     0.0000     0.0000 </r>
       <r>    -3.9571     0.0000     0.0000 </r>
       <r>    -3.6963    -0.0000    -0.0000 </r>
       <r>    -3.4355    -0.0000    -0.0000 </r>
       <r>    -3.1747    -0.0000    -0.0000 </r>
       <r>    -2.9139    -0.0000    -0.0000 </r>
       <r>    -2.6532    -0.0000    -0.0000 </r>
       <r>    -2.3924    -0.0000    -0.0000 </r>
       <r>    -2.1316    -0.0004    -0.0001 </r>
       <r>    -1.8708     0.0083     0.0020 </r>
       <r>    -1.6100     0.0571     0.0169 </r>
       <r>    -1.3492     0.0947     0.0416 </r>
       <r>    -1.0885     0.0640     0.0583 </r>
       <r>    -0.8277     0.1558     0.0989 </r>
       <r>    -0.5669     0.1777     0.1453 </r>
       <r>    -0.3061     0.1756     0.1911 </r>
       <r>    -0.0453     0.0876     0.2139 </r>
       <r>     0.2154     0.2707     0.2845 </r>
       <r>     0.4762     0.2949     0.3614 </r>
       <r>     0.7370     0.2787     0.4341 </r>
       <r>     0.9978     0.2898     0.5096 </r>
       <r>     1.2586     0.2098     0.5644 </r>
       <r>     1.5194     0.5392     0.7050 </r>
       <r>     1.7801     0.6963     0.8865 </r>
       <r>     2.0409     0.9014     1.1216 </r>
       <r>     2.3017     1.6813     1.5601 </r>
       <r>     2.5625     2.1352     2.1169 </r>
       <r>     2.8233     2.6221     2.8007 </r>
       <r>     3.0840     2.5753     3.4723 </r>
       <r>     3.3448     2.6870     4.1730 </r>
       <r>     3.6056     2.3025     4.7734 </r>
       <r>     3.8664     3.1223     5.5877 </r>
       <r>     4.1272     3.2355     6.4314 </r>
       <r>     4.3879     2.9763     7.2076 </r>
       <r>     4.6487     2.0013     7.7295 </r>
       <r>     4.9095     2.8961     8.4848 </r>
       <r>     5.1703     4.0853     9.5501 </r>
       <r>     5.4311     4.0317    10.6015 </r>
       <r>     5.6919     4.2380    11.7067 </r>
       <r>     5.9526     4.4698    12.8724 </r>
       <r>     6.2134     3.5633    13.8016 </r>
       <r>     6.4742     2.8453    14.5436 </r>
       <r>     6.7350     2.9513    15.3132 </r>
       <r>     6.9958     3.0147    16.0994 </r>
       <r>     7.2565     2.1878    16.6699 </r>
       <r>     7.5173     4.0623    17.7293 </r>
       <r>     7.7781     5.3672    19.1290 </r>
       <r>     8.0389     5.4985    20.5629 </r>
       <r>     8.2997     2.4123    21.1920 </r>
       <r>     8.5604     0.2161    21.2484 </r>
       <r>     8.8212     0.2454    21.3123 </r>
       <r>     9.0820     1.2372    21.6350 </r>
       <r>     9.3428     0.7368    21.8271 </r>
       <r>     9.6036     0.2723    21.8981 </r>
       <r>     9.8644     0.6537    22.0686 </r>
       <r>    10.1251     0.5321    22.2074 </r>
       <r>    10.3859     0.2676    22.2771 </r>
       <r>    10.6467     0.3473    22.3677 </r>
       <r>    10.9075     0.9444    22.6140 </r>
       <r>    11.1683     0.5384    22.7544 </r>
       <r>    11.4290     0.3409    22.8433 </r>
       <r>    11.6898     0.2179    22.9001 </r>
       <r>    11.9506     0.4772    23.0246 </r>
       <r>    12.2114     0.4544    23.1431 </r>
       <r>    12.4722     0.5216    23.2791 </r>
       <r>    12.7330     0.2068    23.3330 </r>
       <r>    12.9937     0.3345    23.4202 </r>
       <r>    13.2545     0.2655    23.4895 </r>
       <r>    13.5153     0.4783    23.6142 </r>
       <r>    13.7761     0.6709    23.7892 </r>
       <r>    14.0369     0.2458    23.8533 </r>
       <r>    14.2976     0.0854    23.8755 </r>
       <r>    14.5584     0.0733    23.8947 </r>
       <r>    14.8192     0.1898    23.9442 </r>
       <r>    15.0800     0.1523    23.9839 </r>
       <r>    15.3408     0.1848    24.0321 </r>
       <r>    15.6015     0.2804    24.1052 </r>
       <r>    15.8623     0.2855    24.1797 </r>
       <r>    16.1231     0.3579    24.2730 </r>
       <r>    16.3839     0.2895    24.3485 </r>
       <r>    16.6447     0.8940    24.5816 </r>
       <r>    16.9055     1.0425    24.8535 </r>
       <r>    17.1662     0.6086    25.0122 </r>
       <r>    17.4270     0.7795    25.2154 </r>
       <r>    17.6878     0.3163    25.2979 </r>
       <r>    17.9486     0.6642    25.4712 </r>
       <r>    18.2094     0.6996    25.6536 </r>
       <r>    18.4701     0.8847    25.8843 </r>
       <r>    18.7309     0.7948    26.0916 </r>
       <r>    18.9917     0.5385    26.2320 </r>
       <r>    19.2525     0.6522    26.4021 </r>
       <r>    19.5133     0.8929    26.6349 </r>
       <r>    19.7741     0.7683    26.8353 </r>
       <r>    20.0348     0.5388    26.9758 </r>
       <r>    20.2956     0.8478    27.1969 </r>
       <r>    20.5564     0.5612    27.3432 </r>
       <r>    20.8172     0.6430    27.5109 </r>
       <r>    21.0780     0.6279    27.6747 </r>
       <r>    21.3387     0.3615    27.7689 </r>
       <r>    21.5995     0.5692    27.9174 </r>
       <r>    21.8603     0.5347    28.0568 </r>
       <r>    22.1211     0.6007    28.2135 </r>
       <r>    22.3819     0.8559    28.4367 </r>
       <r>    22.6426     0.4299    28.5488 </r>
       <r>    22.9034     0.6750    28.7248 </r>
       <r>    23.1642     1.0848    29.0077 </r>
       <r>    23.4250     0.6559    29.1787 </r>
       <r>    23.6858     0.8522    29.4010 </r>
       <r>    23.9466     1.0833    29.6835 </r>
       <r>    24.2073     0.5500    29.8269 </r>
       <r>    24.4681     0.7931    30.0337 </r>
       <r>    24.7289     0.9607    30.2842 </r>
       <r>    24.9897     1.1706    30.5895 </r>
       <r>    25.2505     0.5870    30.7426 </r>
       <r>    25.5112     0.7773    30.9453 </r>
       <r>    25.7720     0.9436    31.1914 </r>
       <r>    26.0328     1.2755    31.5240 </r>
       <r>    26.2936     0.9319    31.7670 </r>
       <r>    26.5544     0.6566    31.9382 </r>
       <r>    26.8152     0.7007    32.1210 </r>
       <r>    27.0759     0.8129    32.3330 </r>
       <r>    27.3367     1.1777    32.6401 </r>
       <r>    27.5975     0.6895    32.8199 </r>
       <r>    27.8583     1.1556    33.1213 </r>
       <r>    28.1191     0.8774    33.3501 </r>
       <r>    28.3798     0.6529    33.5203 </r>
       <r>    28.6406     0.9212    33.7606 </r>
       <r>    28.9014     0.9925    34.0194 </r>
       <r>    29.1622     0.6791    34.1965 </r>
       <r>    29.4230     0.5485    34.3395 </r>
       <r>    29.6837     0.7139    34.5257 </r>
       <r>    29.9445     0.8779    34.7546 </r>
       <r>    30.2053     0.8906    34.9869 </r>
       <r>    30.4661     0.6896    35.1667 </r>
       <r>    30.7269     0.5211    35.3026 </r>
       <r>    30.9877     1.0443    35.5750 </r>
       <r>    31.2484     0.6851    35.7536 </r>
       <r>    31.5092     0.5748    35.9035 </r>
       <r>    31.7700     0.7320    36.0944 </r>
       <r>    32.0308     0.5849    36.2469 </r>
       <r>    32.2916     0.8564    36.4703 </r>
       <r>    32.5523     1.1631    36.7736 </r>
       <r>    32.8131     0.6055    36.9315 </r>
       <r>    33.0739     0.7972    37.1394 </r>
       <r>    33.3347     0.9878    37.3970 </r>
       <r>    33.5955     0.8940    37.6301 </r>
       <r>    33.8563     0.7800    37.8335 </r>
       <r>    34.1170     1.0236    38.1005 </r>
       <r>    34.3778     0.6611    38.2729 </r>
       <r>    34.6386     1.0233    38.5397 </r>
       <r>    34.8994     1.1420    38.8375 </r>
       <r>    35.1602     0.5098    38.9705 </r>
       <r>    35.4209     0.7482    39.1656 </r>
       <r>    35.6817     1.0933    39.4507 </r>
       <r>    35.9425     1.2221    39.7694 </r>
       <r>    36.2033     0.8795    39.9988 </r>
       <r>    36.4641     0.7979    40.2069 </r>
       <r>    36.7248     0.7427    40.4005 </r>
       <r>    36.9856     0.5317    40.5392 </r>
       <r>    37.2464     0.8535    40.7618 </r>
       <r>    37.5072     0.9200    41.0017 </r>
       <r>    37.7680     0.6815    41.1794 </r>
       <r>    38.0288     0.8566    41.4028 </r>
       <r>    38.2895     0.7586    41.6006 </r>
       <r>    38.5503     1.2701    41.9318 </r>
       <r>    38.8111     0.8398    42.1508 </r>
       <r>    39.0719     1.0674    42.4292 </r>
       <r>    39.3327     0.9779    42.6842 </r>
       <r>    39.5934     0.5972    42.8400 </r>
       <r>    39.8542     1.0009    43.1010 </r>
       <r>    40.1150     1.1119    43.3909 </r>
       <r>    40.3758     0.7097    43.5760 </r>
       <r>    40.6366     0.6699    43.7507 </r>
       <r>    40.8973     0.7126    43.9366 </r>
       <r>    41.1581     0.8623    44.1614 </r>
       <r>    41.4189     0.7671    44.3615 </r>
       <r>    41.6797     0.9408    44.6068 </r>
       <r>    41.9405     1.0051    44.8689 </r>
       <r>    42.2013     1.1848    45.1779 </r>
       <r>    42.4620     1.3930    45.5412 </r>
       <r>    42.7228     0.8261    45.7566 </r>
       <r>    42.9836     1.1492    46.0563 </r>
       <r>    43.2444     0.9340    46.2999 </r>
       <r>    43.5052     0.9211    46.5401 </r>
       <r>    43.7659     1.0774    46.8210 </r>
       <r>    44.0267     1.3958    47.1850 </r>
       <r>    44.2875     0.9778    47.4400 </r>
       <r>    44.5483     0.9132    47.6782 </r>
       <r>    44.8091     1.2963    48.0162 </r>
       <r>    45.0699     1.2217    48.3348 </r>
       <r>    45.3306     0.8008    48.5436 </r>
       <r>    45.5914     0.7852    48.7484 </r>
       <r>    45.8522     0.7860    48.9534 </r>
       <r>    46.1130     0.6758    49.1296 </r>
       <r>    46.3738     0.6742    49.3055 </r>
       <r>    46.6345     1.0795    49.5870 </r>
       <r>    46.8953     0.8288    49.8031 </r>
       <r>    47.1561     0.4994    49.9333 </r>
       <r>    47.4169     1.0160    50.1983 </r>
       <r>    47.6777     1.0087    50.4613 </r>
       <r>    47.9384     1.4539    50.8405 </r>
       <r>    48.1992     0.8738    51.0683 </r>
       <r>    48.4600     0.8831    51.2986 </r>
       <r>    48.7208     1.6790    51.7365 </r>
       <r>    48.9816     1.3052    52.0769 </r>
       <r>    49.2424     0.9840    52.3335 </r>
       <r>    49.5031     0.7163    52.5203 </r>
       <r>    49.7639     0.6636    52.6933 </r>
       <r>    50.0247     1.1054    52.9816 </r>
       <r>    50.2855     1.3003    53.3207 </r>
       <r>    50.5463     1.1612    53.6235 </r>
       <r>    50.8070     1.0048    53.8856 </r>
       <r>    51.0678     1.0418    54.1572 </r>
       <r>    51.3286     1.1150    54.4480 </r>
       <r>    51.5894     1.1219    54.7406 </r>
       <r>    51.8502     1.4145    55.1095 </r>
       <r>    52.1110     0.9349    55.3533 </r>
       <r>    52.3717     1.7615    55.8126 </r>
       <r>    52.6325     0.8320    56.0296 </r>
       <r>    52.8933     1.1598    56.3321 </r>
       <r>    53.1541     1.3272    56.6782 </r>
       <r>    53.4149     0.9843    56.9349 </r>
       <r>    53.6756     1.0683    57.2135 </r>
       <r>    53.9364     0.7373    57.4057 </r>
       <r>    54.1972     0.9593    57.6559 </r>
       <r>    54.4580     1.4389    58.0311 </r>
       <r>    54.7188     1.5505    58.4355 </r>
       <r>    54.9795     1.5381    58.8366 </r>
       <r>    55.2403     0.9734    59.0904 </r>
       <r>    55.5011     0.9090    59.3275 </r>
       <r>    55.7619     1.6158    59.7489 </r>
       <r>    56.0227     1.3851    60.1101 </r>
       <r>    56.2835     1.2761    60.4428 </r>
       <r>    56.5442     1.7750    60.9057 </r>
       <r>    56.8050     1.6953    61.3478 </r>
       <r>    57.0658     1.6229    61.7711 </r>
       <r>    57.3266     1.1564    62.0726 </r>
       <r>    57.5874     1.5290    62.4714 </r>
       <r>    57.8481     1.2396    62.7946 </r>
       <r>    58.1089     1.2703    63.1259 </r>
       <r>    58.3697     1.8568    63.6101 </r>
       <r>    58.6305     1.5458    64.0132 </r>
       <r>    58.8913     2.1590    64.5763 </r>
       <r>    59.1521     1.8430    65.0569 </r>
       <r>    59.4128     1.7248    65.5067 </r>
       <r>    59.6736     1.8712    65.9946 </r>
       <r>    59.9344     1.8633    66.4806 </r>
       <r>    60.1952     1.6923    66.9219 </r>
       <r>    60.4560     1.5672    67.3306 </r>
       <r>    60.7167     1.0299    67.5992 </r>
       <r>    60.9775     1.4968    67.9895 </r>
       <r>    61.2383     1.4422    68.3656 </r>
       <r>    61.4991     1.5427    68.7679 </r>
       <r>    61.7599     1.4364    69.1425 </r>
       <r>    62.0206     1.9672    69.6555 </r>
       <r>    62.2814     1.7846    70.1209 </r>
       <r>    62.5422     1.4354    70.4952 </r>
       <r>    62.8030     1.7875    70.9614 </r>
       <r>    63.0638     1.7586    71.4200 </r>
       <r>    63.3246     1.5350    71.8203 </r>
       <r>    63.5853     1.5374    72.2212 </r>
       <r>    63.8461     1.6790    72.6591 </r>
       <r>    64.1069     1.4462    73.0362 </r>
       <r>    64.3677     1.6818    73.4748 </r>
       <r>    64.6285     2.0637    74.0130 </r>
       <r>    64.8892     2.0913    74.5583 </r>
       <r>    65.1500     1.8454    75.0396 </r>
       <r>    65.4108     1.9999    75.5611 </r>
       <r>    65.6716     1.7920    76.0284 </r>
       <r>    65.9324     1.9904    76.5475 </r>
       <r>    66.1931     1.9309    77.0510 </r>
       <r>    66.4539     1.3867    77.4127 </r>
       <r>    66.7147     1.7082    77.8581 </r>
       <r>    66.9755     1.9921    78.3777 </r>
       <r>    67.2363     1.7042    78.8221 </r>
       <r>    67.4971     1.2425    79.1461 </r>
       <r>    67.7578     0.9957    79.4058 </r>
       <r>    68.0186     1.0769    79.6866 </r>
       <r>    68.2794     0.9216    79.9269 </r>
       <r>    68.5402     0.1600    79.9687 </r>
       <r>    68.8010     0.0507    79.9819 </r>
       <r>    69.0617     0.0106    79.9847 </r>
       <r>    69.3225     0.0586    80.0000 </r>
       <r>    69.5833     0.0005    80.0001 </r>
       <r>    69.8441    -0.0004    80.0000 </r>
       <r>    70.1049    -0.0000    80.0000 </r>
       <r>    70.3657    -0.0000    80.0000 </r>
       <r>    70.6264    -0.0000    80.0000 </r>
       <r>    70.8872     0.0000    80.0000 </r>
       <r>    71.1480     0.0000    80.0000 </r>
       <r>    71.4088     0.0000    80.0000 </r>
       <r>    71.6696     0.0000    80.0000 </r>
       <r>    71.9303     0.0000    80.0000 </r>
       <r>    72.1911     0.0000    80.0000 </r>
       <r>    72.4519     0.0000    80.0000 </r>
       <r>    72.7127     0.0000    80.0000 </r>
      </set>
     </set>
    </array>
   </total>
  </dos>
 </calculation>
 <structure name="finalpos" >
  <crystal>
   <varray name="basis" >
    <v>       2.39990000       0.00000000       0.00000000 </v>
    <v>      -1.19995000       2.07837437       0.00000000 </v>
    <v>       0.00000000       0.00000000       4.05408000 </v>
   </varray>
   <i name="volume">     20.22130769 </i>
   <varray name="rec_basis" >
    <v>       0.41668403       0.24057264       0.00000000 </v>
    <v>       0.00000000       0.48114527       0.00000000 </v>
    <v>       0.00000000       0.00000000       0.24666509 </v>
   </varray>
  </crystal>
  <varray name="positions" >
   <v>       0.00000000       0.00000000       0.00000000 </v>
   <v>       0.33333333       0.66666667       0.50000000 </v>
  </varray>
 </structure>
</modeling>
