   4   4   0   0
  0.8177660E+01  0.3198132E-09  0.3198132E-09  0.3198132E-09  0.5000000E-15
  1.000000000000000E-004
  CAR 
 unknown system                          
     46.65727575     -2.73055583  301      9.62817553      1.00000000
     -2.731  0.0000E+00  0.0000E+00
     -2.566  0.0000E+00  0.0000E+00
     -2.401  0.0000E+00  0.0000E+00
     -2.237 -0.1157E-34 -0.1905E-35
     -2.072 -0.9681E-29 -0.1594E-29
     -1.907 -0.2066E-23 -0.3402E-24
     -1.743 -0.1123E-18 -0.1848E-19
     -1.578 -0.1496E-14 -0.2463E-15
     -1.414 -0.5144E-11 -0.8471E-12
     -1.249 -0.4415E-08 -0.7276E-09
     -1.084 -0.9391E-06 -0.1553E-06
     -0.920 -0.4956E-04 -0.8314E-05
     -0.755 -0.6509E-03 -0.1155E-03
     -0.590 -0.1273E-02 -0.3251E-03
     -0.426  0.1389E-01  0.1962E-02
     -0.261  0.6770E-01  0.1311E-01
     -0.097  0.1030E+00  0.3007E-01
      0.068  0.9051E-01  0.4497E-01
      0.233  0.1818E+00  0.7490E-01
      0.397  0.2198E+00  0.1111E+00
      0.562  0.1028E+00  0.1280E+00
      0.727  0.2001E+00  0.1610E+00
      0.891  0.3101E+00  0.2120E+00
      1.056  0.2489E+00  0.2530E+00
      1.220  0.2374E+00  0.2921E+00
      1.385  0.3636E+00  0.3519E+00
      1.550  0.2188E+00  0.3879E+00
      1.714  0.3407E+00  0.4440E+00
      1.879  0.4426E+00  0.5169E+00
      2.044  0.4614E+00  0.5929E+00
      2.208  0.4996E+00  0.6751E+00
      2.373  0.2447E+00  0.7154E+00
      2.537  0.5027E+00  0.7982E+00
      2.702  0.8232E+00  0.9337E+00
      2.867  0.6840E+00  0.1046E+01
      3.031  0.7999E+00  0.1178E+01
      3.196  0.1355E+01  0.1401E+01
      3.361  0.2581E+01  0.1826E+01
      3.525  0.3232E+01  0.2358E+01
      3.690  0.3121E+01  0.2872E+01
      3.854  0.3832E+01  0.3503E+01
      4.019  0.4207E+01  0.4195E+01
      4.184  0.4488E+01  0.4934E+01
      4.348  0.5186E+01  0.5788E+01
      4.513  0.5018E+01  0.6614E+01
      4.678  0.5358E+01  0.7496E+01
      4.842  0.4873E+01  0.8298E+01
      5.007  0.3887E+01  0.8938E+01
      5.171  0.4361E+01  0.9656E+01
      5.336  0.4526E+01  0.1040E+02
      5.501  0.4096E+01  0.1108E+02
      5.665  0.4127E+01  0.1175E+02
      5.830  0.3867E+01  0.1239E+02
      5.995  0.3717E+01  0.1300E+02
      6.159  0.3213E+01  0.1353E+02
      6.324  0.3523E+01  0.1411E+02
      6.489  0.4618E+01  0.1487E+02
      6.653  0.5507E+01  0.1578E+02
      6.818  0.4762E+01  0.1656E+02
      6.982  0.3874E+01  0.1720E+02
      7.147  0.5827E+01  0.1816E+02
      7.312  0.6547E+01  0.1924E+02
      7.476  0.6613E+01  0.2033E+02
      7.641  0.6986E+01  0.2148E+02
      7.806  0.7107E+01  0.2265E+02
      7.970  0.6921E+01  0.2379E+02
      8.135  0.5108E+01  0.2463E+02
      8.299  0.4551E+01  0.2538E+02
      8.464  0.4750E+01  0.2616E+02
      8.629  0.3695E+01  0.2677E+02
      8.793  0.4258E+01  0.2747E+02
      8.958  0.5046E+01  0.2830E+02
      9.123  0.5246E+01  0.2916E+02
      9.287  0.5393E+01  0.3005E+02
      9.452  0.6174E+01  0.3107E+02
      9.616  0.5351E+01  0.3195E+02
      9.781  0.4200E+01  0.3264E+02
      9.946  0.4667E+01  0.3341E+02
     10.110  0.4991E+01  0.3423E+02
     10.275  0.4405E+01  0.3495E+02
     10.440  0.4464E+01  0.3569E+02
     10.604  0.5933E+01  0.3666E+02
     10.769  0.5922E+01  0.3764E+02
     10.933  0.8469E+01  0.3903E+02
     11.098  0.9481E+01  0.4059E+02
     11.263  0.5528E+01  0.4150E+02
     11.427  0.2736E+01  0.4196E+02
     11.592  0.1305E+01  0.4217E+02
     11.757  0.1585E+01  0.4243E+02
     11.921  0.1269E+01  0.4264E+02
     12.086  0.8339E+00  0.4278E+02
     12.250  0.6952E+00  0.4289E+02
     12.415  0.4580E+00  0.4297E+02
     12.580  0.8205E+00  0.4310E+02
     12.744  0.1586E+01  0.4336E+02
     12.909  0.1160E+01  0.4355E+02
     13.074  0.4022E+00  0.4362E+02
     13.238  0.5171E+00  0.4371E+02
     13.403  0.1162E+01  0.4390E+02
     13.567  0.1439E+01  0.4413E+02
     13.732  0.8338E+00  0.4427E+02
     13.897  0.5753E+00  0.4437E+02
     14.061  0.8819E+00  0.4451E+02
     14.226  0.6582E+00  0.4462E+02
     14.391  0.1024E+01  0.4479E+02
     14.555  0.1187E+01  0.4498E+02
     14.720  0.6922E+00  0.4510E+02
     14.884  0.4055E+00  0.4516E+02
     15.049  0.1064E+01  0.4534E+02
     15.214  0.1110E+01  0.4552E+02
     15.378  0.8605E+00  0.4566E+02
     15.543  0.6287E+00  0.4577E+02
     15.708  0.7208E+00  0.4589E+02
     15.872  0.7794E+00  0.4601E+02
     16.037  0.8146E+00  0.4615E+02
     16.201  0.5934E+00  0.4625E+02
     16.366  0.2989E+00  0.4630E+02
     16.531  0.7461E+00  0.4642E+02
     16.695  0.1018E+01  0.4659E+02
     16.860  0.9333E+00  0.4674E+02
     17.025  0.6406E+00  0.4684E+02
     17.189  0.4790E+00  0.4692E+02
     17.354  0.3776E+00  0.4699E+02
     17.518  0.5329E+00  0.4707E+02
     17.683  0.6655E+00  0.4718E+02
     17.848  0.4342E+00  0.4725E+02
     18.012  0.2937E+00  0.4730E+02
     18.177  0.5320E+00  0.4739E+02
     18.342  0.5218E+00  0.4748E+02
     18.506  0.5670E+00  0.4757E+02
     18.671  0.6135E+00  0.4767E+02
     18.835  0.2305E+00  0.4771E+02
     19.000  0.1951E+00  0.4774E+02
     19.165  0.1742E+00  0.4777E+02
     19.329  0.1272E+00  0.4779E+02
     19.494  0.4144E+00  0.4786E+02
     19.659  0.3173E+00  0.4791E+02
     19.823  0.1310E+00  0.4793E+02
     19.988  0.1694E+00  0.4796E+02
     20.152  0.1076E+00  0.4798E+02
     20.317  0.2855E-01  0.4798E+02
     20.482  0.2979E+00  0.4803E+02
     20.646  0.2057E+01  0.4837E+02
     20.811  0.2283E+01  0.4875E+02
     20.976  0.1422E+01  0.4898E+02
     21.140  0.1178E+01  0.4917E+02
     21.305  0.1229E+01  0.4938E+02
     21.469  0.1345E+01  0.4960E+02
     21.634  0.8607E+00  0.4974E+02
     21.799  0.5886E+00  0.4984E+02
     21.963  0.1187E+01  0.5003E+02
     22.128  0.1195E+01  0.5023E+02
     22.293  0.9351E+00  0.5038E+02
     22.457  0.9402E+00  0.5054E+02
     22.622  0.6907E+00  0.5065E+02
     22.786  0.8511E+00  0.5079E+02
     22.951  0.8470E+00  0.5093E+02
     23.116  0.8443E+00  0.5107E+02
     23.280  0.9721E+00  0.5123E+02
     23.445  0.5505E+00  0.5132E+02
     23.610  0.8553E+00  0.5146E+02
     23.774  0.1046E+01  0.5163E+02
     23.939  0.9849E+00  0.5180E+02
     24.103  0.1025E+01  0.5196E+02
     24.268  0.7917E+00  0.5209E+02
     24.433  0.1096E+01  0.5227E+02
     24.597  0.1376E+01  0.5250E+02
     24.762  0.1293E+01  0.5271E+02
     24.927  0.1169E+01  0.5291E+02
     25.091  0.1026E+01  0.5308E+02
     25.256  0.9527E+00  0.5323E+02
     25.421  0.1619E+01  0.5350E+02
     25.585  0.1951E+01  0.5382E+02
     25.750  0.1580E+01  0.5408E+02
     25.914  0.9964E+00  0.5424E+02
     26.079  0.1600E+01  0.5451E+02
     26.244  0.1767E+01  0.5480E+02
     26.408  0.8887E+00  0.5495E+02
     26.573  0.1137E+01  0.5513E+02
     26.738  0.1490E+01  0.5538E+02
     26.902  0.1042E+01  0.5555E+02
     27.067  0.1069E+01  0.5573E+02
     27.231  0.2054E+01  0.5606E+02
     27.396  0.2182E+01  0.5642E+02
     27.561  0.1160E+01  0.5661E+02
     27.725  0.1136E+01  0.5680E+02
     27.890  0.1476E+01  0.5704E+02
     28.055  0.1991E+01  0.5737E+02
     28.219  0.1671E+01  0.5765E+02
     28.384  0.1137E+01  0.5783E+02
     28.548  0.1422E+01  0.5807E+02
     28.713  0.1488E+01  0.5831E+02
     28.878  0.1570E+01  0.5857E+02
     29.042  0.2017E+01  0.5890E+02
     29.207  0.2041E+01  0.5924E+02
     29.372  0.2202E+01  0.5960E+02
     29.536  0.1808E+01  0.5990E+02
     29.701  0.9383E+00  0.6005E+02
     29.865  0.9654E+00  0.6021E+02
     30.030  0.2030E+01  0.6055E+02
     30.195  0.1783E+01  0.6084E+02
     30.359  0.1454E+01  0.6108E+02
     30.524  0.1322E+01  0.6130E+02
     30.689  0.1337E+01  0.6152E+02
     30.853  0.2132E+01  0.6187E+02
     31.018  0.1989E+01  0.6220E+02
     31.182  0.1984E+01  0.6252E+02
     31.347  0.1704E+01  0.6280E+02
     31.512  0.9875E+00  0.6297E+02
     31.676  0.1220E+01  0.6317E+02
     31.841  0.1502E+01  0.6341E+02
     32.006  0.1158E+01  0.6360E+02
     32.170  0.1412E+01  0.6384E+02
     32.335  0.1918E+01  0.6415E+02
     32.499  0.1892E+01  0.6446E+02
     32.664  0.1799E+01  0.6476E+02
     32.829  0.1735E+01  0.6505E+02
     32.993  0.1377E+01  0.6527E+02
     33.158  0.1631E+01  0.6554E+02
     33.323  0.1611E+01  0.6581E+02
     33.487  0.1404E+01  0.6604E+02
     33.652  0.1784E+01  0.6633E+02
     33.816  0.1410E+01  0.6656E+02
     33.981  0.1272E+01  0.6677E+02
     34.146  0.1129E+01  0.6696E+02
     34.310  0.9500E+00  0.6711E+02
     34.475  0.1193E+01  0.6731E+02
     34.640  0.1441E+01  0.6755E+02
     34.804  0.1399E+01  0.6778E+02
     34.969  0.8570E+00  0.6792E+02
     35.133  0.1146E+01  0.6811E+02
     35.298  0.1576E+01  0.6837E+02
     35.463  0.1187E+01  0.6856E+02
     35.627  0.6761E+00  0.6867E+02
     35.792  0.1316E+01  0.6889E+02
     35.957  0.1363E+01  0.6912E+02
     36.121  0.1079E+01  0.6929E+02
     36.286  0.1046E+01  0.6947E+02
     36.450  0.7846E+00  0.6959E+02
     36.615  0.9899E+00  0.6976E+02
     36.780  0.1488E+01  0.7000E+02
     36.944  0.1990E+01  0.7033E+02
     37.109  0.2096E+01  0.7068E+02
     37.274  0.1514E+01  0.7092E+02
     37.438  0.1617E+01  0.7119E+02
     37.603  0.1972E+01  0.7152E+02
     37.767  0.1642E+01  0.7179E+02
     37.932  0.1664E+01  0.7206E+02
     38.097  0.1491E+01  0.7230E+02
     38.261  0.1611E+01  0.7257E+02
     38.426  0.1717E+01  0.7285E+02
     38.591  0.1918E+01  0.7317E+02
     38.755  0.2604E+01  0.7360E+02
     38.920  0.1503E+01  0.7384E+02
     39.084  0.5360E+00  0.7393E+02
     39.249  0.1221E+01  0.7413E+02
     39.414  0.2267E+01  0.7451E+02
     39.578  0.1967E+01  0.7483E+02
     39.743  0.1634E+01  0.7510E+02
     39.908  0.1841E+01  0.7540E+02
     40.072  0.2081E+01  0.7575E+02
     40.237  0.2505E+01  0.7616E+02
     40.401  0.1708E+01  0.7644E+02
     40.566  0.1508E+01  0.7669E+02
     40.731  0.1325E+01  0.7691E+02
     40.895  0.1377E+01  0.7713E+02
     41.060  0.1544E+01  0.7739E+02
     41.225  0.1732E+01  0.7767E+02
     41.389  0.1224E+01  0.7787E+02
     41.554  0.1163E+01  0.7806E+02
     41.718  0.1339E+01  0.7828E+02
     41.883  0.1657E+01  0.7856E+02
     42.048  0.1280E+01  0.7877E+02
     42.212  0.7973E+00  0.7890E+02
     42.377  0.9790E+00  0.7906E+02
     42.542  0.5832E+00  0.7916E+02
     42.706  0.2845E+00  0.7920E+02
     42.871  0.4001E+00  0.7927E+02
     43.036  0.9915E+00  0.7943E+02
     43.200  0.1206E+01  0.7963E+02
     43.365  0.1006E+01  0.7980E+02
     43.529  0.4663E+00  0.7987E+02
     43.694  0.4667E-01  0.7988E+02
     43.859  0.1092E+00  0.7990E+02
     44.023  0.9858E-01  0.7992E+02
     44.188  0.1767E+00  0.7994E+02
     44.353  0.1802E+00  0.7997E+02
     44.517  0.1348E+00  0.8000E+02
     44.682  0.2876E-01  0.8000E+02
     44.846 -0.6589E-02  0.8000E+02
     45.011 -0.9543E-03  0.8000E+02
     45.176 -0.2115E-04  0.8000E+02
     45.340 -0.1040E-06  0.8000E+02
     45.505 -0.1228E-09  0.8000E+02
     45.670 -0.3585E-13  0.8000E+02
     45.834  0.0000E+00  0.8000E+02
     45.999  0.0000E+00  0.8000E+02
     46.163  0.0000E+00  0.8000E+02
     46.328  0.0000E+00  0.8000E+02
     46.493  0.0000E+00  0.8000E+02
     46.657  0.0000E+00  0.8000E+02
