    4    4    1    1
  0.8177660E+01  0.3198132E-09  0.3198132E-09  0.3198132E-09  0.5000000E-15
  1.000000000000000E-004
  CAR 
 unknown system                          
     32     56     40
 
  0.0000000E+00  0.0000000E+00  0.0000000E+00  0.7513148E-03
    1       -0.485654   1.000000
    2        2.904968   1.000000
    3        2.904968   1.000000
    4        2.904968   1.000000
    5        3.848867   1.000000
    6        3.848867   1.000000
    7        3.848867   1.000000
    8        7.376799   1.000000
    9        7.376799   1.000000
   10        7.376799   1.000000
   11        9.553404   0.793206
   12        9.553404   0.793206
   13       11.003391  -0.000000
   14       11.003391  -0.000000
   15       11.003391  -0.000000
   16       11.424204  -0.000000
   17       11.424204  -0.000000
   18       11.424204  -0.000000
   19       11.424204  -0.000000
   20       11.424204  -0.000000
   21       11.424204  -0.000000
   22       13.724894  -0.000000
   23       13.724894  -0.000000
   24       13.724894  -0.000000
   25       24.179007   0.000000
   26       24.179007   0.000000
   27       24.179007   0.000000
   28       28.612140   0.000000
   29       28.612140   0.000000
   30       28.612140   0.000000
   31       28.612140   0.000000
   32       28.612140   0.000000
   33       28.612140   0.000000
   34       34.832651   0.000000
   35       35.141272   0.000000
   36       35.141272   0.000000
   37       35.141272   0.000000
   38       41.875865   0.000000
   39       41.877326   0.000000
   40       41.879217   0.000000
 
  0.9090909E-01  0.0000000E+00  0.0000000E+00  0.4507889E-02
    1       -0.343039   1.000000
    2        2.965173   1.000000
    3        3.001110   1.000000
    4        3.001110   1.000000
    5        3.909423   1.000000
    6        3.927646   1.000000
    7        3.927646   1.000000
    8        7.291047   1.000000
    9        7.436791   1.000000
   10        7.436791   1.000000
   11        9.472565   0.984218
   12        9.581168   0.692945
   13       10.786204  -0.000000
   14       10.786204  -0.000000
   15       10.897794  -0.000000
   16       10.897794  -0.000000
   17       10.972328  -0.000000
   18       11.305157  -0.000000
   19       11.305157  -0.000000
   20       11.424472  -0.000000
   21       11.424472  -0.000000
   22       13.201626  -0.000000
   23       14.441271  -0.000000
   24       14.441271  -0.000000
   25       24.143100   0.000000
   26       24.143100   0.000000
   27       24.806380   0.000000
   28       28.095282   0.000000
   29       28.095282   0.000000
   30       28.385924   0.000000
   31       28.385924   0.000000
   32       28.856719   0.000000
   33       28.856719   0.000000
   34       34.833627   0.000000
   35       35.135568   0.000000
   36       35.720200   0.000000
   37       35.720200   0.000000
   38       41.087275   0.000000
   39       41.592877   0.000000
   40       41.592900   0.000000
 
  0.1818182E+00  0.0000000E+00  0.0000000E+00  0.4507889E-02
    1        0.074597   1.000000
    2        3.124574   1.000000
    3        3.274245   1.000000
    4        3.274245   1.000000
    5        4.088189   1.000000
    6        4.162943   1.000000
    7        4.162943   1.000000
    8        7.045116   1.000000
    9        7.615145   1.000000
   10        7.615145   1.000000
   11        9.242083   1.009943
   12        9.662747   0.356110
   13        9.678024   0.296162
   14        9.678024   0.296162
   15       10.596968  -0.000000
   16       10.596968  -0.000000
   17       10.882003  -0.000000
   18       10.972682  -0.000000
   19       10.972682  -0.000000
   20       11.425091  -0.000000
   21       11.425091  -0.000000
   22       11.953245  -0.000000
   23       15.784421   0.000000
   24       15.784421   0.000000
   25       24.045121   0.000000
   26       24.045121   0.000000
   27       26.367332   0.000000
   28       26.880484   0.000000
   29       26.880484   0.000000
   30       27.857488   0.000000
   31       27.857488   0.000000
   32       29.562699   0.000000
   33       29.562699   0.000000
   34       34.838100   0.000000
   35       35.118941   0.000000
   36       37.194167   0.000000
   37       37.194167   0.000000
   38       39.316535   0.000000
   39       40.448794   0.000000
   40       40.448794   0.000000
 
  0.2727273E+00  0.0000000E+00  0.0000000E+00  0.4507889E-02
    1        0.733826   1.000000
    2        3.310265   1.000000
    3        3.674075   1.000000
    4        3.674075   1.000000
    5        4.376309   1.000000
    6        4.551756   1.000000
    7        4.551756   1.000000
    8        6.670083   1.000000
    9        7.907109   1.000000
   10        7.907109   1.000000
   11        8.559132   1.000000
   12        8.559132   1.000000
   13        8.905057   1.000002
   14        9.792058   0.005152
   15       10.155746  -0.000612
   16       10.155746  -0.000612
   17       10.487931  -0.000000
   18       10.487931  -0.000000
   19       10.501556  -0.000000
   20       10.740993  -0.000000
   21       11.426198  -0.000000
   22       11.426198  -0.000000
   23       17.293246   0.000000
   24       17.293246   0.000000
   25       23.907839   0.000000
   26       23.907839   0.000000
   27       25.384397   0.000000
   28       25.384397   0.000000
   29       27.296853   0.000000
   30       27.296853   0.000000
   31       28.350662   0.000000
   32       30.659604   0.000000
   33       30.659604   0.000000
   34       34.853929   0.000000
   35       35.092785   0.000000
   36       37.518856   0.000000
   37       38.936143   0.000000
   38       38.936143   0.000000
   39       39.187387   0.000000
   40       39.187387   0.000000
 
  0.3636364E+00  0.0000000E+00  0.0000000E+00  0.4507889E-02
    1        1.564522   1.000000
    2        3.372408   1.000000
    3        4.101286   1.000000
    4        4.101286   1.000000
    5        4.758539   1.000000
    6        5.089226   1.000000
    7        5.089226   1.000000
    8        6.209028   1.000000
    9        7.517231   1.000000
   10        7.517231   1.000000
   11        8.303189   1.000000
   12        8.303189   1.000000
   13        8.546759   1.000000
   14        9.243527   1.010163
   15        9.684914   0.270297
   16        9.684914   0.270297
   17        9.922554  -0.028885
   18        9.922554  -0.028885
   19        9.960024  -0.020355
   20       10.562166  -0.000000
   21       11.426478  -0.000000
   22       11.426478  -0.000000
   23       18.875764   0.000000
   24       18.875764   0.000000
   25       23.768263   0.000000
   26       23.768263   0.000000
   27       23.779618   0.000000
   28       23.779618   0.000000
   29       26.880956   0.000000
   30       26.880956   0.000000
   31       30.426483   0.000000
   32       32.060614   0.000000
   33       32.060614   0.000000
   34       34.873925   0.000000
   35       35.059623   0.000000
   36       35.813588   0.000000
   37       37.204949   0.000000
   38       37.204949   0.000000
   39       41.478522   0.000000
   40       41.478522   0.000000
 
  0.4545455E+00  0.0000000E+00  0.0000000E+00  0.4507889E-02
    1        2.430386   1.000000
    2        3.100528   1.000000
    3        4.395628   1.000000
    4        4.395628   1.000000
    5        5.212584   1.000000
    6        5.708612   1.000000
    7        5.768743   1.000000
    8        5.768743   1.000000
    9        6.581792   1.000000
   10        6.581792   1.000000
   11        8.324213   1.000000
   12        8.486847   1.000000
   13        8.788678   1.000000
   14        8.788678   1.000000
   15        9.339776   1.030141
   16        9.339776   1.030141
   17        9.362403   1.034014
   18        9.362403   1.034014
   19       10.154481  -0.000631
   20       10.360460  -0.000001
   21       11.426940  -0.000000
   22       11.426940  -0.000000
   23       20.500602   0.000000
   24       20.500602   0.000000
   25       22.144054   0.000000
   26       22.144054   0.000000
   27       23.681067   0.000000
   28       23.681067   0.000000
   29       26.672308   0.000000
   30       26.672308   0.000000
   31       32.357234   0.000000
   32       33.668810   0.000000
   33       33.668810   0.000000
   34       34.131889   0.000000
   35       34.902767   0.000000
   36       34.933433   0.000000
   37       35.417854   0.000000
   38       35.417854   0.000000
   39       44.094457   0.000000
   40       44.094458   0.000000
 
  0.9090909E-01  0.9090909E-01  0.0000000E+00  0.9015778E-02
    1       -0.202341   1.000000
    2        3.062318   1.000000
    3        3.062318   1.000000
    4        3.093791   1.000000
    5        3.986716   1.000000
    6        3.986716   1.000000
    7        4.005153   1.000000
    8        7.241981   1.000000
    9        7.463043   1.000000
   10        7.489377   1.000000
   11        9.448498   1.011116
   12        9.560253   0.769855
   13       10.398428  -0.000000
   14       10.583942  -0.000000
   15       10.583942  -0.000000
   16       10.798753  -0.000000
   17       10.918107  -0.000000
   18       10.918107  -0.000000
   19       11.305143  -0.000000
   20       11.305143  -0.000000
   21       11.350208  -0.000000
   22       13.939601  -0.000000
   23       13.939601  -0.000000
   24       14.982720  -0.000000
   25       24.076383   0.000000
   26       24.781626   0.000000
   27       24.781626   0.000000
   28       26.981137   0.000000
   29       28.324029   0.000000
   30       28.324029   0.000000
   31       28.626803   0.000000
   32       28.626803   0.000000
   33       29.095305   0.000000
   34       34.793013   0.000000
   35       35.748336   0.000000
   36       35.748336   0.000000
   37       35.959421   0.000000
   38       39.658292   0.000000
   39       41.325338   0.000000
   40       42.401629   0.000000
 
  0.1818182E+00  0.9090909E-01  0.0000000E+00  0.1803156E-01
    1        0.209915   1.000000
    2        3.224735   1.000000
    3        3.338649   1.000000
    4        3.357988   1.000000
    5        4.161046   1.000000
    6        4.217501   1.000000
    7        4.235301   1.000000
    8        7.022628   1.000000
    9        7.623361   1.000000
   10        7.643203   1.000000
   11        9.250780   1.011319
   12        9.491102   0.954661
   13        9.493398   0.950424
   14        9.636163   0.466230
   15       10.120973  -0.001358
   16       10.515216  -0.000000
   17       10.608104  -0.000000
   18       10.839209  -0.000000
   19       10.971918  -0.000000
   20       11.304917  -0.000000
   21       11.309320  -0.000000
   22       12.799402  -0.000000
   23       15.238900   0.000000
   24       16.168420   0.000000
   25       23.808600   0.000000
   26       24.711558   0.000000
   27       25.774871   0.000000
   28       26.336503   0.000000
   29       27.088441   0.000000
   30       28.096925   0.000000
   31       28.976847   0.000000
   32       29.158730   0.000000
   33       29.335259   0.000000
   34       34.675134   0.000000
   35       35.772340   0.000000
   36       36.895031   0.000000
   37       37.244260   0.000000
   38       37.925091   0.000000
   39       40.537944   0.000000
   40       41.852989   0.000000
 
  0.2727273E+00  0.9090909E-01  0.0000000E+00  0.1803156E-01
    1        0.860617   1.000000
    2        3.415067   1.000000
    3        3.744416   1.000000
    4        3.749173   1.000000
    5        4.441832   1.000000
    6        4.598514   1.000000
    7        4.609392   1.000000
    8        6.665048   1.000000
    9        7.876110   1.000000
   10        7.910282   1.000000
   11        8.398609   1.000000
   12        8.467824   1.000000
   13        8.954369   1.000010
   14        9.432671   1.022635
   15        9.786068   0.012697
   16       10.096385  -0.002287
   17       10.172305  -0.000409
   18       10.486657  -0.000000
   19       10.630728  -0.000000
   20       11.299579  -0.000000
   21       11.304064  -0.000000
   22       11.622131  -0.000000
   23       16.646268   0.000000
   24       17.594073   0.000000
   25       23.126737   0.000000
   26       24.612344   0.000000
   27       24.990198   0.000000
   28       25.580019   0.000000
   29       27.560697   0.000000
   30       28.247608   0.000000
   31       28.626635   0.000000
   32       29.967379   0.000000
   33       30.496870   0.000000
   34       34.464338   0.000000
   35       35.859148   0.000000
   36       36.256973   0.000000
   37       38.596205   0.000000
   38       39.224682   0.000000
   39       39.387237   0.000000
   40       40.210704   0.000000
 
  0.3636364E+00  0.9090909E-01  0.0000000E+00  0.1803156E-01
    1        1.681520   1.000000
    2        3.481031   1.000000
    3        4.178281   1.000000
    4        4.180761   1.000000
    5        4.813908   1.000000
    6        5.111846   1.000000
    7        5.124433   1.000000
    8        6.220727   1.000000
    9        7.388536   1.000000
   10        7.479353   1.000000
   11        8.069792   1.000000
   12        8.304113   1.000000
   13        8.653068   1.000000
   14        8.767289   1.000000
   15        9.648622   0.413981
   16        9.702509   0.208261
   17        9.920888  -0.029242
   18        9.985124  -0.015025
   19       10.183473  -0.000308
   20       10.859428  -0.000000
   21       11.298415  -0.000000
   22       11.302769  -0.000000
   23       18.071591   0.000000
   24       19.130253   0.000000
   25       22.048982   0.000000
   26       23.977292   0.000000
   27       24.515957   0.000000
   28       24.651387   0.000000
   29       27.223398   0.000000
   30       27.950646   0.000000
   31       30.085912   0.000000
   32       31.168296   0.000000
   33       32.117050   0.000000
   34       34.105958   0.000000
   35       34.704811   0.000000
   36       36.009483   0.000000
   37       38.114093   0.000000
   38       38.242017   0.000000
   39       40.826503   0.000000
   40       41.548304   0.000000
 
  0.4545455E+00  0.9090909E-01  0.0000000E+00  0.1803156E-01
    1        2.539893   1.000000
    2        3.208994   1.000000
    3        4.483658   1.000000
    4        4.484508   1.000000
    5        5.255246   1.000000
    6        5.735677   1.000000
    7        5.736432   1.000000
    8        5.787633   1.000000
    9        6.494450   1.000000
   10        6.577645   1.000000
   11        8.026339   1.000000
   12        8.124628   1.000000
   13        8.788103   1.000000
   14        9.024762   1.000085
   15        9.338512   1.029881
   16        9.348614   1.031852
   17        9.369314   1.034781
   18        9.559029   0.774100
   19       10.221219  -0.000113
   20       10.491782  -0.000000
   21       11.299262  -0.000000
   22       11.301122  -0.000000
   23       19.468788   0.000000
   24       20.725622   0.000000
   25       20.802647   0.000000
   26       22.351019   0.000000
   27       24.469148   0.000000
   28       24.503969   0.000000
   29       27.173375   0.000000
   30       27.424935   0.000000
   31       31.707724   0.000000
   32       32.402544   0.000000
   33       33.211046   0.000000
   34       33.435009   0.000000
   35       34.082516   0.000000
   36       36.163499   0.000000
   37       36.359152   0.000000
   38       37.040078   0.000000
   39       43.359222   0.000000
   40       44.172836   0.000000
 
  0.1818182E+00  0.1818182E+00  0.0000000E+00  0.9015778E-02
    1        0.606095   1.000000
    2        3.510715   1.000000
    3        3.510715   1.000000
    4        3.598481   1.000000
    5        4.378296   1.000000
    6        4.378296   1.000000
    7        4.447522   1.000000
    8        6.896281   1.000000
    9        7.714536   1.000000
   10        7.722671   1.000000
   11        8.950533   1.000009
   12        9.030623   1.000100
   13        9.030623   1.000100
   14        9.177769   1.003260
   15        9.666943   0.339329
   16       10.277260  -0.000022
   17       10.564552  -0.000000
   18       10.564552  -0.000000
   19       10.969584  -0.000000
   20       10.969584  -0.000000
   21       11.131209  -0.000000
   22       14.028796  -0.000000
   23       14.028796  -0.000000
   24       17.128583   0.000000
   25       22.855814   0.000000
   26       25.060858   0.000000
   27       26.234433   0.000000
   28       26.234433   0.000000
   29       27.675081   0.000000
   30       27.675081   0.000000
   31       28.851212   0.000000
   32       28.851212   0.000000
   33       30.446426   0.000000
   34       34.238320   0.000000
   35       36.198422   0.000000
   36       36.603663   0.000000
   37       37.343378   0.000000
   38       37.343378   0.000000
   39       40.613399   0.000000
   40       43.289452   0.000000
 
  0.2727273E+00  0.1818182E+00  0.0000000E+00  0.1803156E-01
    1        1.231344   1.000000
    2        3.715914   1.000000
    3        3.934756   1.000000
    4        3.964199   1.000000
    5        4.636569   1.000000
    6        4.735898   1.000000
    7        4.779177   1.000000
    8        6.621088   1.000000
    9        7.819540   1.000000
   10        7.954002   1.000000
   11        7.997090   1.000000
   12        8.186899   1.000000
   13        8.426623   1.000000
   14        8.977878   1.000021
   15        9.861787  -0.034923
   16        9.918208  -0.029805
   17       10.154512  -0.000630
   18       10.382769  -0.000001
   19       10.482959  -0.000000
   20       10.966222  -0.000000
   21       11.027741  -0.000000
   22       12.748558  -0.000000
   23       15.284927   0.000000
   24       18.397475   0.000000
   25       21.505943   0.000000
   26       24.914262   0.000000
   27       26.013105   0.000000
   28       26.138874   0.000000
   29       27.876264   0.000000
   30       28.484956   0.000000
   31       28.555800   0.000000
   32       30.253674   0.000000
   33       30.724043   0.000000
   34       33.587391   0.000000
   35       34.596206   0.000000
   36       37.451449   0.000000
   37       37.560068   0.000000
   38       39.395846   0.000000
   39       40.340994   0.000000
   40       41.898662   0.000000
 
  0.3636364E+00  0.1818182E+00  0.0000000E+00  0.1803156E-01
    1        2.021729   1.000000
    2        3.793816   1.000000
    3        4.394417   1.000000
    4        4.400516   1.000000
    5        4.977390   1.000000
    6        5.186238   1.000000
    7        5.226903   1.000000
    8        6.241672   1.000000
    9        7.065083   1.000000
   10        7.358534   1.000000
   11        7.809141   1.000000
   12        7.854425   1.000000
   13        8.324322   1.000000
   14        8.893089   1.000001
   15        9.530545   0.863522
   16        9.698356   0.222340
   17        9.918049  -0.029838
   18       10.031372  -0.007590
   19       10.161818  -0.000529
   20       10.962765  -0.000000
   21       10.982078  -0.000000
   22       11.722776  -0.000000
   23       16.522544   0.000000
   24       19.829480   0.000000
   25       20.177317   0.000000
   26       24.539847   0.000000
   27       24.952970   0.000000
   28       25.684940   0.000000
   29       28.467930   0.000000
   30       29.275893   0.000000
   31       29.619339   0.000000
   32       30.167250   0.000000
   33       32.295509   0.000000
   34       32.779256   0.000000
   35       33.143923   0.000000
   36       37.907646   0.000000
   37       39.383305   0.000000
   38       39.525895   0.000000
   39       39.736635   0.000000
   40       41.766012   0.000000
 
  0.4545455E+00  0.1818182E+00  0.0000000E+00  0.1803156E-01
    1        2.855616   1.000000
    2        3.520160   1.000000
    3        4.736807   1.000000
    4        4.738448   1.000000
    5        5.379042   1.000000
    6        5.650732   1.000000
    7        5.812632   1.000000
    8        5.840509   1.000000
    9        6.268001   1.000000
   10        6.560099   1.000000
   11        7.564725   1.000000
   12        7.633098   1.000000
   13        8.795710   1.000000
   14        9.121878   1.001005
   15        9.285996   1.018075
   16        9.339203   1.030024
   17        9.350426   1.032176
   18        9.559050   0.774025
   19       10.540056  -0.000000
   20       10.961028  -0.000000
   21       10.965134  -0.000000
   22       11.024839  -0.000000
   23       17.731265   0.000000
   24       18.933243   0.000000
   25       21.355301   0.000000
   26       22.935280   0.000000
   27       25.103288   0.000000
   28       25.356896   0.000000
   29       28.809488   0.000000
   30       29.422479   0.000000
   31       30.551801   0.000000
   32       30.740308   0.000000
   33       31.816144   0.000000
   34       31.819359   0.000000
   35       34.646511   0.000000
   36       37.080901   0.000000
   37       38.394790   0.000000
   38       39.025932   0.000000
   39       41.858695   0.000000
   40       44.412374   0.000000
 
  0.2727273E+00  0.2727273E+00  0.0000000E+00  0.9015778E-02
    1        1.814941   1.000000
    2        4.168620   1.000000
    3        4.168620   1.000000
    4        4.293429   1.000000
    5        4.955010   1.000000
    6        4.955010   1.000000
    7        5.040070   1.000000
    8        6.482097   1.000000
    9        7.505042   1.000000
   10        7.505042   1.000000
   11        7.724606   1.000000
   12        7.760364   1.000000
   13        8.109671   1.000000
   14        8.851838   1.000000
   15        9.636565   0.464533
   16       10.006048  -0.011241
   17       10.006048  -0.011241
   18       10.144258  -0.000802
   19       10.479452  -0.000000
   20       10.479452  -0.000000
   21       10.778270  -0.000000
   22       13.869064  -0.000000
   23       13.869064  -0.000000
   24       19.524435   0.000000
   25       19.896165   0.000000
   26       25.006974   0.000000
   27       26.980969   0.000000
   28       26.980969   0.000000
   29       27.255634   0.000000
   30       27.255634   0.000000
   31       30.263914   0.000000
   32       30.263914   0.000000
   33       32.459288   0.000000
   34       32.536847   0.000000
   35       33.060445   0.000000
   36       36.761656   0.000000
   37       39.695695   0.000000
   38       39.695695   0.000000
   39       41.193557   0.000000
   40       42.848277   0.000000
 
  0.3636364E+00  0.2727273E+00  0.0000000E+00  0.1803156E-01
    1        2.551858   1.000000
    2        4.267443   1.000000
    3        4.684634   1.000000
    4        4.706281   1.000000
    5        5.240633   1.000000
    6        5.323270   1.000000
    7        5.386987   1.000000
    8        6.234320   1.000000
    9        6.685040   1.000000
   10        7.117333   1.000000
   11        7.139748   1.000000
   12        7.614575   1.000000
   13        8.410597   1.000000
   14        8.766180   1.000000
   15        9.321618   1.026169
   16        9.576409   0.711117
   17        9.695614   0.231831
   18        9.920308  -0.029365
   19       10.480252  -0.000000
   20       10.578422  -0.000000
   21       10.617365  -0.000000
   22       12.682181  -0.000000
   23       14.972394  -0.000000
   24       18.467997   0.000000
   25       20.846487   0.000000
   26       25.211022   0.000000
   27       25.383668   0.000000
   28       26.572723   0.000000
   29       28.006411   0.000000
   30       28.311198   0.000000
   31       30.582404   0.000000
   32       31.425976   0.000000
   33       31.690861   0.000000
   34       32.610005   0.000000
   35       32.688167   0.000000
   36       37.864035   0.000000
   37       40.113430   0.000000
   38       40.477838   0.000000
   39       41.454531   0.000000
   40       42.105737   0.000000
 
  0.4545455E+00  0.2727273E+00  0.0000000E+00  0.1803156E-01
    1        3.336720   1.000000
    2        3.986910   1.000000
    3        5.101853   1.000000
    4        5.118095   1.000000
    5        5.546251   1.000000
    6        5.570603   1.000000
    7        5.914868   1.000000
    8        5.915865   1.000000
    9        5.990883   1.000000
   10        6.514616   1.000000
   11        7.064301   1.000000
   12        7.319786   1.000000
   13        8.837844   1.000000
   14        8.927281   1.000004
   15        9.132930   1.001287
   16        9.229556   1.008174
   17        9.287401   1.018379
   18        9.355272   1.032987
   19       10.493521  -0.000000
   20       10.531895  -0.000000
   21       11.116654  -0.000000
   22       11.788294  -0.000000
   23       16.072202   0.000000
   24       17.214168   0.000000
   25       22.290353   0.000000
   26       23.815502   0.000000
   27       25.528124   0.000000
   28       25.981292   0.000000
   29       29.127841   0.000000
   30       29.358917   0.000000
   31       30.279673   0.000000
   32       30.467799   0.000000
   33       31.167759   0.000000
   34       31.950810   0.000000
   35       35.177108   0.000000
   36       37.819289   0.000000
   37       40.244618   0.000000
   38       40.623928   0.000000
   39       41.144400   0.000000
   40       42.959580   0.000000
 
  0.3636364E+00  0.3636364E+00  0.0000000E+00  0.9015778E-02
    1        3.212213   1.000000
    2        4.815732   1.000000
    3        4.815732   1.000000
    4        5.058256   1.000000
    5        5.497087   1.000000
    6        5.588128   1.000000
    7        5.588128   1.000000
    8        6.159490   1.000000
    9        6.475387   1.000000
   10        6.475387   1.000000
   11        6.819004   1.000000
   12        7.413286   1.000000
   13        8.597343   1.000000
   14        8.614255   1.000000
   15        9.060615   1.000225
   16        9.299330   1.021035
   17        9.299330   1.021035
   18        9.938935  -0.025203
   19        9.938935  -0.025203
   20       10.312157  -0.000007
   21       11.145721  -0.000000
   22       13.658565  -0.000000
   23       13.658565  -0.000000
   24       16.995702   0.000000
   25       22.072178   0.000000
   26       25.544895   0.000000
   27       26.430433   0.000000
   28       26.430433   0.000000
   29       27.395360   0.000000
   30       27.395360   0.000000
   31       30.107240   0.000000
   32       30.399014   0.000000
   33       33.108068   0.000000
   34       33.108068   0.000000
   35       34.920560   0.000000
   36       36.914527   0.000000
   37       40.511995   0.000000
   38       42.570773   0.000000
   39       42.570773   0.000000
   40       42.857006   0.000000
 
  0.4545455E+00  0.3636364E+00  0.0000000E+00  0.1803156E-01
    1        3.911667   1.000000
    2        4.517727   1.000000
    3        5.285442   1.000000
    4        5.395008   1.000000
    5        5.608008   1.000000
    6        5.805979   1.000000
    7        5.942073   1.000000
    8        5.994349   1.000000
    9        6.008450   1.000000
   10        6.421238   1.000000
   11        6.669277   1.000000
   12        7.075500   1.000000
   13        8.646281   1.000000
   14        8.889306   1.000001
   15        8.934949   1.000005
   16        8.954413   1.000010
   17        8.976344   1.000020
   18        9.410721   1.031974
   19        9.992432  -0.013627
   20       10.107335  -0.001821
   21       11.816881  -0.000000
   22       12.626685  -0.000000
   23       14.662412  -0.000000
   24       15.749284   0.000000
   25       23.439263   0.000000
   26       24.897854   0.000000
   27       26.005823   0.000000
   28       26.619829   0.000000
   29       27.591999   0.000000
   30       28.282101   0.000000
   31       28.826367   0.000000
   32       29.269078   0.000000
   33       33.811501   0.000000
   34       34.695639   0.000000
   35       35.780520   0.000000
   36       38.441049   0.000000
   37       38.775618   0.000000
   38       41.601650   0.000000
   39       42.857024   0.000000
   40       43.052339   0.000000
 
  0.4545455E+00  0.4545455E+00  0.0000000E+00  0.9015778E-02
    1        4.485381   1.000000
    2        4.974609   1.000000
    3        4.974609   1.000000
    4        5.256247   1.000000
    5        6.022285   1.000000
    6        6.050450   1.000000
    7        6.050450   1.000000
    8        6.058769   1.000000
    9        6.264921   1.000000
   10        6.357226   1.000000
   11        6.357226   1.000000
   12        6.785642   1.000000
   13        8.517024   1.000000
   14        8.669677   1.000000
   15        8.672951   1.000000
   16        8.672951   1.000000
   17        9.183032   1.003608
   18        9.537043   0.844783
   19        9.537043   0.844783
   20        9.765786   0.044368
   21       12.605771  -0.000000
   22       13.527137  -0.000000
   23       13.527137  -0.000000
   24       14.541203  -0.000000
   25       24.728278   0.000000
   26       26.121458   0.000000
   27       26.121458   0.000000
   28       26.607268   0.000000
   29       27.359670   0.000000
   30       27.359670   0.000000
   31       27.436916   0.000000
   32       28.236307   0.000000
   33       36.541207   0.000000
   34       36.541207   0.000000
   35       37.457109   0.000000
   36       37.664599   0.000000
   37       38.640369   0.000000
   38       40.436921   0.000000
   39       40.551554   0.000000
   40       40.551554   0.000000
 
  0.9090909E-01  0.9090909E-01  0.9090909E-01  0.6010518E-02
    1       -0.063769   1.000000
    2        3.155542   1.000000
    3        3.155542   1.000000
    4        3.155542   1.000000
    5        4.062899   1.000000
    6        4.062899   1.000000
    7        4.062899   1.000000
    8        7.197444   1.000000
    9        7.511298   1.000000
   10        7.511298   1.000000
   11        9.485967   0.963669
   12        9.485967   0.963669
   13       10.238092  -0.000071
   14       10.238092  -0.000071
   15       10.238092  -0.000071
   16       10.705208  -0.000000
   17       10.705208  -0.000000
   18       10.705208  -0.000000
   19       11.306096  -0.000000
   20       11.306096  -0.000000
   21       11.306096  -0.000000