unknown system                          
   1.00000000000000     
     3.443320    0.000000    0.000000
     0.000000    3.443320    0.000000
     0.000000    0.000000    3.443320
   Cu
     4
Direct
  0.000000  0.000000  0.000000
  0.500000  0.500000  0.000000
  0.500000  0.000000  0.500000
  0.000000  0.500000  0.500000
 
   32   32   32
  715.12      678.09      577.71      440.86      298.98      177.65      91.294      42.288      22.324      16.241    
  12.658      10.379      9.0629      8.3474      7.9202      7.6259      7.5074      7.6259      7.9202      8.3474    
  9.0629      10.379      12.658      16.241      22.324      42.288      91.294      177.65      298.98      440.86    
  577.71      678.09      678.09      642.86      547.31      417.08      282.21      167.19      85.785      40.077    
  21.766      16.069      12.591      10.391      9.1231      8.4336      8.0220      7.7393      7.6259      7.7393    
  8.0220      8.4336      9.1231      10.391      12.591      16.069      21.766      40.077      85.785      167.19    
  282.21      417.08      547.31      642.86      577.71      547.31      464.90      352.70      236.97      139.20    
  71.298      34.445      20.401      15.586      12.407      10.423      9.2810      8.6549      8.2783      8.0220    
  7.9202      8.0220      8.2783      8.6549      9.2810      10.423      12.407      15.586      20.401      34.445    
  71.298      139.20      236.97      352.70      464.90      547.31      440.86      417.08      352.70      265.40    
  176.22      102.36      52.930      27.782      18.846      14.884      12.162      10.489      9.5246      8.9850    
  8.6549      8.4336      8.3474      8.4336      8.6549      8.9850      9.5246      10.489      12.162      14.884    
  18.846      27.782      52.930      102.36      176.22      265.40      352.70      417.08      298.98      282.21    
  236.97      176.22      115.37      66.814      36.378      22.423      17.353      14.107      11.954      10.664    
  9.9308      9.5246      9.2810      9.1231      9.0629      9.1231      9.2810      9.5246      9.9308      10.664    
  11.954      14.107      17.353      22.423      36.378      66.814      115.37      176.22      236.97      282.21    
  177.65      167.19      139.20      102.36      66.814      40.256      25.328      19.178      15.847      13.427    
  11.917      11.079      10.664      10.489      10.423      10.391      10.379      10.391      10.423      10.489    
  10.664      11.079      11.917      13.427      15.847      19.178      25.328      40.256      66.814      102.36    
  139.20      167.19      91.294      85.785      71.298      52.930      36.378      25.328      19.884      16.885    
  14.552      13.021      12.209      11.917      11.954      12.162      12.407      12.591      12.658      12.591    
  12.407      12.162      11.954      11.917      12.209      13.021      14.552      16.885      19.884      25.328    
  36.378      52.930      71.298      85.785      42.288      40.077      34.445      27.782      22.423      19.178    
  16.885      14.979      13.684      13.058      13.021      13.427      14.107      14.884      15.586      16.069    
  16.241      16.069      15.586      14.884      14.107      13.427      13.021      13.058      13.684      14.979    
  16.885      19.178      22.423      27.782      34.445      40.077      22.324      21.766      20.401      18.846    
  17.353      15.847      14.552      13.684      13.379      13.684      14.552      15.847      17.353      18.846    
  20.401      21.766      22.324      21.766      20.401      18.846      17.353      15.847      14.552      13.684    
  13.379      13.684      14.552      15.847      17.353      18.846      20.401      21.766      16.241      16.069    
  15.586      14.884      14.107      13.427      13.021      13.058      13.684      14.979      16.885      19.178    
  22.423      27.782      34.445      40.077      42.288      40.077      34.445      27.782      22.423      19.178    
  16.885      14.979      13.684      13.058      13.021      13.427      14.107      14.884      15.586      16.069    
  12.658      12.591      12.407      12.162      11.954      11.917      12.209      13.021      14.552      16.885    
  19.884      25.328      36.378      52.930      71.298      85.785      91.294      85.785      71.298      52.930    
  36.378      25.328      19.884      16.885      14.552      13.021      12.209      11.917      11.954      12.162    
  12.407      12.591      10.379      10.391      10.423      10.489      10.664      11.079      11.917      13.427    
  15.847      19.178      25.328      40.256      66.814      102.36      139.20      167.19      177.65      167.19    
  139.20      102.36      66.814      40.256      25.328      19.178      15.847      13.427      11.917      11.079    
  10.664      10.489      10.423      10.391      9.0629      9.1231      9.2810      9.5246      9.9308      10.664    
  11.954      14.107      17.353      22.423      36.378      66.814      115.37      176.22      236.97      282.21    
  298.98      282.21      236.97      176.22      115.37      66.814      36.378      22.423      17.353      14.107    
  11.954      10.664      9.9308      9.5246      9.2810      9.1231      8.3474      8.4336      8.6549      8.9850    
  9.5246      10.489      12.162      14.884      18.846      27.782      52.930      102.36      176.22      265.40    
  352.70      417.08      440.86      417.08      352.70      265.40      176.22      102.36      52.930      27.782    
  18.846      14.884      12.162      10.489      9.5246      8.9850      8.6549      8.4336      7.9202      8.0220    
  8.2783      8.6549      9.2810      10.423      12.407      15.586      20.401      34.445      71.298      139.20    
  236.97      352.70      464.90      547.31      577.71      547.31      464.90      352.70      236.97      139.20    
  71.298      34.445      20.401      15.586      12.407      10.423      9.2810      8.6549      8.2783      8.0220    
  7.6259      7.7393      8.0220      8.4336      9.1231      10.391      12.591      16.069      21.766      40.077    
  85.785      167.19      282.21      417.08      547.31      642.86      678.09      642.86      547.31      417.08    
  282.21      167.19      85.785      40.077      21.766      16.069      12.591      10.391      9.1231      8.4336    
  8.0220      7.7393      7.5074      7.6259      7.9202      8.3474      9.0629      10.379      12.658      16.241    
  22.324      42.288      91.294      177.65      298.98      440.86      577.71      678.09      715.12      678.09    
  577.71      440.86      298.98      177.65      91.294      42.288      22.324      16.241      12.658      10.379    
  9.0629      8.3474      7.9202      7.6259      7.6259      7.7393      8.0220      8.4336      9.1231      10.391    
  12.591      16.069      21.766      40.077      85.785      167.19      282.21      417.08      547.31      642.86    
  678.09      642.86      547.31      417.08      282.21      167.19      85.785      40.077      21.766      16.069    
  12.591      10.391      9.1231      8.4336      8.0220      7.7393      7.9202      8.0220      8.2783      8.6549    
  9.2810      10.423      12.407      15.586      20.401      34.445      71.298      139.20      236.97      352.70    
  464.90      547.31      577.71      547.31      464.90      352.70      236.97      139.20      71.298      34.445    
  20.401      15.586      12.407      10.423      9.2810      8.6549      8.2783      8.0220      8.3474      8.4336    
  8.6549      8.9850      9.5246      10.489      12.162      14.884      18.846      27.782      52.930      102.36    
  176.22      265.40      352.70      417.08      440.86      417.08      352.70      265.40      176.22      102.36    
  52.930      27.782      18.846      14.884      12.162      10.489      9.5246      8.9850      8.6549      8.4336    
  9.0629      9.1231      9.2810      9.5246      9.9308      10.664      11.954      14.107      17.353      22.423    
  36.378      66.814      115.37      176.22      236.97      282.21      298.98      282.21      236.97      176.22    
  115.37      66.814      36.378      22.423      17.353      14.107      11.954      10.664      9.9308      9.5246    
  9.2810      9.1231      10.379      10.391      10.423      10.489      10.664      11.079      11.917      13.427    
  15.847      19.178      25.328      40.256      66.814      102.36      139.20      167.19      177.65      167.19    
  139.20      102.36      66.814      40.256      25.328      19.178      15.847      13.427      11.917      11.079    
  10.664      10.489      10.423      10.391      12.658      12.591      12.407      12.162      11.954      11.917    
  12.209      13.021      14.552      16.885      19.884      25.328      36.378      52.930      71.298      85.785    
  91.294      85.785      71.298      52.930      36.378      25.328      19.884      16.885      14.552      13.021    
  12.209      11.917      11.954      12.162      12.407      12.591      16.241      16.069      15.586      14.884    
  14.107      13.427      13.021      13.058      13.684      14.979      16.885      19.178      22.423      27.782    
  34.445      40.077      42.288      40.077      34.445      27.782      22.423      19.178      16.885      14.979    
  13.684      13.058      13.021      13.427      14.107      14.884      15.586      16.069      22.324      21.766    
  20.401      18.846      17.353      15.847      14.552      13.684      13.379      13.684      14.552      15.847    
  17.353      18.846      20.401      21.766      22.324      21.766      20.401      18.846      17.353      15.847    
  14.552      13.684      13.379      13.684      14.552      15.847      17.353      18.846      20.401      21.766    
  42.288      40.077      34.445      27.782      22.423      19.178      16.885      14.979      13.684      13.058    
  13.021      13.427      14.107      14.884      15.586      16.069      16.241      16.069      15.586      14.884    
  14.107      13.427      13.021      13.058      13.684      14.979      16.885      19.178      22.423      27.782    
  34.445      40.077      91.294      85.785      71.298      52.930      36.378      25.328      19.884      16.885    
  14.552      13.021      12.209      11.917      11.954      12.162      12.407      12.591      12.658      12.591    
  12.407      12.162      11.954      11.917      12.209      13.021      14.552      16.885      19.884      25.328    
  36.378      52.930      71.298      85.785      177.65      167.19      139.20      102.36      66.814      40.256    
  25.328      19.178      15.847      13.427      11.917      11.079      10.664      10.489      10.423      10.391    
  10.379      10.391      10.423      10.489      10.664      11.079      11.917      13.427      15.847      19.178    
  25.328      40.256      66.814      102.36      139.20      167.19      298.98      282.21      236.97      176.22    
  115.37      66.814      36.378      22.423      17.353      14.107      11.954      10.664      9.9308      9.5246    
  9.2810      9.1231      9.0629      9.1231      9.2810      9.5246      9.9308      10.664      11.954      14.107    
  17.353      22.423      36.378      66.814      115.37      176.22      236.97      282.21      440.86      417.08    
  352.70      265.40      176.22      102.36      52.930      27.782      18.846      14.884      12.162      10.489    
  9.5246      8.9850      8.6549      8.4336      8.3474      8.4336      8.6549      8.9850      9.5246      10.489    
  12.162      14.884      18.846      27.782      52.930      102.36      176.22      265.40      352.70      417.08    
  577.71      547.31      464.90      352.70      236.97      139.20      71.298      34.445      20.401      15.586    
  12.407      10.423      9.2810      8.6549      8.2783      8.0220      7.9202      8.0220      8.2783      8.6549    
  9.2810      10.423      12.407      15.586      20.401      34.445      71.298      139.20      236.97      352.70    
  464.90      547.31      678.09      642.86      547.31      417.08      282.21      167.19      85.785      40.077    
  21.766      16.069      12.591      10.391      9.1231      8.4336      8.0220      7.7393      7.6259      7.7393    
  8.0220      8.4336      9.1231      10.391      12.591      16.069      21.766      40.077      85.785      167.19    
  282.21      417.08      547.31      642.86      678.09      642.86      547.31      417.08      282.21      167.19    
  85.785      40.077      21.766      16.069      12.591      10.391      9.1231      8.4336      8.0220      7.7393    
  7.6259      7.7393      8.0220      8.4336      9.1231      10.391      12.591      16.069      21.766      40.077    
  85.785      167.19      282.21      417.08      547.31      642.86      642.86      609.32      518.39      394.47    
  266.30      157.30      80.624      38.037      21.260      15.900      12.526      10.402      9.1804      8.5160    
  8.1194      7.8479      7.7393      7.8479      8.1194      8.5160      9.1804      10.402      12.526      15.900    
  21.260      38.037      80.624      157.30      266.30      394.47      518.39      609.32      547.31      518.39    
  439.97      333.27      223.39      130.89      67.072      32.852      20.019      15.426      12.345      10.431    
  9.3314      8.7283      8.3655      8.1194      8.0220      8.1194      8.3655      8.7283      9.3314      10.431    
  12.345      15.426      20.019      32.852      67.072      130.89      223.39      333.27      439.97      518.39    
  417.08      394.47      333.27      250.37      165.87      96.203      49.959      26.754      18.581      14.738    
  12.105      10.493      9.5654      9.0460      8.7283      8.5160      8.4336      8.5160      8.7283      9.0460    
  9.5654      10.493      12.105      14.738      18.581      26.754      49.959      96.203      165.87      250.37    
  333.27      394.47      282.21      266.30      223.39      165.87      108.45      62.903      34.646      21.882    
  17.129      13.978      11.902      10.660      9.9558      9.5654      9.3314      9.1804      9.1231      9.1804    
  9.3314      9.5654      9.9558      10.660      11.902      13.978      17.129      21.882      34.646      62.903    
  108.45      165.87      223.39      266.30      167.19      157.30      130.89      96.203      62.903      38.226    
  24.532      18.894      15.657      13.316      11.863      11.058      10.660      10.493      10.431      10.402    
  10.391      10.402      10.431      10.493      10.660      11.058      11.863      13.316      15.657      18.894    
  24.532      38.226      62.903      96.203      130.89      157.30      85.785      80.624      67.072      49.959    
  34.646      24.532      19.561      16.659      14.397      12.921      12.140      11.863      11.902      12.105    
  12.345      12.526      12.591      12.526      12.345      12.105      11.902      11.863      12.140      12.921    
  14.397      16.659      19.561      24.532      34.646      49.959      67.072      80.624      40.077      38.037    
  32.852      26.754      21.882      18.894      16.659      14.807      13.555      12.953      12.921      13.316    
  13.978      14.738      15.426      15.900      16.069      15.900      15.426      14.738      13.978      13.316    
  12.921      12.953      13.555      14.807      16.659      18.894      21.882      26.754      32.852      38.037    
  21.766      21.260      20.019      18.581      17.129      15.657      14.397      13.555      13.260      13.555    
  14.397      15.657      17.129      18.581      20.019      21.260      21.766      21.260      20.019      18.581    
  17.129      15.657      14.397      13.555      13.260      13.555      14.397      15.657      17.129      18.581    
  20.019      21.260      16.069      15.900      15.426      14.738      13.978      13.316      12.921      12.953    
  13.555      14.807      16.659      18.894      21.882      26.754      32.852      38.037      40.077      38.037    
  32.852      26.754      21.882      18.894      16.659      14.807      13.555      12.953      12.921      13.316    
  13.978      14.738      15.426      15.900      12.591      12.526      12.345      12.105      11.902      11.863    
  12.140      12.921      14.397      16.659      19.561      24.532      34.646      49.959      67.072      80.624    
  85.785      80.624      67.072      49.959      34.646      24.532      19.561      16.659      14.397      12.921    
  12.140      11.863      11.902      12.105      12.345      12.526      10.391      10.402      10.431      10.493    
  10.660      11.058      11.863      13.316      15.657      18.894      24.532      38.226      62.903      96.203    
  130.89      157.30      167.19      157.30      130.89      96.203      62.903      38.226      24.532      18.894    
  15.657      13.316      11.863      11.058      10.660      10.493      10.431      10.402      9.1231      9.1804    
  9.3314      9.5654      9.9558      10.660      11.902      13.978      17.129      21.882      34.646      62.903    
  108.45      165.87      223.39      266.30      282.21      266.30      223.39      165.87      108.45      62.903    
  34.646      21.882      17.129      13.978      11.902      10.660      9.9558      9.5654      9.3314      9.1804    
  8.4336      8.5160      8.7283      9.0460      9.5654      10.493      12.105      14.738      18.581      26.754    
  49.959      96.203      165.87      250.37      333.27      394.47      417.08      394.47      333.27      250.37    
  165.87      96.203      49.959      26.754      18.581      14.738      12.105      10.493      9.5654      9.0460    
  8.7283      8.5160      8.0220      8.1194      8.3655      8.7283      9.3314      10.431      12.345      15.426    
  20.019      32.852      67.072      130.89      223.39      333.27      439.97      518.39      547.31      518.39    
  439.97      333.27      223.39      130.89      67.072      32.852      20.019      15.426      12.345      10.431    
  9.3314      8.7283      8.3655      8.1194      7.7393      7.8479      8.1194      8.5160      9.1804      10.402    
  12.526      15.900      21.260      38.037      80.624      157.30      266.30      394.47      518.39      609.32    
  642.86      609.32      518.39      394.47      266.30      157.30      80.624      38.037      21.260      15.900    
  12.526      10.402      9.1804      8.5160      8.1194      7.8479      7.6259      7.7393      8.0220      8.4336    
  9.1231      10.391      12.591      16.069      21.766      40.077      85.785      167.19      282.21      417.08    
  547.31      642.86      678.09      642.86      547.31      417.08      282.21      167.19      85.785      40.077    
  21.766      16.069      12.591      10.391      9.1231      8.4336      8.0220      7.7393      7.7393      7.8479    
  8.1194      8.5160      9.1804      10.402      12.526      15.900      21.260      38.037      80.624      157.30    
  266.30      394.47      518.39      609.32      642.86      609.32      518.39      394.47      266.30      157.30    
  80.624      38.037      21.260      15.900      12.526      10.402      9.1804      8.5160      8.1194      7.8479    
  8.0220      8.1194      8.3655      8.7283      9.3314      10.431      12.345      15.426      20.019      32.852    
  67.072      130.89      223.39      333.27      439.97      518.39      547.31      518.39      439.97      333.27    
  223.39      130.89      67.072      32.852      20.019      15.426      12.345      10.431      9.3314      8.7283    
  8.3655      8.1194      8.4336      8.5160      8.7283      9.0460      9.5654      10.493      12.105      14.738    
  18.581      26.754      49.959      96.203      165.87      250.37      333.27      394.47      417.08      394.47    
  333.27      250.37      165.87      96.203      49.959      26.754      18.581      14.738      12.105      10.493    
  9.5654      9.0460      8.7283      8.5160      9.1231      9.1804      9.3314      9.5654      9.9558      10.660    
  11.902      13.978      17.129      21.882      34.646      62.903      108.45      165.87      223.39      266.30    
  282.21      266.30      223.39      165.87      108.45      62.903      34.646      21.882      17.129      13.978    
  11.902      10.660      9.9558      9.5654      9.3314      9.1804      10.391      10.402      10.431      10.493    
  10.660      11.058      11.863      13.316      15.657      18.894      24.532      38.226      62.903      96.203    
  130.89      157.30      167.19      157.30      130.89      96.203      62.903      38.226      24.532      18.894    
  15.657      13.316      11.863      11.058      10.660      10.493      10.431      10.402      12.591      12.526    
  12.345      12.105      11.902      11.863      12.140      12.921      14.397      16.659      19.561      24.532    
  34.646      49.959      67.072      80.624      85.785      80.624      67.072      49.959      34.646      24.532    
  19.561      16.659      14.397      12.921      12.140      11.863      11.902      12.105      12.345      12.526    
  16.069      15.900      15.426      14.738      13.978      13.316      12.921      12.953      13.555      14.807    
  16.659      18.894      21.882      26.754      32.852      38.037      40.077      38.037      32.852      26.754    
  21.882      18.894      16.659      14.807      13.555      12.953      12.921      13.316      13.978      14.738    
  15.426      15.900      21.766      21.260      20.019      18.581      17.129      15.657      14.397      13.555    
  13.260      13.555      14.397      15.657      17.129      18.581      20.019      21.260      21.766      21.260    
  20.019      18.581      17.129      15.657      14.397      13.555      13.260      13.555      14.397      15.657    
  17.129      18.581      20.019      21.260      40.077      38.037      32.852      26.754      21.882      18.894    
  16.659      14.807      13.555      12.953      12.921      13.316      13.978      14.738      15.426      15.900    
  16.069      15.900      15.426      14.738      13.978      13.316      12.921      12.953      13.555      14.807    
  16.659      18.894      21.882      26.754      32.852      38.037      85.785      80.624      67.072      49.959    
  34.646      24.532      19.561      16.659      14.397      12.921      12.140      11.863      11.902      12.105    
  12.345      12.526      12.591      12.526      12.345      12.105      11.902      11.863      12.140      12.921    
  14.397      16.659      19.561      24.532      34.646      49.959      67.072      80.624      167.19      157.30    
  130.89      96.203      62.903      38.226      24.532      18.894      15.657      13.316      11.863      11.058    
  10.660      10.493      10.431      10.402      10.391      10.402      10.431      10.493      10.660      11.058    
  11.863      13.316      15.657      18.894      24.532      38.226      62.903      96.203      130.89      157.30    
  282.21      266.30      223.39      165.87      108.45      62.903      34.646      21.882      17.129      13.978    
  11.902      10.660      9.9558      9.5654      9.3314      9.1804      9.1231      9.1804      9.3314      9.5654    
  9.9558      10.660      11.902      13.978      17.129      21.882      34.646      62.903      108.45      165.87    
  223.39      266.30      417.08      394.47      333.27      250.37      165.87      96.203      49.959      26.754    
  18.581      14.738      12.105      10.493      9.5654      9.0460      8.7283      8.5160      8.4336      8.5160    
  8.7283      9.0460      9.5654      10.493      12.105      14.738      18.581      26.754      49.959      96.203    
  165.87      250.37      333.27      394.47      547.31      518.39      439.97      333.27      223.39      130.89    
  67.072      32.852      20.019      15.426      12.345      10.431      9.3314      8.7283      8.3655      8.1194    
  8.0220      8.1194      8.3655      8.7283      9.3314      10.431      12.345      15.426      20.019      32.852    
  67.072      130.89      223.39      333.27      439.97      518.39      642.86      609.32      518.39      394.47    
  266.30      157.30      80.624      38.037      21.260      15.900      12.526      10.402      9.1804      8.5160    
  8.1194      7.8479      7.7393      7.8479      8.1194      8.5160      9.1804      10.402      12.526      15.900    
  21.260      38.037      80.624      157.30      266.30      394.47      518.39      609.32      577.71      547.31    
  464.90      352.70      236.97      139.20      71.298      34.445      20.401      15.586      12.407      10.423    
  9.2810      8.6549      8.2783      8.0220      7.9202      8.0220      8.2783      8.6549      9.2810      10.423    
  12.407      15.586      20.401      34.445      71.298      139.20      236.97      352.70      464.90      547.31    
  547.31      518.39      439.97      333.27      223.39      130.89      67.072      32.852      20.019      15.426    
  12.345      10.431      9.3314      8.7283      8.3655      8.1194      8.0220      8.1194      8.3655      8.7283    
  9.3314      10.431      12.345      15.426      20.019      32.852      67.072      130.89      223.39      333.27    
  439.97      518.39      464.90      439.97      372.44      280.77      186.88      108.76      56.041      28.840    
  19.063      14.976      12.175      10.453      9.4657      8.9192      8.5880      8.3655      8.2783      8.3655    
  8.5880      8.9192      9.4657      10.453      12.175      14.976      19.063      28.840      56.041      108.76    
  186.88      280.77      372.44      439.97      352.70      333.27      280.77      209.89      138.20      79.944    
  42.287      24.196      17.864      14.331      11.951      10.506      9.6762      9.2076      8.9192      8.7283    
  8.6549      8.7283      8.9192      9.2076      9.6762      10.506      11.951      14.331      17.864      24.196    
  42.287      79.944      138.20      209.89      280.77      333.27      236.97      223.39      186.88      138.20    
  90.114      52.701      30.253      20.535      16.499      13.625      11.760      10.653      10.026      9.6762    
  9.4657      9.3314      9.2810      9.3314      9.4657      9.6762      10.026      10.653      11.760      13.625    
  16.499      20.535      30.253      52.701      90.114      138.20      186.88      223.39      139.20      130.89    
  108.76      79.944      52.701      33.043      22.551      18.107      15.127      13.013      11.717      11.004    
  10.653      10.506      10.453      10.431      10.423      10.431      10.453      10.506      10.653      11.004    
  11.717      13.013      15.127      18.107      22.551      33.043      52.701      79.944      108.76      130.89    
  71.298      67.072      56.041      42.287      30.253      22.551      18.695      16.024      13.969      12.646    
  11.956      11.717      11.760      11.951      12.175      12.345      12.407      12.345      12.175      11.951    
  11.760      11.717      11.956      12.646      13.969      16.024      18.695      22.551      30.253      42.287    
  56.041      67.072      34.445      32.852      28.840      24.196      20.535      18.107      16.024      14.330    
  13.202      12.667      12.646      13.013      13.625      14.331      14.976      15.426      15.586      15.426    
  14.976      14.331      13.625      13.013      12.646      12.667      13.202      14.330      16.024      18.107    
  20.535      24.196      28.840      32.852      20.401      20.019      19.063      17.864      16.499      15.127    
  13.969      13.202      12.935      13.202      13.969      15.127      16.499      17.864      19.063      20.019    
  20.401      20.019      19.063      17.864      16.499      15.127      13.969      13.202      12.935      13.202    
  13.969      15.127      16.499      17.864      19.063      20.019      15.586      15.426      14.976      14.331    
  13.625      13.013      12.646      12.667      13.202      14.330      16.024      18.107      20.535      24.196    
  28.840      32.852      34.445      32.852      28.840      24.196      20.535      18.107      16.024      14.330    
  13.202      12.667      12.646      13.013      13.625      14.331      14.976      15.426      12.407      12.345    
  12.175      11.951      11.760      11.717      11.956      12.646      13.969      16.024      18.695      22.551    
  30.253      42.287      56.041      67.072      71.298      67.072      56.041      42.287      30.253      22.551    
  18.695      16.024      13.969      12.646      11.956      11.717      11.760      11.951      12.175      12.345    
  10.423      10.431      10.453      10.506      10.653      11.004      11.717      13.013      15.127      18.107    
  22.551      33.043      52.701      79.944      108.76      130.89      139.20      130.89      108.76      79.944    
  52.701      33.043      22.551      18.107      15.127      13.013      11.717      11.004      10.653      10.506    
  10.453      10.431      9.2810      9.3314      9.4657      9.6762      10.026      10.653      11.760      13.625    
  16.499      20.535      30.253      52.701      90.114      138.20      186.88      223.39      236.97      223.39    