unknown system                          
   1.00000000000000     
     3.443320    0.000000    0.000000
     0.000000    3.443320    0.000000
     0.000000    0.000000    3.443320
   Cu
     4
Direct
  0.000000  0.000000  0.000000
  0.500000  0.500000  0.000000
  0.500000  0.000000  0.500000
  0.000000  0.500000  0.500000
 
   32   32   32
 0.71511659411E+03 0.67809499056E+03 0.57771387584E+03 0.44085577483E+03 0.29898435052E+03
 0.17765296193E+03 0.91293909816E+02 0.42287581342E+02 0.22323875436E+02 0.16240692471E+02
 0.12657518739E+02 0.10379009485E+02 0.90629463492E+01 0.83473957135E+01 0.79202410978E+01
 0.76258669484E+01 0.75074305416E+01 0.76258669484E+01 0.79202410978E+01 0.83473957135E+01
 0.90629463492E+01 0.10379009485E+02 0.12657518739E+02 0.16240692471E+02 0.22323875436E+02
 0.42287581342E+02 0.91293909816E+02 0.17765296193E+03 0.29898435052E+03 0.44085577483E+03
 0.57771387584E+03 0.67809499056E+03 0.67809499056E+03 0.64285835920E+03 0.54731392342E+03
 0.41707789016E+03 0.28221130394E+03 0.16718789190E+03 0.85785369887E+02 0.40077166560E+02
 0.21766314562E+02 0.16069223804E+02 0.12591036509E+02 0.10391009236E+02 0.91231117401E+01
 0.84335695961E+01 0.80219848995E+01 0.77392915257E+01 0.76258669484E+01 0.77392915257E+01
 0.80219848995E+01 0.84335695961E+01 0.91231117401E+01 0.10391009236E+02 0.12591036509E+02
 0.16069223804E+02 0.21766314562E+02 0.40077166560E+02 0.85785369887E+02 0.16718789190E+03
 0.28221130394E+03 0.41707789016E+03 0.54731392342E+03 0.64285835920E+03 0.57771387584E+03
 0.54731392342E+03 0.46489958169E+03 0.35269802059E+03 0.23697076206E+03 0.13920086861E+03
 0.71297538600E+02 0.34444684133E+02 0.20400798876E+02 0.15586080433E+02 0.12407499957E+02
 0.10422532751E+02 0.92809663632E+01 0.86548560626E+01 0.82782605734E+01 0.80219848995E+01
 0.79202410978E+01 0.80219848995E+01 0.82782605734E+01 0.86548560626E+01 0.92809663632E+01
 0.10422532751E+02 0.12407499957E+02 0.15586080433E+02 0.20400798876E+02 0.34444684133E+02
 0.71297538600E+02 0.13920086861E+03 0.23697076206E+03 0.35269802059E+03 0.46489958169E+03
 0.54731392342E+03 0.44085577483E+03 0.41707789016E+03 0.35269802059E+03 0.26539712567E+03
 0.17621548541E+03 0.10235632723E+03 0.52929534214E+02 0.27782163205E+02 0.18846285934E+02
 0.14883821727E+02 0.12162035025E+02 0.10488734764E+02 0.95245948089E+01 0.89850259108E+01
 0.86548560626E+01 0.84335695961E+01 0.83473957135E+01 0.84335695961E+01 0.86548560626E+01
 0.89850259108E+01 0.95245948089E+01 0.10488734764E+02 0.12162035025E+02 0.14883821727E+02
 0.18846285934E+02 0.27782163205E+02 0.52929534214E+02 0.10235632723E+03 0.17621548541E+03
 0.26539712567E+03 0.35269802059E+03 0.41707789016E+03 0.29898435052E+03 0.28221130394E+03
 0.23697076206E+03 0.17621548541E+03 0.11537140688E+03 0.66814496468E+02 0.36378085406E+02
 0.22423301510E+02 0.17352812140E+02 0.14106516205E+02 0.11954409654E+02 0.10663636188E+02
 0.99308264380E+01 0.95245948089E+01 0.92809663632E+01 0.91231117401E+01 0.90629463492E+01
 0.91231117401E+01 0.92809663632E+01 0.95245948089E+01 0.99308264380E+01 0.10663636188E+02
 0.11954409654E+02 0.14106516205E+02 0.17352812140E+02 0.22423301510E+02 0.36378085406E+02
 0.66814496468E+02 0.11537140688E+03 0.17621548541E+03 0.23697076206E+03 0.28221130394E+03
 0.17765296193E+03 0.16718789190E+03 0.13920086861E+03 0.10235632723E+03 0.66814496468E+02
 0.40256344549E+02 0.25327578166E+02 0.19178415442E+02 0.15847124901E+02 0.13426687935E+02
 0.11917310412E+02 0.11078793900E+02 0.10663636188E+02 0.10488734764E+02 0.10422532751E+02
 0.10391009236E+02 0.10379009485E+02 0.10391009236E+02 0.10422532751E+02 0.10488734764E+02
 0.10663636188E+02 0.11078793900E+02 0.11917310412E+02 0.13426687935E+02 0.15847124901E+02
 0.19178415442E+02 0.25327578166E+02 0.40256344549E+02 0.66814496468E+02 0.10235632723E+03
 0.13920086861E+03 0.16718789190E+03 0.91293909816E+02 0.85785369887E+02 0.71297538600E+02
 0.52929534214E+02 0.36378085406E+02 0.25327578166E+02 0.19884271636E+02 0.16885346748E+02
 0.14552375935E+02 0.13021044233E+02 0.12208826062E+02 0.11917310412E+02 0.11954409654E+02
 0.12162035025E+02 0.12407499957E+02 0.12591036509E+02 0.12657518739E+02 0.12591036509E+02
 0.12407499957E+02 0.12162035025E+02 0.11954409654E+02 0.11917310412E+02 0.12208826062E+02
 0.13021044233E+02 0.14552375935E+02 0.16885346748E+02 0.19884271636E+02 0.25327578166E+02
 0.36378085406E+02 0.52929534214E+02 0.71297538600E+02 0.85785369887E+02 0.42287581342E+02
 0.40077166560E+02 0.34444684133E+02 0.27782163205E+02 0.22423301510E+02 0.19178415442E+02
 0.16885346748E+02 0.14978709984E+02 0.13683845070E+02 0.13057999542E+02 0.13021044233E+02
 0.13426687935E+02 0.14106516205E+02 0.14883821727E+02 0.15586080433E+02 0.16069223804E+02
 0.16240692471E+02 0.16069223804E+02 0.15586080433E+02 0.14883821727E+02 0.14106516205E+02
 0.13426687935E+02 0.13021044233E+02 0.13057999542E+02 0.13683845070E+02 0.14978709984E+02
 0.16885346748E+02 0.19178415442E+02 0.22423301510E+02 0.27782163205E+02 0.34444684133E+02
 0.40077166560E+02 0.22323875436E+02 0.21766314562E+02 0.20400798876E+02 0.18846285934E+02
 0.17352812140E+02 0.15847124901E+02 0.14552375935E+02 0.13683845070E+02 0.13378965068E+02
 0.13683845070E+02 0.14552375935E+02 0.15847124901E+02 0.17352812140E+02 0.18846285934E+02
 0.20400798876E+02 0.21766314562E+02 0.22323875436E+02 0.21766314562E+02 0.20400798876E+02
 0.18846285934E+02 0.17352812140E+02 0.15847124901E+02 0.14552375935E+02 0.13683845070E+02
 0.13378965068E+02 0.13683845070E+02 0.14552375935E+02 0.15847124901E+02 0.17352812140E+02
 0.18846285934E+02 0.20400798876E+02 0.21766314562E+02 0.16240692471E+02 0.16069223804E+02
 0.15586080433E+02 0.14883821727E+02 0.14106516205E+02 0.13426687935E+02 0.13021044233E+02
 0.13057999542E+02 0.13683845070E+02 0.14978709984E+02 0.16885346748E+02 0.19178415442E+02
 0.22423301510E+02 0.27782163205E+02 0.34444684133E+02 0.40077166560E+02 0.42287581342E+02
 0.40077166560E+02 0.34444684133E+02 0.27782163205E+02 0.22423301510E+02 0.19178415442E+02
 0.16885346748E+02 0.14978709984E+02 0.13683845070E+02 0.13057999542E+02 0.13021044233E+02
 0.13426687935E+02 0.14106516205E+02 0.14883821727E+02 0.15586080433E+02 0.16069223804E+02
 0.12657518739E+02 0.12591036509E+02 0.12407499957E+02 0.12162035025E+02 0.11954409654E+02
 0.11917310412E+02 0.12208826062E+02 0.13021044233E+02 0.14552375935E+02 0.16885346748E+02
 0.19884271636E+02 0.25327578166E+02 0.36378085406E+02 0.52929534214E+02 0.71297538600E+02
 0.85785369887E+02 0.91293909816E+02 0.85785369887E+02 0.71297538600E+02 0.52929534214E+02
 0.36378085406E+02 0.25327578166E+02 0.19884271636E+02 0.16885346748E+02 0.14552375935E+02
 0.13021044233E+02 0.12208826062E+02 0.11917310412E+02 0.11954409654E+02 0.12162035025E+02
 0.12407499957E+02 0.12591036509E+02 0.10379009485E+02 0.10391009236E+02 0.10422532751E+02
 0.10488734764E+02 0.10663636188E+02 0.11078793900E+02 0.11917310412E+02 0.13426687935E+02
 0.15847124901E+02 0.19178415442E+02 0.25327578166E+02 0.40256344549E+02 0.66814496468E+02
 0.10235632723E+03 0.13920086861E+03 0.16718789190E+03 0.17765296193E+03 0.16718789190E+03
 0.13920086861E+03 0.10235632723E+03 0.66814496468E+02 0.40256344549E+02 0.25327578166E+02
 0.19178415442E+02 0.15847124901E+02 0.13426687935E+02 0.11917310412E+02 0.11078793900E+02
 0.10663636188E+02 0.10488734764E+02 0.10422532751E+02 0.10391009236E+02 0.90629463492E+01
 0.91231117401E+01 0.92809663632E+01 0.95245948089E+01 0.99308264380E+01 0.10663636188E+02
 0.11954409654E+02 0.14106516205E+02 0.17352812140E+02 0.22423301510E+02 0.36378085406E+02
 0.66814496468E+02 0.11537140688E+03 0.17621548541E+03 0.23697076206E+03 0.28221130394E+03
 0.29898435052E+03 0.28221130394E+03 0.23697076206E+03 0.17621548541E+03 0.11537140688E+03
 0.66814496468E+02 0.36378085406E+02 0.22423301510E+02 0.17352812140E+02 0.14106516205E+02
 0.11954409654E+02 0.10663636188E+02 0.99308264380E+01 0.95245948089E+01 0.92809663632E+01
 0.91231117401E+01 0.83473957135E+01 0.84335695961E+01 0.86548560626E+01 0.89850259108E+01
 0.95245948089E+01 0.10488734764E+02 0.12162035025E+02 0.14883821727E+02 0.18846285934E+02
 0.27782163205E+02 0.52929534214E+02 0.10235632723E+03 0.17621548541E+03 0.26539712567E+03
 0.35269802059E+03 0.41707789016E+03 0.44085577483E+03 0.41707789016E+03 0.35269802059E+03
 0.26539712567E+03 0.17621548541E+03 0.10235632723E+03 0.52929534214E+02 0.27782163205E+02
 0.18846285934E+02 0.14883821727E+02 0.12162035025E+02 0.10488734764E+02 0.95245948089E+01
 0.89850259108E+01 0.86548560626E+01 0.84335695961E+01 0.79202410978E+01 0.80219848995E+01
 0.82782605734E+01 0.86548560626E+01 0.92809663632E+01 0.10422532751E+02 0.12407499957E+02
 0.15586080433E+02 0.20400798876E+02 0.34444684133E+02 0.71297538600E+02 0.13920086861E+03
 0.23697076206E+03 0.35269802059E+03 0.46489958169E+03 0.54731392342E+03 0.57771387584E+03
 0.54731392342E+03 0.46489958169E+03 0.35269802059E+03 0.23697076206E+03 0.13920086861E+03
 0.71297538600E+02 0.34444684133E+02 0.20400798876E+02 0.15586080433E+02 0.12407499957E+02
 0.10422532751E+02 0.92809663632E+01 0.86548560626E+01 0.82782605734E+01 0.80219848995E+01
 0.76258669484E+01 0.77392915257E+01 0.80219848995E+01 0.84335695961E+01 0.91231117401E+01
 0.10391009236E+02 0.12591036509E+02 0.16069223804E+02 0.21766314562E+02 0.40077166560E+02
 0.85785369887E+02 0.16718789190E+03 0.28221130394E+03 0.41707789016E+03 0.54731392342E+03
 0.64285835920E+03 0.67809499056E+03 0.64285835920E+03 0.54731392342E+03 0.41707789016E+03
 0.28221130394E+03 0.16718789190E+03 0.85785369887E+02 0.40077166560E+02 0.21766314562E+02
 0.16069223804E+02 0.12591036509E+02 0.10391009236E+02 0.91231117401E+01 0.84335695961E+01
 0.80219848995E+01 0.77392915257E+01 0.75074305416E+01 0.76258669484E+01 0.79202410978E+01
 0.83473957135E+01 0.90629463492E+01 0.10379009485E+02 0.12657518739E+02 0.16240692471E+02
 0.22323875436E+02 0.42287581342E+02 0.91293909816E+02 0.17765296193E+03 0.29898435052E+03
 0.44085577483E+03 0.57771387584E+03 0.67809499056E+03 0.71511659411E+03 0.67809499056E+03
 0.57771387584E+03 0.44085577483E+03 0.29898435052E+03 0.17765296193E+03 0.91293909816E+02
 0.42287581342E+02 0.22323875436E+02 0.16240692471E+02 0.12657518739E+02 0.10379009485E+02
 0.90629463492E+01 0.83473957135E+01 0.79202410978E+01 0.76258669484E+01 0.76258669484E+01
 0.77392915257E+01 0.80219848995E+01 0.84335695961E+01 0.91231117401E+01 0.10391009236E+02
 0.12591036509E+02 0.16069223804E+02 0.21766314562E+02 0.40077166560E+02 0.85785369887E+02
 0.16718789190E+03 0.28221130394E+03 0.41707789016E+03 0.54731392342E+03 0.64285835920E+03
 0.67809499056E+03 0.64285835920E+03 0.54731392342E+03 0.41707789016E+03 0.28221130394E+03
 0.16718789190E+03 0.85785369887E+02 0.40077166560E+02 0.21766314562E+02 0.16069223804E+02
 0.12591036509E+02 0.10391009236E+02 0.91231117401E+01 0.84335695961E+01 0.80219848995E+01
 0.77392915257E+01 0.79202410978E+01 0.80219848995E+01 0.82782605734E+01 0.86548560626E+01
 0.92809663632E+01 0.10422532751E+02 0.12407499957E+02 0.15586080433E+02 0.20400798876E+02
 0.34444684133E+02 0.71297538600E+02 0.13920086861E+03 0.23697076206E+03 0.35269802059E+03
 0.46489958169E+03 0.54731392342E+03 0.57771387584E+03 0.54731392342E+03 0.46489958169E+03
 0.35269802059E+03 0.23697076206E+03 0.13920086861E+03 0.71297538600E+02 0.34444684133E+02
 0.20400798876E+02 0.15586080433E+02 0.12407499957E+02 0.10422532751E+02 0.92809663632E+01
 0.86548560626E+01 0.82782605734E+01 0.80219848995E+01 0.83473957135E+01 0.84335695961E+01
 0.86548560626E+01 0.89850259108E+01 0.95245948089E+01 0.10488734764E+02 0.12162035025E+02
 0.14883821727E+02 0.18846285934E+02 0.27782163205E+02 0.52929534214E+02 0.10235632723E+03
 0.17621548541E+03 0.26539712567E+03 0.35269802059E+03 0.41707789016E+03 0.44085577483E+03
 0.41707789016E+03 0.35269802059E+03 0.26539712567E+03 0.17621548541E+03 0.10235632723E+03
 0.52929534214E+02 0.27782163205E+02 0.18846285934E+02 0.14883821727E+02 0.12162035025E+02
 0.10488734764E+02 0.95245948089E+01 0.89850259108E+01 0.86548560626E+01 0.84335695961E+01
 0.90629463492E+01 0.91231117401E+01 0.92809663632E+01 0.95245948089E+01 0.99308264380E+01
 0.10663636188E+02 0.11954409654E+02 0.14106516205E+02 0.17352812140E+02 0.22423301510E+02
 0.36378085406E+02 0.66814496468E+02 0.11537140688E+03 0.17621548541E+03 0.23697076206E+03
 0.28221130394E+03 0.29898435052E+03 0.28221130394E+03 0.23697076206E+03 0.17621548541E+03
 0.11537140688E+03 0.66814496468E+02 0.36378085406E+02 0.22423301510E+02 0.17352812140E+02
 0.14106516205E+02 0.11954409654E+02 0.10663636188E+02 0.99308264380E+01 0.95245948089E+01
 0.92809663632E+01 0.91231117401E+01 0.10379009485E+02 0.10391009236E+02 0.10422532751E+02
 0.10488734764E+02 0.10663636188E+02 0.11078793900E+02 0.11917310412E+02 0.13426687935E+02
 0.15847124901E+02 0.19178415442E+02 0.25327578166E+02 0.40256344549E+02 0.66814496468E+02
 0.10235632723E+03 0.13920086861E+03 0.16718789190E+03 0.17765296193E+03 0.16718789190E+03
 0.13920086861E+03 0.10235632723E+03 0.66814496468E+02 0.40256344549E+02 0.25327578166E+02
 0.19178415442E+02 0.15847124901E+02 0.13426687935E+02 0.11917310412E+02 0.11078793900E+02
 0.10663636188E+02 0.10488734764E+02 0.10422532751E+02 0.10391009236E+02 0.12657518739E+02
 0.12591036509E+02 0.12407499957E+02 0.12162035025E+02 0.11954409654E+02 0.11917310412E+02
 0.12208826062E+02 0.13021044233E+02 0.14552375935E+02 0.16885346748E+02 0.19884271636E+02
 0.25327578166E+02 0.36378085406E+02 0.52929534214E+02 0.71297538600E+02 0.85785369887E+02
 0.91293909816E+02 0.85785369887E+02 0.71297538600E+02 0.52929534214E+02 0.36378085406E+02
 0.25327578166E+02 0.19884271636E+02 0.16885346748E+02 0.14552375935E+02 0.13021044233E+02
 0.12208826062E+02 0.11917310412E+02 0.11954409654E+02 0.12162035025E+02 0.12407499957E+02
 0.12591036509E+02 0.16240692471E+02 0.16069223804E+02 0.15586080433E+02 0.14883821727E+02
 0.14106516205E+02 0.13426687935E+02 0.13021044233E+02 0.13057999542E+02 0.13683845070E+02
 0.14978709984E+02 0.16885346748E+02 0.19178415442E+02 0.22423301510E+02 0.27782163205E+02
 0.34444684133E+02 0.40077166560E+02 0.42287581342E+02 0.40077166560E+02 0.34444684133E+02
 0.27782163205E+02 0.22423301510E+02 0.19178415442E+02 0.16885346748E+02 0.14978709984E+02
 0.13683845070E+02 0.13057999542E+02 0.13021044233E+02 0.13426687935E+02 0.14106516205E+02
 0.14883821727E+02 0.15586080433E+02 0.16069223804E+02 0.22323875436E+02 0.21766314562E+02
 0.20400798876E+02 0.18846285934E+02 0.17352812140E+02 0.15847124901E+02 0.14552375935E+02
 0.13683845070E+02 0.13378965068E+02 0.13683845070E+02 0.14552375935E+02 0.15847124901E+02
 0.17352812140E+02 0.18846285934E+02 0.20400798876E+02 0.21766314562E+02 0.22323875436E+02
 0.21766314562E+02 0.20400798876E+02 0.18846285934E+02 0.17352812140E+02 0.15847124901E+02
 0.14552375935E+02 0.13683845070E+02 0.13378965068E+02 0.13683845070E+02 0.14552375935E+02
 0.15847124901E+02 0.17352812140E+02 0.18846285934E+02 0.20400798876E+02 0.21766314562E+02
 0.42287581342E+02 0.40077166560E+02 0.34444684133E+02 0.27782163205E+02 0.22423301510E+02
 0.19178415442E+02 0.16885346748E+02 0.14978709984E+02 0.13683845070E+02 0.13057999542E+02
 0.13021044233E+02 0.13426687935E+02 0.14106516205E+02 0.14883821727E+02 0.15586080433E+02
 0.16069223804E+02 0.16240692471E+02 0.16069223804E+02 0.15586080433E+02 0.14883821727E+02
 0.14106516205E+02 0.13426687935E+02 0.13021044233E+02 0.13057999542E+02 0.13683845070E+02
 0.14978709984E+02 0.16885346748E+02 0.19178415442E+02 0.22423301510E+02 0.27782163205E+02
 0.34444684133E+02 0.40077166560E+02 0.91293909816E+02 0.85785369887E+02 0.71297538600E+02
 0.52929534214E+02 0.36378085406E+02 0.25327578166E+02 0.19884271636E+02 0.16885346748E+02
 0.14552375935E+02 0.13021044233E+02 0.12208826062E+02 0.11917310412E+02 0.11954409654E+02
 0.12162035025E+02 0.12407499957E+02 0.12591036509E+02 0.12657518739E+02 0.12591036509E+02
 0.12407499957E+02 0.12162035025E+02 0.11954409654E+02 0.11917310412E+02 0.12208826062E+02
 0.13021044233E+02 0.14552375935E+02 0.16885346748E+02 0.19884271636E+02 0.25327578166E+02
 0.36378085406E+02 0.52929534214E+02 0.71297538600E+02 0.85785369887E+02 0.17765296193E+03
 0.16718789190E+03 0.13920086861E+03 0.10235632723E+03 0.66814496468E+02 0.40256344549E+02
 0.25327578166E+02 0.19178415442E+02 0.15847124901E+02 0.13426687935E+02 0.11917310412E+02
 0.11078793900E+02 0.10663636188E+02 0.10488734764E+02 0.10422532751E+02 0.10391009236E+02
 0.10379009485E+02 0.10391009236E+02 0.10422532751E+02 0.10488734764E+02 0.10663636188E+02
 0.11078793900E+02 0.11917310412E+02 0.13426687935E+02 0.15847124901E+02 0.19178415442E+02
 0.25327578166E+02 0.40256344549E+02 0.66814496468E+02 0.10235632723E+03 0.13920086861E+03
 0.16718789190E+03 0.29898435052E+03 0.28221130394E+03 0.23697076206E+03 0.17621548541E+03
 0.11537140688E+03 0.66814496468E+02 0.36378085406E+02 0.22423301510E+02 0.17352812140E+02
 0.14106516205E+02 0.11954409654E+02 0.10663636188E+02 0.99308264380E+01 0.95245948089E+01
 0.92809663632E+01 0.91231117401E+01 0.90629463492E+01 0.91231117401E+01 0.92809663632E+01
 0.95245948089E+01 0.99308264380E+01 0.10663636188E+02 0.11954409654E+02 0.14106516205E+02
 0.17352812140E+02 0.22423301510E+02 0.36378085406E+02 0.66814496468E+02 0.11537140688E+03
 0.17621548541E+03 0.23697076206E+03 0.28221130394E+03 0.44085577483E+03 0.41707789016E+03
 0.35269802059E+03 0.26539712567E+03 0.17621548541E+03 0.10235632723E+03 0.52929534214E+02
 0.27782163205E+02 0.18846285934E+02 0.14883821727E+02 0.12162035025E+02 0.10488734764E+02
 0.95245948089E+01 0.89850259108E+01 0.86548560626E+01 0.84335695961E+01 0.83473957135E+01
 0.84335695961E+01 0.86548560626E+01 0.89850259108E+01 0.95245948089E+01 0.10488734764E+02
 0.12162035025E+02 0.14883821727E+02 0.18846285934E+02 0.27782163205E+02 0.52929534214E+02
 0.10235632723E+03 0.17621548541E+03 0.26539712567E+03 0.35269802059E+03 0.41707789016E+03
 0.57771387584E+03 0.54731392342E+03 0.46489958169E+03 0.35269802059E+03 0.23697076206E+03
 0.13920086861E+03 0.71297538600E+02 0.34444684133E+02 0.20400798876E+02 0.15586080433E+02
 0.12407499957E+02 0.10422532751E+02 0.92809663632E+01 0.86548560626E+01 0.82782605734E+01
 0.80219848995E+01 0.79202410978E+01 0.80219848995E+01 0.82782605734E+01 0.86548560626E+01
 0.92809663632E+01 0.10422532751E+02 0.12407499957E+02 0.15586080433E+02 0.20400798876E+02
 0.34444684133E+02 0.71297538600E+02 0.13920086861E+03 0.23697076206E+03 0.35269802059E+03
 0.46489958169E+03 0.54731392342E+03 0.67809499056E+03 0.64285835920E+03 0.54731392342E+03
 0.41707789016E+03 0.28221130394E+03 0.16718789190E+03 0.85785369887E+02 0.40077166560E+02
 0.21766314562E+02 0.16069223804E+02 0.12591036509E+02 0.10391009236E+02 0.91231117401E+01
 0.84335695961E+01 0.80219848995E+01 0.77392915257E+01 0.76258669484E+01 0.77392915257E+01
 0.80219848995E+01 0.84335695961E+01 0.91231117401E+01 0.10391009236E+02 0.12591036509E+02
 0.16069223804E+02 0.21766314562E+02 0.40077166560E+02 0.85785369887E+02 0.16718789190E+03
 0.28221130394E+03 0.41707789016E+03 0.54731392342E+03 0.64285835920E+03 0.67809499056E+03
 0.64285835920E+03 0.54731392342E+03 0.41707789016E+03 0.28221130394E+03 0.16718789190E+03
 0.85785369887E+02 0.40077166560E+02 0.21766314562E+02 0.16069223804E+02 0.12591036509E+02
 0.10391009236E+02 0.91231117401E+01 0.84335695961E+01 0.80219848995E+01 0.77392915257E+01
 0.76258669484E+01 0.77392915257E+01 0.80219848995E+01 0.84335695961E+01 0.91231117401E+01
 0.10391009236E+02 0.12591036509E+02 0.16069223804E+02 0.21766314562E+02 0.40077166560E+02
 0.85785369887E+02 0.16718789190E+03 0.28221130394E+03 0.41707789016E+03 0.54731392342E+03
 0.64285835920E+03 0.64285835920E+03 0.60932102925E+03 0.51838513389E+03 0.39446805268E+03
 0.26629507301E+03 0.15730067991E+03 0.80623761947E+02 0.38036953368E+02 0.21260481149E+02
 0.15900367260E+02 0.12525542428E+02 0.10401789644E+02 0.91804459875E+01 0.85159882053E+01
 0.81193927545E+01 0.78479125663E+01 0.77392915257E+01 0.78479125663E+01 0.81193927545E+01
 0.85159882053E+01 0.91804459875E+01 0.10401789644E+02 0.12525542428E+02 0.15900367260E+02
 0.21260481149E+02 0.38036953368E+02 0.80623761947E+02 0.15730067991E+03 0.26629507301E+03
 0.39446805268E+03 0.51838513389E+03 0.60932102925E+03 0.54731392342E+03 0.51838513389E+03
 0.43996986160E+03 0.33327228071E+03 0.22339386953E+03 0.13088782966E+03 0.67072076375E+02
 0.32852330244E+02 0.20018689008E+02 0.15425528924E+02 0.12345262739E+02 0.10430527193E+02
 0.93313979304E+01 0.87282502627E+01 0.83654512186E+01 0.81193927545E+01 0.80219848995E+01
 0.81193927545E+01 0.83654512186E+01 0.87282502627E+01 0.93313979304E+01 0.10430527193E+02
 0.12345262739E+02 0.15425528924E+02 0.20018689008E+02 0.32852330244E+02 0.67072076375E+02
 0.13088782966E+03 0.22339386953E+03 0.33327228071E+03 0.43996986160E+03 0.51838513389E+03
 0.41707789016E+03 0.39446805268E+03 0.33327228071E+03 0.25037146039E+03 0.16587356144E+03
 0.96203412540E+02 0.49958517573E+02 0.26754063039E+02 0.18581183753E+02 0.14737528453E+02
 0.12104935584E+02 0.10492817313E+02 0.95653705008E+01 0.90460254115E+01 0.87282502627E+01
 0.85159882053E+01 0.84335695961E+01 0.85159882053E+01 0.87282502627E+01 0.90460254115E+01
 0.95653705008E+01 0.10492817313E+02 0.12104935584E+02 0.14737528453E+02 0.18581183753E+02
 0.26754063039E+02 0.49958517573E+02 0.96203412540E+02 0.16587356144E+03 0.25037146039E+03
 0.33327228071E+03 0.39446805268E+03 0.28221130394E+03 0.26629507301E+03 0.22339386953E+03
 0.16587356144E+03 0.10845499893E+03 0.62903418135E+02 0.34645940572E+02 0.21882251815E+02
 0.17129211245E+02 0.13978478297E+02 0.11901500146E+02 0.10659813488E+02 0.99558019606E+01
 0.95653705008E+01 0.93313979304E+01 0.91804459875E+01 0.91231117401E+01 0.91804459875E+01
 0.93313979304E+01 0.95653705008E+01 0.99558019606E+01 0.10659813488E+02 0.11901500146E+02
 0.13978478297E+02 0.17129211245E+02 0.21882251815E+02 0.34645940572E+02 0.62903418135E+02
 0.10845499893E+03 0.16587356144E+03 0.22339386953E+03 0.26629507301E+03 0.16718789190E+03
 0.15730067991E+03 0.13088782966E+03 0.96203412540E+02 0.62903418135E+02 0.38225562255E+02
 0.24531995017E+02 0.18894454003E+02 0.15657101280E+02 0.13316119490E+02 0.11862632962E+02
 0.11057530331E+02 0.10659813488E+02 0.10492817313E+02 0.10430527193E+02 0.10401789644E+02
 0.10391009236E+02 0.10401789644E+02 0.10430527193E+02 0.10492817313E+02 0.10659813488E+02
 0.11057530331E+02 0.11862632962E+02 0.13316119490E+02 0.15657101280E+02 0.18894454003E+02
 0.24531995017E+02 0.38225562255E+02 0.62903418135E+02 0.96203412540E+02 0.13088782966E+03
 0.15730067991E+03 0.85785369887E+02 0.80623761947E+02 0.67072076375E+02 0.49958517573E+02
 0.34645940572E+02 0.24531995017E+02 0.19561230973E+02 0.16659012571E+02 0.14397416245E+02
 0.12920558202E+02 0.12140416210E+02 0.11862632962E+02 0.11901500146E+02 0.12104935584E+02
 0.12345262739E+02 0.12525542428E+02 0.12591036509E+02 0.12525542428E+02 0.12345262739E+02
 0.12104935584E+02 0.11901500146E+02 0.11862632962E+02 0.12140416210E+02 0.12920558202E+02
 0.14397416245E+02 0.16659012571E+02 0.19561230973E+02 0.24531995017E+02 0.34645940572E+02
 0.49958517573E+02 0.67072076375E+02 0.80623761947E+02 0.40077166560E+02 0.38036953368E+02
 0.32852330244E+02 0.26754063039E+02 0.21882251815E+02 0.18894454003E+02 0.16659012571E+02
 0.14806835859E+02 0.13555342058E+02 0.12953276437E+02 0.12920558202E+02 0.13316119490E+02
 0.13978478297E+02 0.14737528453E+02 0.15425528924E+02 0.15900367260E+02 0.16069223804E+02
 0.15900367260E+02 0.15425528924E+02 0.14737528453E+02 0.13978478297E+02 0.13316119490E+02
 0.12920558202E+02 0.12953276437E+02 0.13555342058E+02 0.14806835859E+02 0.16659012571E+02
 0.18894454003E+02 0.21882251815E+02 0.26754063039E+02 0.32852330244E+02 0.38036953368E+02
 0.21766314562E+02 0.21260481149E+02 0.20018689008E+02 0.18581183753E+02 0.17129211245E+02
 0.15657101280E+02 0.14397416245E+02 0.13555342058E+02 0.13260283766E+02 0.13555342058E+02
 0.14397416245E+02 0.15657101280E+02 0.17129211245E+02 0.18581183753E+02 0.20018689008E+02
 0.21260481149E+02 0.21766314562E+02 0.21260481149E+02 0.20018689008E+02 0.18581183753E+02
 0.17129211245E+02 0.15657101280E+02 0.14397416245E+02 0.13555342058E+02 0.13260283766E+02
 0.13555342058E+02 0.14397416245E+02 0.15657101280E+02 0.17129211245E+02 0.18581183753E+02
 0.20018689008E+02 0.21260481149E+02 0.16069223804E+02 0.15900367260E+02 0.15425528924E+02
 0.14737528453E+02 0.13978478297E+02 0.13316119490E+02 0.12920558202E+02 0.12953276437E+02
 0.13555342058E+02 0.14806835859E+02 0.16659012571E+02 0.18894454003E+02 0.21882251815E+02
 0.26754063039E+02 0.32852330244E+02 0.38036953368E+02 0.40077166560E+02 0.38036953368E+02
 0.32852330244E+02 0.26754063039E+02 0.21882251815E+02 0.18894454003E+02 0.16659012571E+02
 0.14806835859E+02 0.13555342058E+02 0.12953276437E+02 0.12920558202E+02 0.13316119490E+02
 0.13978478297E+02 0.14737528453E+02 0.15425528924E+02 0.15900367260E+02 0.12591036509E+02
 0.12525542428E+02 0.12345262739E+02 0.12104935584E+02 0.11901500146E+02 0.11862632962E+02
 0.12140416210E+02 0.12920558202E+02 0.14397416245E+02 0.16659012571E+02 0.19561230973E+02
 0.24531995017E+02 0.34645940572E+02 0.49958517573E+02 0.67072076375E+02 0.80623761947E+02
 0.85785369887E+02 0.80623761947E+02 0.67072076375E+02 0.49958517573E+02 0.34645940572E+02
 0.24531995017E+02 0.19561230973E+02 0.16659012571E+02 0.14397416245E+02 0.12920558202E+02
 0.12140416210E+02 0.11862632962E+02 0.11901500146E+02 0.12104935584E+02 0.12345262739E+02
 0.12525542428E+02 0.10391009236E+02 0.10401789644E+02 0.10430527193E+02 0.10492817313E+02
 0.10659813488E+02 0.11057530331E+02 0.11862632962E+02 0.13316119490E+02 0.15657101280E+02
 0.18894454003E+02 0.24531995017E+02 0.38225562255E+02 0.62903418135E+02 0.96203412540E+02
 0.13088782966E+03 0.15730067991E+03 0.16718789190E+03 0.15730067991E+03 0.13088782966E+03
 0.96203412540E+02 0.62903418135E+02 0.38225562255E+02 0.24531995017E+02 0.18894454003E+02
 0.15657101280E+02 0.13316119490E+02 0.11862632962E+02 0.11057530331E+02 0.10659813488E+02
 0.10492817313E+02 0.10430527193E+02 0.10401789644E+02 0.91231117401E+01 0.91804459875E+01
 0.93313979304E+01 0.95653705008E+01 0.99558019606E+01 0.10659813488E+02 0.11901500146E+02
 0.13978478297E+02 0.17129211245E+02 0.21882251815E+02 0.34645940572E+02 0.62903418135E+02
 0.10845499893E+03 0.16587356144E+03 0.22339386953E+03 0.26629507301E+03 0.28221130394E+03
 0.26629507301E+03 0.22339386953E+03 0.16587356144E+03 0.10845499893E+03 0.62903418135E+02
 0.34645940572E+02 0.21882251815E+02 0.17129211245E+02 0.13978478297E+02 0.11901500146E+02
 0.10659813488E+02 0.99558019606E+01 0.95653705008E+01 0.93313979304E+01 0.91804459875E+01
 0.84335695961E+01 0.85159882053E+01 0.87282502627E+01 0.90460254115E+01 0.95653705008E+01
 0.10492817313E+02 0.12104935584E+02 0.14737528453E+02 0.18581183753E+02 0.26754063039E+02
 0.49958517573E+02 0.96203412540E+02 0.16587356144E+03 0.25037146039E+03 0.33327228071E+03
 0.39446805268E+03 0.41707789016E+03 0.39446805268E+03 0.33327228071E+03 0.25037146039E+03
 0.16587356144E+03 0.96203412540E+02 0.49958517573E+02 0.26754063039E+02 0.18581183753E+02
 0.14737528453E+02 0.12104935584E+02 0.10492817313E+02 0.95653705008E+01 0.90460254115E+01
 0.87282502627E+01 0.85159882053E+01 0.80219848995E+01 0.81193927545E+01 0.83654512186E+01
 0.87282502627E+01 0.93313979304E+01 0.10430527193E+02 0.12345262739E+02 0.15425528924E+02
 0.20018689008E+02 0.32852330244E+02 0.67072076375E+02 0.13088782966E+03 0.22339386953E+03
 0.33327228071E+03 0.43996986160E+03 0.51838513389E+03 0.54731392342E+03 0.51838513389E+03
 0.43996986160E+03 0.33327228071E+03 0.22339386953E+03 0.13088782966E+03 0.67072076375E+02
 0.32852330244E+02 0.20018689008E+02 0.15425528924E+02 0.12345262739E+02 0.10430527193E+02
 0.93313979304E+01 0.87282502627E+01 0.83654512186E+01 0.81193927545E+01 0.77392915257E+01
 0.78479125663E+01 0.81193927545E+01 0.85159882053E+01 0.91804459875E+01 0.10401789644E+02
 0.12525542428E+02 0.15900367260E+02 0.21260481149E+02 0.38036953368E+02 0.80623761947E+02
 0.15730067991E+03 0.26629507301E+03 0.39446805268E+03 0.51838513389E+03 0.60932102925E+03
 0.64285835920E+03 0.60932102925E+03 0.51838513389E+03 0.39446805268E+03 0.26629507301E+03
 0.15730067991E+03 0.80623761947E+02 0.38036953368E+02 0.21260481149E+02 0.15900367260E+02
 0.12525542428E+02 0.10401789644E+02 0.91804459875E+01 0.85159882053E+01 0.81193927545E+01
 0.78479125663E+01 0.76258669484E+01 0.77392915257E+01 0.80219848995E+01 0.84335695961E+01
 0.91231117401E+01 0.10391009236E+02 0.12591036509E+02 0.16069223804E+02 0.21766314562E+02
 0.40077166560E+02 0.85785369887E+02 0.16718789190E+03 0.28221130394E+03 0.41707789016E+03
 0.54731392342E+03 0.64285835920E+03 0.67809499056E+03 0.64285835920E+03 0.54731392342E+03
 0.41707789016E+03 0.28221130394E+03 0.16718789190E+03 0.85785369887E+02 0.40077166560E+02
 0.21766314562E+02 0.16069223804E+02 0.12591036509E+02 0.10391009236E+02 0.91231117401E+01
 0.84335695961E+01 0.80219848995E+01 0.77392915257E+01 0.77392915257E+01 0.78479125663E+01
 0.81193927545E+01 0.85159882053E+01 0.91804459875E+01 0.10401789644E+02 0.12525542428E+02
 0.15900367260E+02 0.21260481149E+02 0.38036953368E+02 0.80623761947E+02 0.15730067991E+03
 0.26629507301E+03 0.39446805268E+03 0.51838513389E+03 0.60932102925E+03 0.64285835920E+03
 0.60932102925E+03 0.51838513389E+03 0.39446805268E+03 0.26629507301E+03 0.15730067991E+03
 0.80623761947E+02 0.38036953368E+02 0.21260481149E+02 0.15900367260E+02 0.12525542428E+02
 0.10401789644E+02 0.91804459875E+01 0.85159882053E+01 0.81193927545E+01 0.78479125663E+01
 0.80219848995E+01 0.81193927545E+01 0.83654512186E+01 0.87282502627E+01 0.93313979304E+01
 0.10430527193E+02 0.12345262739E+02 0.15425528924E+02 0.20018689008E+02 0.32852330244E+02
 0.67072076375E+02 0.13088782966E+03 0.22339386953E+03 0.33327228071E+03 0.43996986160E+03
 0.51838513389E+03 0.54731392342E+03 0.51838513389E+03 0.43996986160E+03 0.33327228071E+03
 0.22339386953E+03 0.13088782966E+03 0.67072076375E+02 0.32852330244E+02 0.20018689008E+02