unknown system                          
   1.00000000000000     
     3.752338    0.000000    0.000000
     0.000000    3.752338    0.000000
     0.000000    0.000000    3.752338
   Cu
     4
Direct
  0.000000  0.000000  0.000000
  0.500000  0.500000  0.000000
  0.500000  0.000000  0.500000
  0.000000  0.500000  0.500000
 
   32   32   32
  931.97      874.95      722.97      522.93      326.93      172.99      76.973      33.214      20.197      14.577    
  11.059      8.8212      7.5043      6.9139      6.5385      6.0751      5.8269      6.0751      6.5385      6.9139    
  7.5043      8.8212      11.059      14.577      20.197      33.214      76.973      172.99      326.93      522.93    
  722.97      874.95      874.95      821.18      677.83      489.24      304.79      160.59      71.515      31.628    
  19.825      14.370      10.979      8.8401      7.5946      7.0471      6.7122      6.2983      6.0751      6.2983    
  6.7122      7.0471      7.5946      8.8401      10.979      14.370      19.825      31.628      71.515      160.59    
  304.79      489.24      677.83      821.18      722.97      677.83      557.57      399.69      246.33      128.32    
  57.714      27.809      18.777      13.807      10.769      8.8852      7.7998      7.3192      7.0385      6.7122    
  6.5385      6.7122      7.0385      7.3192      7.7998      8.8852      10.769      13.807      18.777      27.809    
  57.714      128.32      246.33      399.69      557.57      677.83      522.93      489.24      399.69      282.94    
  171.36      88.323      41.681      23.729      17.248      13.042      10.515      8.9663      8.0540      7.6000    
  7.3192      7.0471      6.9139      7.0471      7.3192      7.6000      8.0540      8.9663      10.515      13.042    
  17.248      23.729      41.681      88.323      171.36      282.94      399.69      489.24      326.93      304.79    
  246.33      171.36      102.06      53.641      29.268      20.500      15.527      12.265      10.334      9.1611    
  8.4505      8.0540      7.7998      7.5946      7.5043      7.5946      7.7998      8.0540      8.4505      9.1611    
  10.334      12.265      15.527      20.500      29.268      53.641      102.06      171.36      246.33      304.79    
  172.99      160.59      128.32      88.323      53.641      31.968      22.444      17.541      13.921      11.647    
  10.335      9.5795      9.1611      8.9663      8.8852      8.8401      8.8212      8.8401      8.8852      8.9663    
  9.1611      9.5795      10.335      11.647      13.921      17.541      22.444      31.968      53.641      88.323    
  128.32      160.59      76.973      71.515      57.714      41.681      29.268      22.444      18.302      14.964    
  12.669      11.314      10.615      10.335      10.334      10.515      10.769      10.979      11.059      10.979    
  10.769      10.515      10.334      10.335      10.615      11.314      12.669      14.964      18.302      22.444    
  29.268      41.681      57.714      71.515      33.214      31.628      27.809      23.729      20.500      17.541    
  14.964      13.065      11.898      11.361      11.314      11.647      12.265      13.042      13.807      14.370    
  14.577      14.370      13.807      13.042      12.265      11.647      11.314      11.361      11.898      13.065    
  14.964      17.541      20.500      23.729      27.809      31.628      20.197      19.825      18.777      17.248    
  15.527      13.921      12.669      11.898      11.641      11.898      12.669      13.921      15.527      17.248    
  18.777      19.825      20.197      19.825      18.777      17.248      15.527      13.921      12.669      11.898    
  11.641      11.898      12.669      13.921      15.527      17.248      18.777      19.825      14.577      14.370    
  13.807      13.042      12.265      11.647      11.314      11.361      11.898      13.065      14.964      17.541    
  20.500      23.729      27.809      31.628      33.214      31.628      27.809      23.729      20.500      17.541    
  14.964      13.065      11.898      11.361      11.314      11.647      12.265      13.042      13.807      14.370    
  11.059      10.979      10.769      10.515      10.334      10.335      10.615      11.314      12.669      14.964    
  18.302      22.444      29.268      41.681      57.714      71.515      76.973      71.515      57.714      41.681    
  29.268      22.444      18.302      14.964      12.669      11.314      10.615      10.335      10.334      10.515    
  10.769      10.979      8.8212      8.8401      8.8852      8.9663      9.1611      9.5795      10.335      11.647    
  13.921      17.541      22.444      31.968      53.641      88.323      128.32      160.59      172.99      160.59    
  128.32      88.323      53.641      31.968      22.444      17.541      13.921      11.647      10.335      9.5795    
  9.1611      8.9663      8.8852      8.8401      7.5043      7.5946      7.7998      8.0540      8.4505      9.1611    
  10.334      12.265      15.527      20.500      29.268      53.641      102.06      171.36      246.33      304.79    
  326.93      304.79      246.33      171.36      102.06      53.641      29.268      20.500      15.527      12.265    
  10.334      9.1611      8.4505      8.0540      7.7998      7.5946      6.9139      7.0471      7.3192      7.6000    
  8.0540      8.9663      10.515      13.042      17.248      23.729      41.681      88.323      171.36      282.94    
  399.69      489.24      522.93      489.24      399.69      282.94      171.36      88.323      41.681      23.729    
  17.248      13.042      10.515      8.9663      8.0540      7.6000      7.3192      7.0471      6.5385      6.7122    
  7.0385      7.3192      7.7998      8.8852      10.769      13.807      18.777      27.809      57.714      128.32    
  246.33      399.69      557.57      677.83      722.97      677.83      557.57      399.69      246.33      128.32    
  57.714      27.809      18.777      13.807      10.769      8.8852      7.7998      7.3192      7.0385      6.7122    
  6.0751      6.2983      6.7122      7.0471      7.5946      8.8401      10.979      14.370      19.825      31.628    
  71.515      160.59      304.79      489.24      677.83      821.18      874.95      821.18      677.83      489.24    
  304.79      160.59      71.515      31.628      19.825      14.370      10.979      8.8401      7.5946      7.0471    
  6.7122      6.2983      5.8269      6.0751      6.5385      6.9139      7.5043      8.8212      11.059      14.577    
  20.197      33.214      76.973      172.99      326.93      522.93      722.97      874.95      931.97      874.95    
  722.97      522.93      326.93      172.99      76.973      33.214      20.197      14.577      11.059      8.8212    
  7.5043      6.9139      6.5385      6.0751      6.0751      6.2983      6.7122      7.0471      7.5946      8.8401    
  10.979      14.370      19.825      31.628      71.515      160.59      304.79      489.24      677.83      821.18    
  874.95      821.18      677.83      489.24      304.79      160.59      71.515      31.628      19.825      14.370    
  10.979      8.8401      7.5946      7.0471      6.7122      6.2983      6.5385      6.7122      7.0385      7.3192    
  7.7998      8.8852      10.769      13.807      18.777      27.809      57.714      128.32      246.33      399.69    
  557.57      677.83      722.97      677.83      557.57      399.69      246.33      128.32      57.714      27.809    
  18.777      13.807      10.769      8.8852      7.7998      7.3192      7.0385      6.7122      6.9139      7.0471    
  7.3192      7.6000      8.0540      8.9663      10.515      13.042      17.248      23.729      41.681      88.323    
  171.36      282.94      399.69      489.24      522.93      489.24      399.69      282.94      171.36      88.323    
  41.681      23.729      17.248      13.042      10.515      8.9663      8.0540      7.6000      7.3192      7.0471    
  7.5043      7.5946      7.7998      8.0540      8.4505      9.1611      10.334      12.265      15.527      20.500    
  29.268      53.641      102.06      171.36      246.33      304.79      326.93      304.79      246.33      171.36    
  102.06      53.641      29.268      20.500      15.527      12.265      10.334      9.1611      8.4505      8.0540    
  7.7998      7.5946      8.8212      8.8401      8.8852      8.9663      9.1611      9.5795      10.335      11.647    
  13.921      17.541      22.444      31.968      53.641      88.323      128.32      160.59      172.99      160.59    
  128.32      88.323      53.641      31.968      22.444      17.541      13.921      11.647      10.335      9.5795    
  9.1611      8.9663      8.8852      8.8401      11.059      10.979      10.769      10.515      10.334      10.335    
  10.615      11.314      12.669      14.964      18.302      22.444      29.268      41.681      57.714      71.515    
  76.973      71.515      57.714      41.681      29.268      22.444      18.302      14.964      12.669      11.314    
  10.615      10.335      10.334      10.515      10.769      10.979      14.577      14.370      13.807      13.042    
  12.265      11.647      11.314      11.361      11.898      13.065      14.964      17.541      20.500      23.729    
  27.809      31.628      33.214      31.628      27.809      23.729      20.500      17.541      14.964      13.065    
  11.898      11.361      11.314      11.647      12.265      13.042      13.807      14.370      20.197      19.825    
  18.777      17.248      15.527      13.921      12.669      11.898      11.641      11.898      12.669      13.921    
  15.527      17.248      18.777      19.825      20.197      19.825      18.777      17.248      15.527      13.921    
  12.669      11.898      11.641      11.898      12.669      13.921      15.527      17.248      18.777      19.825    
  33.214      31.628      27.809      23.729      20.500      17.541      14.964      13.065      11.898      11.361    
  11.314      11.647      12.265      13.042      13.807      14.370      14.577      14.370      13.807      13.042    
  12.265      11.647      11.314      11.361      11.898      13.065      14.964      17.541      20.500      23.729    
  27.809      31.628      76.973      71.515      57.714      41.681      29.268      22.444      18.302      14.964    
  12.669      11.314      10.615      10.335      10.334      10.515      10.769      10.979      11.059      10.979    
  10.769      10.515      10.334      10.335      10.615      11.314      12.669      14.964      18.302      22.444    
  29.268      41.681      57.714      71.515      172.99      160.59      128.32      88.323      53.641      31.968    
  22.444      17.541      13.921      11.647      10.335      9.5795      9.1611      8.9663      8.8852      8.8401    
  8.8212      8.8401      8.8852      8.9663      9.1611      9.5795      10.335      11.647      13.921      17.541    
  22.444      31.968      53.641      88.323      128.32      160.59      326.93      304.79      246.33      171.36    
  102.06      53.641      29.268      20.500      15.527      12.265      10.334      9.1611      8.4505      8.0540    
  7.7998      7.5946      7.5043      7.5946      7.7998      8.0540      8.4505      9.1611      10.334      12.265    
  15.527      20.500      29.268      53.641      102.06      171.36      246.33      304.79      522.93      489.24    
  399.69      282.94      171.36      88.323      41.681      23.729      17.248      13.042      10.515      8.9663    
  8.0540      7.6000      7.3192      7.0471      6.9139      7.0471      7.3192      7.6000      8.0540      8.9663    
  10.515      13.042      17.248      23.729      41.681      88.323      171.36      282.94      399.69      489.24    
  722.97      677.83      557.57      399.69      246.33      128.32      57.714      27.809      18.777      13.807    
  10.769      8.8852      7.7998      7.3192      7.0385      6.7122      6.5385      6.7122      7.0385      7.3192    
  7.7998      8.8852      10.769      13.807      18.777      27.809      57.714      128.32      246.33      399.69    
  557.57      677.83      874.95      821.18      677.83      489.24      304.79      160.59      71.515      31.628    
  19.825      14.370      10.979      8.8401      7.5946      7.0471      6.7122      6.2983      6.0751      6.2983    
  6.7122      7.0471      7.5946      8.8401      10.979      14.370      19.825      31.628      71.515      160.59    
  304.79      489.24      677.83      821.18      874.95      821.18      677.83      489.24      304.79      160.59    
  71.515      31.628      19.825      14.370      10.979      8.8401      7.5946      7.0471      6.7122      6.2983    
  6.0751      6.2983      6.7122      7.0471      7.5946      8.8401      10.979      14.370      19.825      31.628    
  71.515      160.59      304.79      489.24      677.83      821.18      821.18      770.46      635.27      457.52    
  284.01      149.04      66.502      30.206      19.460      14.169      10.900      8.8546      7.6753      7.1663    
  6.8676      6.4985      6.2983      6.4985      6.8676      7.1663      7.6753      8.8546      10.900      14.169    
  19.460      30.206      66.502      149.04      284.01      457.52      635.27      770.46      677.83      635.27    
  521.91      373.24      229.21      119.04      53.868      26.788      18.436      13.623      10.694      8.8907    
  7.8598      7.4101      7.1582      6.8676      6.7122      6.8676      7.1582      7.4101      7.8598      8.8907    
  10.694      13.623      18.436      26.788      53.868      119.04      229.21      373.24      521.91      635.27    
  489.24      457.52      373.24      263.56      159.13      82.010      39.289      23.126      16.947      12.882    
  10.447      8.9628      8.0940      7.6664      7.4101      7.1663      7.0471      7.1663      7.4101      7.6664    
  8.0940      8.9628      10.447      12.882      16.947      23.126      39.289      82.010      159.13      263.56    
  373.24      457.52      304.79      284.01      229.21      159.13      94.717      50.172      28.118      20.099    
  15.279      12.132      10.273      9.1474      8.4690      8.0940      7.8598      7.6753      7.5946      7.6753    
  7.8598      8.0940      8.4690      9.1474      10.273      12.132      15.279      20.099      28.118      50.172    
  94.717      159.13      229.21      284.01      160.59      149.04      119.04      82.010      50.172      30.546    
  21.959      17.222      13.728      11.539      10.276      9.5485      9.1474      8.9628      8.8907      8.8546    
  8.8401      8.8546      8.8907      8.9628      9.1474      9.5485      10.276      11.539      13.728      17.222    
  21.959      30.546      50.172      82.010      119.04      149.04      71.515      66.502      53.868      39.289    
  28.118      21.959      17.958      14.733      12.525      11.221      10.547      10.276      10.273      10.447    
  10.694      10.900      10.979      10.900      10.694      10.447      10.273      10.276      10.547      11.221    
  12.525      14.733      17.958      21.959      28.118      39.289      53.868      66.502      31.628      30.206    
  26.788      23.126      20.099      17.222      14.733      12.906      11.786      11.269      11.221      11.539    
  12.132      12.882      13.623      14.169      14.370      14.169      13.623      12.882      12.132      11.539    
  11.221      11.269      11.786      12.906      14.733      17.222      20.099      23.126      26.788      30.206    
  19.825      19.460      18.436      16.947      15.279      13.728      12.525      11.786      11.540      11.786    
  12.525      13.728      15.279      16.947      18.436      19.460      19.825      19.460      18.436      16.947    
  15.279      13.728      12.525      11.786      11.540      11.786      12.525      13.728      15.279      16.947    
  18.436      19.460      14.370      14.169      13.623      12.882      12.132      11.539      11.221      11.269    
  11.786      12.906      14.733      17.222      20.099      23.126      26.788      30.206      31.628      30.206    
  26.788      23.126      20.099      17.222      14.733      12.906      11.786      11.269      11.221      11.539    
  12.132      12.882      13.623      14.169      10.979      10.900      10.694      10.447      10.273      10.276    
  10.547      11.221      12.525      14.733      17.958      21.959      28.118      39.289      53.868      66.502    
  71.515      66.502      53.868      39.289      28.118      21.959      17.958      14.733      12.525      11.221    
  10.547      10.276      10.273      10.447      10.694      10.900      8.8401      8.8546      8.8907      8.9628    
  9.1474      9.5485      10.276      11.539      13.728      17.222      21.959      30.546      50.172      82.010    
  119.04      149.04      160.59      149.04      119.04      82.010      50.172      30.546      21.959      17.222    
  13.728      11.539      10.276      9.5485      9.1474      8.9628      8.8907      8.8546      7.5946      7.6753    
  7.8598      8.0940      8.4690      9.1474      10.273      12.132      15.279      20.099      28.118      50.172    
  94.717      159.13      229.21      284.01      304.79      284.01      229.21      159.13      94.717      50.172    
  28.118      20.099      15.279      12.132      10.273      9.1474      8.4690      8.0940      7.8598      7.6753    
  7.0471      7.1663      7.4101      7.6664      8.0940      8.9628      10.447      12.882      16.947      23.126    
  39.289      82.010      159.13      263.56      373.24      457.52      489.24      457.52      373.24      263.56    
  159.13      82.010      39.289      23.126      16.947      12.882      10.447      8.9628      8.0940      7.6664    
  7.4101      7.1663      6.7122      6.8676      7.1582      7.4101      7.8598      8.8907      10.694      13.623    
  18.436      26.788      53.868      119.04      229.21      373.24      521.91      635.27      677.83      635.27    
  521.91      373.24      229.21      119.04      53.868      26.788      18.436      13.623      10.694      8.8907    
  7.8598      7.4101      7.1582      6.8676      6.2983      6.4985      6.8676      7.1663      7.6753      8.8546    
  10.900      14.169      19.460      30.206      66.502      149.04      284.01      457.52      635.27      770.46    
  821.18      770.46      635.27      457.52      284.01      149.04      66.502      30.206      19.460      14.169    
  10.900      8.8546      7.6753      7.1663      6.8676      6.4985      6.0751      6.2983      6.7122      7.0471    
  7.5946      8.8401      10.979      14.370      19.825      31.628      71.515      160.59      304.79      489.24    
  677.83      821.18      874.95      821.18      677.83      489.24      304.79      160.59      71.515      31.628    
  19.825      14.370      10.979      8.8401      7.5946      7.0471      6.7122      6.2983      6.2983      6.4985    
  6.8676      7.1663      7.6753      8.8546      10.900      14.169      19.460      30.206      66.502      149.04    
  284.01      457.52      635.27      770.46      821.18      770.46      635.27      457.52      284.01      149.04    
  66.502      30.206      19.460      14.169      10.900      8.8546      7.6753      7.1663      6.8676      6.4985    
  6.7122      6.8676      7.1582      7.4101      7.8598      8.8907      10.694      13.623      18.436      26.788    
  53.868      119.04      229.21      373.24      521.91      635.27      677.83      635.27      521.91      373.24    
  229.21      119.04      53.868      26.788      18.436      13.623      10.694      8.8907      7.8598      7.4101    
  7.1582      6.8676      7.0471      7.1663      7.4101      7.6664      8.0940      8.9628      10.447      12.882    
  16.947      23.126      39.289      82.010      159.13      263.56      373.24      457.52      489.24      457.52    
  373.24      263.56      159.13      82.010      39.289      23.126      16.947      12.882      10.447      8.9628    
  8.0940      7.6664      7.4101      7.1663      7.5946      7.6753      7.8598      8.0940      8.4690      9.1474    
  10.273      12.132      15.279      20.099      28.118      50.172      94.717      159.13      229.21      284.01    
  304.79      284.01      229.21      159.13      94.717      50.172      28.118      20.099      15.279      12.132    
  10.273      9.1474      8.4690      8.0940      7.8598      7.6753      8.8401      8.8546      8.8907      8.9628    
  9.1474      9.5485      10.276      11.539      13.728      17.222      21.959      30.546      50.172      82.010    
  119.04      149.04      160.59      149.04      119.04      82.010      50.172      30.546      21.959      17.222    
  13.728      11.539      10.276      9.5485      9.1474      8.9628      8.8907      8.8546      10.979      10.900    
  10.694      10.447      10.273      10.276      10.547      11.221      12.525      14.733      17.958      21.959    
  28.118      39.289      53.868      66.502      71.515      66.502      53.868      39.289      28.118      21.959    
  17.958      14.733      12.525      11.221      10.547      10.276      10.273      10.447      10.694      10.900    
  14.370      14.169      13.623      12.882      12.132      11.539      11.221      11.269      11.786      12.906    
  14.733      17.222      20.099      23.126      26.788      30.206      31.628      30.206      26.788      23.126    
  20.099      17.222      14.733      12.906      11.786      11.269      11.221      11.539      12.132      12.882    
  13.623      14.169      19.825      19.460      18.436      16.947      15.279      13.728      12.525      11.786    
  11.540      11.786      12.525      13.728      15.279      16.947      18.436      19.460      19.825      19.460    
  18.436      16.947      15.279      13.728      12.525      11.786      11.540      11.786      12.525      13.728    
  15.279      16.947      18.436      19.460      31.628      30.206      26.788      23.126      20.099      17.222    
  14.733      12.906      11.786      11.269      11.221      11.539      12.132      12.882      13.623      14.169    
  14.370      14.169      13.623      12.882      12.132      11.539      11.221      11.269      11.786      12.906    
  14.733      17.222      20.099      23.126      26.788      30.206      71.515      66.502      53.868      39.289    
  28.118      21.959      17.958      14.733      12.525      11.221      10.547      10.276      10.273      10.447    
  10.694      10.900      10.979      10.900      10.694      10.447      10.273      10.276      10.547      11.221    
  12.525      14.733      17.958      21.959      28.118      39.289      53.868      66.502      160.59      149.04    
  119.04      82.010      50.172      30.546      21.959      17.222      13.728      11.539      10.276      9.5485    
  9.1474      8.9628      8.8907      8.8546      8.8401      8.8546      8.8907      8.9628      9.1474      9.5485    
  10.276      11.539      13.728      17.222      21.959      30.546      50.172      82.010      119.04      149.04    
  304.79      284.01      229.21      159.13      94.717      50.172      28.118      20.099      15.279      12.132    
  10.273      9.1474      8.4690      8.0940      7.8598      7.6753      7.5946      7.6753      7.8598      8.0940    
  8.4690      9.1474      10.273      12.132      15.279      20.099      28.118      50.172      94.717      159.13    
  229.21      284.01      489.24      457.52      373.24      263.56      159.13      82.010      39.289      23.126    
  16.947      12.882      10.447      8.9628      8.0940      7.6664      7.4101      7.1663      7.0471      7.1663    
  7.4101      7.6664      8.0940      8.9628      10.447      12.882      16.947      23.126      39.289      82.010    
  159.13      263.56      373.24      457.52      677.83      635.27      521.91      373.24      229.21      119.04    
  53.868      26.788      18.436      13.623      10.694      8.8907      7.8598      7.4101      7.1582      6.8676    
  6.7122      6.8676      7.1582      7.4101      7.8598      8.8907      10.694      13.623      18.436      26.788    
  53.868      119.04      229.21      373.24      521.91      635.27      821.18      770.46      635.27      457.52    
  284.01      149.04      66.502      30.206      19.460      14.169      10.900      8.8546      7.6753      7.1663    
  6.8676      6.4985      6.2983      6.4985      6.8676      7.1663      7.6753      8.8546      10.900      14.169    
  19.460      30.206      66.502      149.04      284.01      457.52      635.27      770.46      722.97      677.83    
  557.57      399.69      246.33      128.32      57.714      27.809      18.777      13.807      10.769      8.8852    
  7.7998      7.3192      7.0385      6.7122      6.5385      6.7122      7.0385      7.3192      7.7998      8.8852    
  10.769      13.807      18.777      27.809      57.714      128.32      246.33      399.69      557.57      677.83    
  677.83      635.27      521.91      373.24      229.21      119.04      53.868      26.788      18.436      13.623    
  10.694      8.8907      7.8598      7.4101      7.1582      6.8676      6.7122      6.8676      7.1582      7.4101    
  7.8598      8.8907      10.694      13.623      18.436      26.788      53.868      119.04      229.21      373.24    
  521.91      635.27      557.57      521.91      427.05      303.14      184.24      95.071      44.269      24.335    
  17.483      13.124      10.502      8.9077      8.0017      7.6009      7.3863      7.1582      7.0385      7.1582    
  7.3863      7.6009      8.0017      8.9077      10.502      13.124      17.483      24.335      44.269      95.071    
  184.24      303.14      427.05      521.91      399.69      373.24      303.14      212.49      127.29      65.926    
  33.425      21.614      16.112      12.451      10.275      8.9609      8.1960      7.8175      7.6009      7.4101    
  7.3192      7.4101      7.6009      7.8175      8.1960      8.9609      10.275      12.451      16.112      21.614    
  33.425      65.926      127.29      212.49      303.14      373.24      246.33      229.21      184.24      127.29    
  75.900      41.533      25.341      18.967      14.593      11.776      10.118      9.1202      8.5235      8.1960    
  8.0017      7.8598      7.7998      7.8598      8.0017      8.1960      8.5235      9.1202      10.118      11.776    
  14.593      18.967      25.341      41.533      75.900      127.29      184.24      229.21      128.32      119.04    
  95.071      65.926      41.533      27.101      20.653      16.333      13.198      11.247      10.121      9.4744    
  9.1202      8.9609      8.9077      8.8907      8.8852      8.8907      8.9077      8.9609      9.1202      9.4744    
  10.121      11.247      13.198      16.333      20.653      27.101      41.533      65.926      95.071      119.04    
  57.714      53.868      44.269      33.425      25.341      20.653      16.994      14.091      12.127      10.967    
  10.366      10.121      10.118      10.275      10.502      10.694      10.769      10.694      10.502      10.275    
  10.118      10.121      10.366      10.967      12.127      14.091      16.994      20.653      25.341      33.425    
  44.269      53.868      27.809      26.788      24.335      21.614      18.967      16.333      14.091      12.465    
  11.473      11.014      10.967      11.247      11.776      12.451      13.124      13.623      13.807      13.623    
  13.124      12.451      11.776      11.247      10.967      11.014      11.473      12.465      14.091      16.333    
  18.967      21.614      24.335      26.788      18.777      18.436      17.483      16.112      14.593      13.198    
  12.127      11.473      11.257      11.473      12.127      13.198      14.593      16.112      17.483      18.436    
  18.777      18.436      17.483      16.112      14.593      13.198      12.127      11.473      11.257      11.473    
  12.127      13.198      14.593      16.112      17.483      18.436      13.807      13.623      13.124      12.451    
  11.776      11.247      10.967      11.014      11.473      12.465      14.091      16.333      18.967      21.614    
  24.335      26.788      27.809      26.788      24.335      21.614      18.967      16.333      14.091      12.465    
  11.473      11.014      10.967      11.247      11.776      12.451      13.124      13.623      10.769      10.694    
  10.502      10.275      10.118      10.121      10.366      10.967      12.127      14.091      16.994      20.653    
  25.341      33.425      44.269      53.868      57.714      53.868      44.269      33.425      25.341      20.653    
  16.994      14.091      12.127      10.967      10.366      10.121      10.118      10.275      10.502      10.694    
  8.8852      8.8907      8.9077      8.9609      9.1202      9.4744      10.121      11.247      13.198      16.333    
  20.653      27.101      41.533      65.926      95.071      119.04      128.32      119.04      95.071      65.926    
  41.533      27.101      20.653      16.333      13.198      11.247      10.121      9.4744      9.1202      8.9609    
  8.9077      8.8907      7.7998      7.8598      8.0017      8.1960      8.5235      9.1202      10.118      11.776    
  14.593      18.967      25.341      41.533      75.900      127.29      184.24      229.21      246.33      229.21    