unknown system                          
   1.00000000000000     
     3.752338    0.000000    0.000000
     0.000000    3.752338    0.000000
     0.000000    0.000000    3.752338
   Cu
     4
Direct
  0.000000  0.000000  0.000000
  0.500000  0.500000  0.000000
  0.500000  0.000000  0.500000
  0.000000  0.500000  0.500000
 
   32   32   32
 0.93196525075E+03 0.87495057796E+03 0.72297359050E+03 0.52293432146E+03 0.32693405570E+03
 0.17299211275E+03 0.76972827604E+02 0.33214036068E+02 0.20197335995E+02 0.14577075519E+02
 0.11058933231E+02 0.88212076610E+01 0.75042903161E+01 0.69139464678E+01 0.65384708822E+01
 0.60751230843E+01 0.58269162936E+01 0.60751230843E+01 0.65384708822E+01 0.69139464678E+01
 0.75042903161E+01 0.88212076610E+01 0.11058933231E+02 0.14577075519E+02 0.20197335995E+02
 0.33214036068E+02 0.76972827604E+02 0.17299211275E+03 0.32693405570E+03 0.52293432146E+03
 0.72297359050E+03 0.87495057796E+03 0.87495057796E+03 0.82117562368E+03 0.67783447068E+03
 0.48924435529E+03 0.30479356530E+03 0.16059255327E+03 0.71514705587E+02 0.31628395721E+02
 0.19824879513E+02 0.14370040950E+02 0.10978621620E+02 0.88400561302E+01 0.75946157692E+01
 0.70471010315E+01 0.67121839840E+01 0.62982771501E+01 0.60751230843E+01 0.62982771501E+01
 0.67121839840E+01 0.70471010315E+01 0.75946157692E+01 0.88400561302E+01 0.10978621620E+02
 0.14370040950E+02 0.19824879513E+02 0.31628395721E+02 0.71514705587E+02 0.16059255327E+03
 0.30479356530E+03 0.48924435529E+03 0.67783447068E+03 0.82117562368E+03 0.72297359050E+03
 0.67783447068E+03 0.55756853124E+03 0.39969247150E+03 0.24633001449E+03 0.12832405110E+03
 0.57714208859E+02 0.27809018655E+02 0.18776530149E+02 0.13807499496E+02 0.10768554416E+02
 0.88852353899E+01 0.77997781624E+01 0.73191531905E+01 0.70385278358E+01 0.67121839840E+01
 0.65384708822E+01 0.67121839840E+01 0.70385278358E+01 0.73191531905E+01 0.77997781624E+01
 0.88852353899E+01 0.10768554416E+02 0.13807499496E+02 0.18776530149E+02 0.27809018655E+02
 0.57714208859E+02 0.12832405110E+03 0.24633001449E+03 0.39969247150E+03 0.55756853124E+03
 0.67783447068E+03 0.52293432146E+03 0.48924435529E+03 0.39969247150E+03 0.28294438439E+03
 0.17135807297E+03 0.88322620762E+02 0.41680854301E+02 0.23728872146E+02 0.17247787843E+02
 0.13042094610E+02 0.10514934657E+02 0.89662619045E+01 0.80540026585E+01 0.75999754860E+01
 0.73191531905E+01 0.70471010315E+01 0.69139464678E+01 0.70471010315E+01 0.73191531905E+01
 0.75999754860E+01 0.80540026585E+01 0.89662619045E+01 0.10514934657E+02 0.13042094610E+02
 0.17247787843E+02 0.23728872146E+02 0.41680854301E+02 0.88322620762E+02 0.17135807297E+03
 0.28294438439E+03 0.39969247150E+03 0.48924435529E+03 0.32693405570E+03 0.30479356530E+03
 0.24633001449E+03 0.17135807297E+03 0.10205963202E+03 0.53640779469E+02 0.29267551881E+02
 0.20500256666E+02 0.15526761172E+02 0.12264659202E+02 0.10334063813E+02 0.91611433640E+01
 0.84505344165E+01 0.80540026585E+01 0.77997781624E+01 0.75946157692E+01 0.75042903161E+01
 0.75946157692E+01 0.77997781624E+01 0.80540026585E+01 0.84505344165E+01 0.91611433640E+01
 0.10334063813E+02 0.12264659202E+02 0.15526761172E+02 0.20500256666E+02 0.29267551881E+02
 0.53640779469E+02 0.10205963202E+03 0.17135807297E+03 0.24633001449E+03 0.30479356530E+03
 0.17299211275E+03 0.16059255327E+03 0.12832405110E+03 0.88322620762E+02 0.53640779469E+02
 0.31968028538E+02 0.22443897233E+02 0.17540513948E+02 0.13920620758E+02 0.11646780022E+02
 0.10335347697E+02 0.95794790843E+01 0.91611433640E+01 0.89662619045E+01 0.88852353899E+01
 0.88400561302E+01 0.88212076610E+01 0.88400561302E+01 0.88852353899E+01 0.89662619045E+01
 0.91611433640E+01 0.95794790843E+01 0.10335347697E+02 0.11646780022E+02 0.13920620758E+02
 0.17540513948E+02 0.22443897233E+02 0.31968028538E+02 0.53640779469E+02 0.88322620762E+02
 0.12832405110E+03 0.16059255327E+03 0.76972827604E+02 0.71514705587E+02 0.57714208859E+02
 0.41680854301E+02 0.29267551881E+02 0.22443897233E+02 0.18301791795E+02 0.14963547234E+02
 0.12669238407E+02 0.11313522451E+02 0.10615472083E+02 0.10335347697E+02 0.10334063813E+02
 0.10514934657E+02 0.10768554416E+02 0.10978621620E+02 0.11058933231E+02 0.10978621620E+02
 0.10768554416E+02 0.10514934657E+02 0.10334063813E+02 0.10335347697E+02 0.10615472083E+02
 0.11313522451E+02 0.12669238407E+02 0.14963547234E+02 0.18301791795E+02 0.22443897233E+02
 0.29267551881E+02 0.41680854301E+02 0.57714208859E+02 0.71514705587E+02 0.33214036068E+02
 0.31628395721E+02 0.27809018655E+02 0.23728872146E+02 0.20500256666E+02 0.17540513948E+02
 0.14963547234E+02 0.13064539461E+02 0.11898248999E+02 0.11360766450E+02 0.11313522451E+02
 0.11646780022E+02 0.12264659202E+02 0.13042094610E+02 0.13807499496E+02 0.14370040950E+02
 0.14577075519E+02 0.14370040950E+02 0.13807499496E+02 0.13042094610E+02 0.12264659202E+02
 0.11646780022E+02 0.11313522451E+02 0.11360766450E+02 0.11898248999E+02 0.13064539461E+02
 0.14963547234E+02 0.17540513948E+02 0.20500256666E+02 0.23728872146E+02 0.27809018655E+02
 0.31628395721E+02 0.20197335995E+02 0.19824879513E+02 0.18776530149E+02 0.17247787843E+02
 0.15526761172E+02 0.13920620758E+02 0.12669238407E+02 0.11898248999E+02 0.11641011377E+02
 0.11898248999E+02 0.12669238407E+02 0.13920620758E+02 0.15526761172E+02 0.17247787843E+02
 0.18776530149E+02 0.19824879513E+02 0.20197335995E+02 0.19824879513E+02 0.18776530149E+02
 0.17247787843E+02 0.15526761172E+02 0.13920620758E+02 0.12669238407E+02 0.11898248999E+02
 0.11641011377E+02 0.11898248999E+02 0.12669238407E+02 0.13920620758E+02 0.15526761172E+02
 0.17247787843E+02 0.18776530149E+02 0.19824879513E+02 0.14577075519E+02 0.14370040950E+02
 0.13807499496E+02 0.13042094610E+02 0.12264659202E+02 0.11646780022E+02 0.11313522451E+02
 0.11360766450E+02 0.11898248999E+02 0.13064539461E+02 0.14963547234E+02 0.17540513948E+02
 0.20500256666E+02 0.23728872146E+02 0.27809018655E+02 0.31628395721E+02 0.33214036068E+02
 0.31628395721E+02 0.27809018655E+02 0.23728872146E+02 0.20500256666E+02 0.17540513948E+02
 0.14963547234E+02 0.13064539461E+02 0.11898248999E+02 0.11360766450E+02 0.11313522451E+02
 0.11646780022E+02 0.12264659202E+02 0.13042094610E+02 0.13807499496E+02 0.14370040950E+02
 0.11058933231E+02 0.10978621620E+02 0.10768554416E+02 0.10514934657E+02 0.10334063813E+02
 0.10335347697E+02 0.10615472083E+02 0.11313522451E+02 0.12669238407E+02 0.14963547234E+02
 0.18301791795E+02 0.22443897233E+02 0.29267551881E+02 0.41680854301E+02 0.57714208859E+02
 0.71514705587E+02 0.76972827604E+02 0.71514705587E+02 0.57714208859E+02 0.41680854301E+02
 0.29267551881E+02 0.22443897233E+02 0.18301791795E+02 0.14963547234E+02 0.12669238407E+02
 0.11313522451E+02 0.10615472083E+02 0.10335347697E+02 0.10334063813E+02 0.10514934657E+02
 0.10768554416E+02 0.10978621620E+02 0.88212076610E+01 0.88400561302E+01 0.88852353899E+01
 0.89662619045E+01 0.91611433640E+01 0.95794790843E+01 0.10335347697E+02 0.11646780022E+02
 0.13920620758E+02 0.17540513948E+02 0.22443897233E+02 0.31968028538E+02 0.53640779469E+02
 0.88322620762E+02 0.12832405110E+03 0.16059255327E+03 0.17299211275E+03 0.16059255327E+03
 0.12832405110E+03 0.88322620762E+02 0.53640779469E+02 0.31968028538E+02 0.22443897233E+02
 0.17540513948E+02 0.13920620758E+02 0.11646780022E+02 0.10335347697E+02 0.95794790843E+01
 0.91611433640E+01 0.89662619045E+01 0.88852353899E+01 0.88400561302E+01 0.75042903161E+01
 0.75946157692E+01 0.77997781624E+01 0.80540026585E+01 0.84505344165E+01 0.91611433640E+01
 0.10334063813E+02 0.12264659202E+02 0.15526761172E+02 0.20500256666E+02 0.29267551881E+02
 0.53640779469E+02 0.10205963202E+03 0.17135807297E+03 0.24633001449E+03 0.30479356530E+03
 0.32693405570E+03 0.30479356530E+03 0.24633001449E+03 0.17135807297E+03 0.10205963202E+03
 0.53640779469E+02 0.29267551881E+02 0.20500256666E+02 0.15526761172E+02 0.12264659202E+02
 0.10334063813E+02 0.91611433640E+01 0.84505344165E+01 0.80540026585E+01 0.77997781624E+01
 0.75946157692E+01 0.69139464678E+01 0.70471010315E+01 0.73191531905E+01 0.75999754860E+01
 0.80540026585E+01 0.89662619045E+01 0.10514934657E+02 0.13042094610E+02 0.17247787843E+02
 0.23728872146E+02 0.41680854301E+02 0.88322620762E+02 0.17135807297E+03 0.28294438439E+03
 0.39969247150E+03 0.48924435529E+03 0.52293432146E+03 0.48924435529E+03 0.39969247150E+03
 0.28294438439E+03 0.17135807297E+03 0.88322620762E+02 0.41680854301E+02 0.23728872146E+02
 0.17247787843E+02 0.13042094610E+02 0.10514934657E+02 0.89662619045E+01 0.80540026585E+01
 0.75999754860E+01 0.73191531905E+01 0.70471010315E+01 0.65384708822E+01 0.67121839840E+01
 0.70385278358E+01 0.73191531905E+01 0.77997781624E+01 0.88852353899E+01 0.10768554416E+02
 0.13807499496E+02 0.18776530149E+02 0.27809018655E+02 0.57714208859E+02 0.12832405110E+03
 0.24633001449E+03 0.39969247150E+03 0.55756853124E+03 0.67783447068E+03 0.72297359050E+03
 0.67783447068E+03 0.55756853124E+03 0.39969247150E+03 0.24633001449E+03 0.12832405110E+03
 0.57714208859E+02 0.27809018655E+02 0.18776530149E+02 0.13807499496E+02 0.10768554416E+02
 0.88852353899E+01 0.77997781624E+01 0.73191531905E+01 0.70385278358E+01 0.67121839840E+01
 0.60751230843E+01 0.62982771501E+01 0.67121839840E+01 0.70471010315E+01 0.75946157692E+01
 0.88400561302E+01 0.10978621620E+02 0.14370040950E+02 0.19824879513E+02 0.31628395721E+02
 0.71514705587E+02 0.16059255327E+03 0.30479356530E+03 0.48924435529E+03 0.67783447068E+03
 0.82117562368E+03 0.87495057796E+03 0.82117562368E+03 0.67783447068E+03 0.48924435529E+03
 0.30479356530E+03 0.16059255327E+03 0.71514705587E+02 0.31628395721E+02 0.19824879513E+02
 0.14370040950E+02 0.10978621620E+02 0.88400561302E+01 0.75946157692E+01 0.70471010315E+01
 0.67121839840E+01 0.62982771501E+01 0.58269162936E+01 0.60751230843E+01 0.65384708822E+01
 0.69139464678E+01 0.75042903161E+01 0.88212076610E+01 0.11058933231E+02 0.14577075519E+02
 0.20197335995E+02 0.33214036068E+02 0.76972827604E+02 0.17299211275E+03 0.32693405570E+03
 0.52293432146E+03 0.72297359050E+03 0.87495057796E+03 0.93196525075E+03 0.87495057796E+03
 0.72297359050E+03 0.52293432146E+03 0.32693405570E+03 0.17299211275E+03 0.76972827604E+02
 0.33214036068E+02 0.20197335995E+02 0.14577075519E+02 0.11058933231E+02 0.88212076610E+01
 0.75042903161E+01 0.69139464678E+01 0.65384708822E+01 0.60751230843E+01 0.60751230843E+01
 0.62982771501E+01 0.67121839840E+01 0.70471010315E+01 0.75946157692E+01 0.88400561302E+01
 0.10978621620E+02 0.14370040950E+02 0.19824879513E+02 0.31628395721E+02 0.71514705587E+02
 0.16059255327E+03 0.30479356530E+03 0.48924435529E+03 0.67783447068E+03 0.82117562368E+03
 0.87495057796E+03 0.82117562368E+03 0.67783447068E+03 0.48924435529E+03 0.30479356530E+03
 0.16059255327E+03 0.71514705587E+02 0.31628395721E+02 0.19824879513E+02 0.14370040950E+02
 0.10978621620E+02 0.88400561302E+01 0.75946157692E+01 0.70471010315E+01 0.67121839840E+01
 0.62982771501E+01 0.65384708822E+01 0.67121839840E+01 0.70385278358E+01 0.73191531905E+01
 0.77997781624E+01 0.88852353899E+01 0.10768554416E+02 0.13807499496E+02 0.18776530149E+02
 0.27809018655E+02 0.57714208859E+02 0.12832405110E+03 0.24633001449E+03 0.39969247150E+03
 0.55756853124E+03 0.67783447068E+03 0.72297359050E+03 0.67783447068E+03 0.55756853124E+03
 0.39969247150E+03 0.24633001449E+03 0.12832405110E+03 0.57714208859E+02 0.27809018655E+02
 0.18776530149E+02 0.13807499496E+02 0.10768554416E+02 0.88852353899E+01 0.77997781624E+01
 0.73191531905E+01 0.70385278358E+01 0.67121839840E+01 0.69139464678E+01 0.70471010315E+01
 0.73191531905E+01 0.75999754860E+01 0.80540026585E+01 0.89662619045E+01 0.10514934657E+02
 0.13042094610E+02 0.17247787843E+02 0.23728872146E+02 0.41680854301E+02 0.88322620762E+02
 0.17135807297E+03 0.28294438439E+03 0.39969247150E+03 0.48924435529E+03 0.52293432146E+03
 0.48924435529E+03 0.39969247150E+03 0.28294438439E+03 0.17135807297E+03 0.88322620762E+02
 0.41680854301E+02 0.23728872146E+02 0.17247787843E+02 0.13042094610E+02 0.10514934657E+02
 0.89662619045E+01 0.80540026585E+01 0.75999754860E+01 0.73191531905E+01 0.70471010315E+01
 0.75042903161E+01 0.75946157692E+01 0.77997781624E+01 0.80540026585E+01 0.84505344165E+01
 0.91611433640E+01 0.10334063813E+02 0.12264659202E+02 0.15526761172E+02 0.20500256666E+02
 0.29267551881E+02 0.53640779469E+02 0.10205963202E+03 0.17135807297E+03 0.24633001449E+03
 0.30479356530E+03 0.32693405570E+03 0.30479356530E+03 0.24633001449E+03 0.17135807297E+03
 0.10205963202E+03 0.53640779469E+02 0.29267551881E+02 0.20500256666E+02 0.15526761172E+02
 0.12264659202E+02 0.10334063813E+02 0.91611433640E+01 0.84505344165E+01 0.80540026585E+01
 0.77997781624E+01 0.75946157692E+01 0.88212076610E+01 0.88400561302E+01 0.88852353899E+01
 0.89662619045E+01 0.91611433640E+01 0.95794790843E+01 0.10335347697E+02 0.11646780022E+02
 0.13920620758E+02 0.17540513948E+02 0.22443897233E+02 0.31968028538E+02 0.53640779469E+02
 0.88322620762E+02 0.12832405110E+03 0.16059255327E+03 0.17299211275E+03 0.16059255327E+03
 0.12832405110E+03 0.88322620762E+02 0.53640779469E+02 0.31968028538E+02 0.22443897233E+02
 0.17540513948E+02 0.13920620758E+02 0.11646780022E+02 0.10335347697E+02 0.95794790843E+01
 0.91611433640E+01 0.89662619045E+01 0.88852353899E+01 0.88400561302E+01 0.11058933231E+02
 0.10978621620E+02 0.10768554416E+02 0.10514934657E+02 0.10334063813E+02 0.10335347697E+02
 0.10615472083E+02 0.11313522451E+02 0.12669238407E+02 0.14963547234E+02 0.18301791795E+02
 0.22443897233E+02 0.29267551881E+02 0.41680854301E+02 0.57714208859E+02 0.71514705587E+02
 0.76972827604E+02 0.71514705587E+02 0.57714208859E+02 0.41680854301E+02 0.29267551881E+02
 0.22443897233E+02 0.18301791795E+02 0.14963547234E+02 0.12669238407E+02 0.11313522451E+02
 0.10615472083E+02 0.10335347697E+02 0.10334063813E+02 0.10514934657E+02 0.10768554416E+02
 0.10978621620E+02 0.14577075519E+02 0.14370040950E+02 0.13807499496E+02 0.13042094610E+02
 0.12264659202E+02 0.11646780022E+02 0.11313522451E+02 0.11360766450E+02 0.11898248999E+02
 0.13064539461E+02 0.14963547234E+02 0.17540513948E+02 0.20500256666E+02 0.23728872146E+02
 0.27809018655E+02 0.31628395721E+02 0.33214036068E+02 0.31628395721E+02 0.27809018655E+02
 0.23728872146E+02 0.20500256666E+02 0.17540513948E+02 0.14963547234E+02 0.13064539461E+02
 0.11898248999E+02 0.11360766450E+02 0.11313522451E+02 0.11646780022E+02 0.12264659202E+02
 0.13042094610E+02 0.13807499496E+02 0.14370040950E+02 0.20197335995E+02 0.19824879513E+02
 0.18776530149E+02 0.17247787843E+02 0.15526761172E+02 0.13920620758E+02 0.12669238407E+02
 0.11898248999E+02 0.11641011377E+02 0.11898248999E+02 0.12669238407E+02 0.13920620758E+02
 0.15526761172E+02 0.17247787843E+02 0.18776530149E+02 0.19824879513E+02 0.20197335995E+02
 0.19824879513E+02 0.18776530149E+02 0.17247787843E+02 0.15526761172E+02 0.13920620758E+02
 0.12669238407E+02 0.11898248999E+02 0.11641011377E+02 0.11898248999E+02 0.12669238407E+02
 0.13920620758E+02 0.15526761172E+02 0.17247787843E+02 0.18776530149E+02 0.19824879513E+02
 0.33214036068E+02 0.31628395721E+02 0.27809018655E+02 0.23728872146E+02 0.20500256666E+02
 0.17540513948E+02 0.14963547234E+02 0.13064539461E+02 0.11898248999E+02 0.11360766450E+02
 0.11313522451E+02 0.11646780022E+02 0.12264659202E+02 0.13042094610E+02 0.13807499496E+02
 0.14370040950E+02 0.14577075519E+02 0.14370040950E+02 0.13807499496E+02 0.13042094610E+02
 0.12264659202E+02 0.11646780022E+02 0.11313522451E+02 0.11360766450E+02 0.11898248999E+02
 0.13064539461E+02 0.14963547234E+02 0.17540513948E+02 0.20500256666E+02 0.23728872146E+02
 0.27809018655E+02 0.31628395721E+02 0.76972827604E+02 0.71514705587E+02 0.57714208859E+02
 0.41680854301E+02 0.29267551881E+02 0.22443897233E+02 0.18301791795E+02 0.14963547234E+02
 0.12669238407E+02 0.11313522451E+02 0.10615472083E+02 0.10335347697E+02 0.10334063813E+02
 0.10514934657E+02 0.10768554416E+02 0.10978621620E+02 0.11058933231E+02 0.10978621620E+02
 0.10768554416E+02 0.10514934657E+02 0.10334063813E+02 0.10335347697E+02 0.10615472083E+02
 0.11313522451E+02 0.12669238407E+02 0.14963547234E+02 0.18301791795E+02 0.22443897233E+02
 0.29267551881E+02 0.41680854301E+02 0.57714208859E+02 0.71514705587E+02 0.17299211275E+03
 0.16059255327E+03 0.12832405110E+03 0.88322620762E+02 0.53640779469E+02 0.31968028538E+02
 0.22443897233E+02 0.17540513948E+02 0.13920620758E+02 0.11646780022E+02 0.10335347697E+02
 0.95794790843E+01 0.91611433640E+01 0.89662619045E+01 0.88852353899E+01 0.88400561302E+01
 0.88212076610E+01 0.88400561302E+01 0.88852353899E+01 0.89662619045E+01 0.91611433640E+01
 0.95794790843E+01 0.10335347697E+02 0.11646780022E+02 0.13920620758E+02 0.17540513948E+02
 0.22443897233E+02 0.31968028538E+02 0.53640779469E+02 0.88322620762E+02 0.12832405110E+03
 0.16059255327E+03 0.32693405570E+03 0.30479356530E+03 0.24633001449E+03 0.17135807297E+03
 0.10205963202E+03 0.53640779469E+02 0.29267551881E+02 0.20500256666E+02 0.15526761172E+02
 0.12264659202E+02 0.10334063813E+02 0.91611433640E+01 0.84505344165E+01 0.80540026585E+01
 0.77997781624E+01 0.75946157692E+01 0.75042903161E+01 0.75946157692E+01 0.77997781624E+01
 0.80540026585E+01 0.84505344165E+01 0.91611433640E+01 0.10334063813E+02 0.12264659202E+02
 0.15526761172E+02 0.20500256666E+02 0.29267551881E+02 0.53640779469E+02 0.10205963202E+03
 0.17135807297E+03 0.24633001449E+03 0.30479356530E+03 0.52293432146E+03 0.48924435529E+03
 0.39969247150E+03 0.28294438439E+03 0.17135807297E+03 0.88322620762E+02 0.41680854301E+02
 0.23728872146E+02 0.17247787843E+02 0.13042094610E+02 0.10514934657E+02 0.89662619045E+01
 0.80540026585E+01 0.75999754860E+01 0.73191531905E+01 0.70471010315E+01 0.69139464678E+01
 0.70471010315E+01 0.73191531905E+01 0.75999754860E+01 0.80540026585E+01 0.89662619045E+01
 0.10514934657E+02 0.13042094610E+02 0.17247787843E+02 0.23728872146E+02 0.41680854301E+02
 0.88322620762E+02 0.17135807297E+03 0.28294438439E+03 0.39969247150E+03 0.48924435529E+03
 0.72297359050E+03 0.67783447068E+03 0.55756853124E+03 0.39969247150E+03 0.24633001449E+03
 0.12832405110E+03 0.57714208859E+02 0.27809018655E+02 0.18776530149E+02 0.13807499496E+02
 0.10768554416E+02 0.88852353899E+01 0.77997781624E+01 0.73191531905E+01 0.70385278358E+01
 0.67121839840E+01 0.65384708822E+01 0.67121839840E+01 0.70385278358E+01 0.73191531905E+01
 0.77997781624E+01 0.88852353899E+01 0.10768554416E+02 0.13807499496E+02 0.18776530149E+02
 0.27809018655E+02 0.57714208859E+02 0.12832405110E+03 0.24633001449E+03 0.39969247150E+03
 0.55756853124E+03 0.67783447068E+03 0.87495057796E+03 0.82117562368E+03 0.67783447068E+03
 0.48924435529E+03 0.30479356530E+03 0.16059255327E+03 0.71514705587E+02 0.31628395721E+02
 0.19824879513E+02 0.14370040950E+02 0.10978621620E+02 0.88400561302E+01 0.75946157692E+01
 0.70471010315E+01 0.67121839840E+01 0.62982771501E+01 0.60751230843E+01 0.62982771501E+01
 0.67121839840E+01 0.70471010315E+01 0.75946157692E+01 0.88400561302E+01 0.10978621620E+02
 0.14370040950E+02 0.19824879513E+02 0.31628395721E+02 0.71514705587E+02 0.16059255327E+03
 0.30479356530E+03 0.48924435529E+03 0.67783447068E+03 0.82117562368E+03 0.87495057796E+03
 0.82117562368E+03 0.67783447068E+03 0.48924435529E+03 0.30479356530E+03 0.16059255327E+03
 0.71514705587E+02 0.31628395721E+02 0.19824879513E+02 0.14370040950E+02 0.10978621620E+02
 0.88400561302E+01 0.75946157692E+01 0.70471010315E+01 0.67121839840E+01 0.62982771501E+01
 0.60751230843E+01 0.62982771501E+01 0.67121839840E+01 0.70471010315E+01 0.75946157692E+01
 0.88400561302E+01 0.10978621620E+02 0.14370040950E+02 0.19824879513E+02 0.31628395721E+02
 0.71514705587E+02 0.16059255327E+03 0.30479356530E+03 0.48924435529E+03 0.67783447068E+03
 0.82117562368E+03 0.82117562368E+03 0.77045709451E+03 0.63527286226E+03 0.45751794139E+03
 0.28401471860E+03 0.14904097298E+03 0.66502114497E+02 0.30206318162E+02 0.19460439819E+02
 0.14168846320E+02 0.10899623662E+02 0.88546226515E+01 0.76752777980E+01 0.71662966663E+01
 0.68676032458E+01 0.64985478529E+01 0.62982771501E+01 0.64985478529E+01 0.68676032458E+01
 0.71662966663E+01 0.76752777980E+01 0.88546226515E+01 0.10899623662E+02 0.14168846320E+02
 0.19460439819E+02 0.30206318162E+02 0.66502114497E+02 0.14904097298E+03 0.28401471860E+03
 0.45751794139E+03 0.63527286226E+03 0.77045709451E+03 0.67783447068E+03 0.63527286226E+03
 0.52190703444E+03 0.37324041473E+03 0.22921118065E+03 0.11903742689E+03 0.53867611521E+02
 0.26788145055E+02 0.18435883428E+02 0.13622975028E+02 0.10693956519E+02 0.88906895710E+01
 0.78597992660E+01 0.74100953793E+01 0.71581872181E+01 0.68676032458E+01 0.67121839840E+01
 0.68676032458E+01 0.71581872181E+01 0.74100953793E+01 0.78597992660E+01 0.88906895710E+01
 0.10693956519E+02 0.13622975028E+02 0.18435883428E+02 0.26788145055E+02 0.53867611521E+02
 0.11903742689E+03 0.22921118065E+03 0.37324041473E+03 0.52190703444E+03 0.63527286226E+03
 0.48924435529E+03 0.45751794139E+03 0.37324041473E+03 0.26356115862E+03 0.15913195597E+03
 0.82009615934E+02 0.39288918906E+02 0.23126266966E+02 0.16947258352E+02 0.12882215053E+02
 0.10447458484E+02 0.89628188113E+01 0.80940006322E+01 0.76663548041E+01 0.74100953793E+01
 0.71662966663E+01 0.70471010315E+01 0.71662966663E+01 0.74100953793E+01 0.76663548041E+01
 0.80940006322E+01 0.89628188113E+01 0.10447458484E+02 0.12882215053E+02 0.16947258352E+02
 0.23126266966E+02 0.39288918906E+02 0.82009615934E+02 0.15913195597E+03 0.26356115862E+03
 0.37324041473E+03 0.45751794139E+03 0.30479356530E+03 0.28401471860E+03 0.22921118065E+03
 0.15913195597E+03 0.94717446643E+02 0.50172079137E+02 0.28118268923E+02 0.20099278209E+02
 0.15278716300E+02 0.12132389463E+02 0.10273195561E+02 0.91474141296E+01 0.84689887454E+01
 0.80940006322E+01 0.78597992660E+01 0.76752777980E+01 0.75946157692E+01 0.76752777980E+01
 0.78597992660E+01 0.80940006322E+01 0.84689887454E+01 0.91474141296E+01 0.10273195561E+02
 0.12132389463E+02 0.15278716300E+02 0.20099278209E+02 0.28118268923E+02 0.50172079137E+02
 0.94717446643E+02 0.15913195597E+03 0.22921118065E+03 0.28401471860E+03 0.16059255327E+03
 0.14904097298E+03 0.11903742689E+03 0.82009615934E+02 0.50172079137E+02 0.30545703882E+02
 0.21958659574E+02 0.17222302604E+02 0.13728369462E+02 0.11538905751E+02 0.10275806684E+02
 0.95485202393E+01 0.91474141296E+01 0.89628188113E+01 0.88906895710E+01 0.88546226515E+01
 0.88400561302E+01 0.88546226515E+01 0.88906895710E+01 0.89628188113E+01 0.91474141296E+01
 0.95485202393E+01 0.10275806684E+02 0.11538905751E+02 0.13728369462E+02 0.17222302604E+02
 0.21958659574E+02 0.30545703882E+02 0.50172079137E+02 0.82009615934E+02 0.11903742689E+03
 0.14904097298E+03 0.71514705587E+02 0.66502114497E+02 0.53867611521E+02 0.39288918906E+02
 0.28118268923E+02 0.21958659574E+02 0.17958109557E+02 0.14732815536E+02 0.12525092875E+02
 0.11220876038E+02 0.10547479997E+02 0.10275806684E+02 0.10273195561E+02 0.10447458484E+02
 0.10693956519E+02 0.10899623662E+02 0.10978621620E+02 0.10899623662E+02 0.10693956519E+02
 0.10447458484E+02 0.10273195561E+02 0.10275806684E+02 0.10547479997E+02 0.11220876038E+02
 0.12525092875E+02 0.14732815536E+02 0.17958109557E+02 0.21958659574E+02 0.28118268923E+02
 0.39288918906E+02 0.53867611521E+02 0.66502114497E+02 0.31628395721E+02 0.30206318162E+02
 0.26788145055E+02 0.23126266966E+02 0.20099278209E+02 0.17222302604E+02 0.14732815536E+02
 0.12905953060E+02 0.11785884972E+02 0.11268614853E+02 0.11220876038E+02 0.11538905751E+02
 0.12132389463E+02 0.12882215053E+02 0.13622975028E+02 0.14168846320E+02 0.14370040950E+02
 0.14168846320E+02 0.13622975028E+02 0.12882215053E+02 0.12132389463E+02 0.11538905751E+02
 0.11220876038E+02 0.11268614853E+02 0.11785884972E+02 0.12905953060E+02 0.14732815536E+02
 0.17222302604E+02 0.20099278209E+02 0.23126266966E+02 0.26788145055E+02 0.30206318162E+02
 0.19824879513E+02 0.19460439819E+02 0.18435883428E+02 0.16947258352E+02 0.15278716300E+02
 0.13728369462E+02 0.12525092875E+02 0.11785884972E+02 0.11539640492E+02 0.11785884972E+02
 0.12525092875E+02 0.13728369462E+02 0.15278716300E+02 0.16947258352E+02 0.18435883428E+02
 0.19460439819E+02 0.19824879513E+02 0.19460439819E+02 0.18435883428E+02 0.16947258352E+02
 0.15278716300E+02 0.13728369462E+02 0.12525092875E+02 0.11785884972E+02 0.11539640492E+02
 0.11785884972E+02 0.12525092875E+02 0.13728369462E+02 0.15278716300E+02 0.16947258352E+02
 0.18435883428E+02 0.19460439819E+02 0.14370040950E+02 0.14168846320E+02 0.13622975028E+02
 0.12882215053E+02 0.12132389463E+02 0.11538905751E+02 0.11220876038E+02 0.11268614853E+02
 0.11785884972E+02 0.12905953060E+02 0.14732815536E+02 0.17222302604E+02 0.20099278209E+02
 0.23126266966E+02 0.26788145055E+02 0.30206318162E+02 0.31628395721E+02 0.30206318162E+02
 0.26788145055E+02 0.23126266966E+02 0.20099278209E+02 0.17222302604E+02 0.14732815536E+02
 0.12905953060E+02 0.11785884972E+02 0.11268614853E+02 0.11220876038E+02 0.11538905751E+02
 0.12132389463E+02 0.12882215053E+02 0.13622975028E+02 0.14168846320E+02 0.10978621620E+02
 0.10899623662E+02 0.10693956519E+02 0.10447458484E+02 0.10273195561E+02 0.10275806684E+02
 0.10547479997E+02 0.11220876038E+02 0.12525092875E+02 0.14732815536E+02 0.17958109557E+02
 0.21958659574E+02 0.28118268923E+02 0.39288918906E+02 0.53867611521E+02 0.66502114497E+02
 0.71514705587E+02 0.66502114497E+02 0.53867611521E+02 0.39288918906E+02 0.28118268923E+02
 0.21958659574E+02 0.17958109557E+02 0.14732815536E+02 0.12525092875E+02 0.11220876038E+02
 0.10547479997E+02 0.10275806684E+02 0.10273195561E+02 0.10447458484E+02 0.10693956519E+02
 0.10899623662E+02 0.88400561302E+01 0.88546226515E+01 0.88906895710E+01 0.89628188113E+01
 0.91474141296E+01 0.95485202393E+01 0.10275806684E+02 0.11538905751E+02 0.13728369462E+02
 0.17222302604E+02 0.21958659574E+02 0.30545703882E+02 0.50172079137E+02 0.82009615934E+02
 0.11903742689E+03 0.14904097298E+03 0.16059255327E+03 0.14904097298E+03 0.11903742689E+03
 0.82009615934E+02 0.50172079137E+02 0.30545703882E+02 0.21958659574E+02 0.17222302604E+02
 0.13728369462E+02 0.11538905751E+02 0.10275806684E+02 0.95485202393E+01 0.91474141296E+01
 0.89628188113E+01 0.88906895710E+01 0.88546226515E+01 0.75946157692E+01 0.76752777980E+01
 0.78597992660E+01 0.80940006322E+01 0.84689887454E+01 0.91474141296E+01 0.10273195561E+02
 0.12132389463E+02 0.15278716300E+02 0.20099278209E+02 0.28118268923E+02 0.50172079137E+02
 0.94717446643E+02 0.15913195597E+03 0.22921118065E+03 0.28401471860E+03 0.30479356530E+03
 0.28401471860E+03 0.22921118065E+03 0.15913195597E+03 0.94717446643E+02 0.50172079137E+02
 0.28118268923E+02 0.20099278209E+02 0.15278716300E+02 0.12132389463E+02 0.10273195561E+02
 0.91474141296E+01 0.84689887454E+01 0.80940006322E+01 0.78597992660E+01 0.76752777980E+01
 0.70471010315E+01 0.71662966663E+01 0.74100953793E+01 0.76663548041E+01 0.80940006322E+01
 0.89628188113E+01 0.10447458484E+02 0.12882215053E+02 0.16947258352E+02 0.23126266966E+02
 0.39288918906E+02 0.82009615934E+02 0.15913195597E+03 0.26356115862E+03 0.37324041473E+03
 0.45751794139E+03 0.48924435529E+03 0.45751794139E+03 0.37324041473E+03 0.26356115862E+03
 0.15913195597E+03 0.82009615934E+02 0.39288918906E+02 0.23126266966E+02 0.16947258352E+02
 0.12882215053E+02 0.10447458484E+02 0.89628188113E+01 0.80940006322E+01 0.76663548041E+01
 0.74100953793E+01 0.71662966663E+01 0.67121839840E+01 0.68676032458E+01 0.71581872181E+01
 0.74100953793E+01 0.78597992660E+01 0.88906895710E+01 0.10693956519E+02 0.13622975028E+02
 0.18435883428E+02 0.26788145055E+02 0.53867611521E+02 0.11903742689E+03 0.22921118065E+03
 0.37324041473E+03 0.52190703444E+03 0.63527286226E+03 0.67783447068E+03 0.63527286226E+03
 0.52190703444E+03 0.37324041473E+03 0.22921118065E+03 0.11903742689E+03 0.53867611521E+02
 0.26788145055E+02 0.18435883428E+02 0.13622975028E+02 0.10693956519E+02 0.88906895710E+01
 0.78597992660E+01 0.74100953793E+01 0.71581872181E+01 0.68676032458E+01 0.62982771501E+01
 0.64985478529E+01 0.68676032458E+01 0.71662966663E+01 0.76752777980E+01 0.88546226515E+01
 0.10899623662E+02 0.14168846320E+02 0.19460439819E+02 0.30206318162E+02 0.66502114497E+02
 0.14904097298E+03 0.28401471860E+03 0.45751794139E+03 0.63527286226E+03 0.77045709451E+03
 0.82117562368E+03 0.77045709451E+03 0.63527286226E+03 0.45751794139E+03 0.28401471860E+03
 0.14904097298E+03 0.66502114497E+02 0.30206318162E+02 0.19460439819E+02 0.14168846320E+02
 0.10899623662E+02 0.88546226515E+01 0.76752777980E+01 0.71662966663E+01 0.68676032458E+01
 0.64985478529E+01 0.60751230843E+01 0.62982771501E+01 0.67121839840E+01 0.70471010315E+01
 0.75946157692E+01 0.88400561302E+01 0.10978621620E+02 0.14370040950E+02 0.19824879513E+02
 0.31628395721E+02 0.71514705587E+02 0.16059255327E+03 0.30479356530E+03 0.48924435529E+03
 0.67783447068E+03 0.82117562368E+03 0.87495057796E+03 0.82117562368E+03 0.67783447068E+03
 0.48924435529E+03 0.30479356530E+03 0.16059255327E+03 0.71514705587E+02 0.31628395721E+02
 0.19824879513E+02 0.14370040950E+02 0.10978621620E+02 0.88400561302E+01 0.75946157692E+01
 0.70471010315E+01 0.67121839840E+01 0.62982771501E+01 0.62982771501E+01 0.64985478529E+01
 0.68676032458E+01 0.71662966663E+01 0.76752777980E+01 0.88546226515E+01 0.10899623662E+02
 0.14168846320E+02 0.19460439819E+02 0.30206318162E+02 0.66502114497E+02 0.14904097298E+03
 0.28401471860E+03 0.45751794139E+03 0.63527286226E+03 0.77045709451E+03 0.82117562368E+03
 0.77045709451E+03 0.63527286226E+03 0.45751794139E+03 0.28401471860E+03 0.14904097298E+03
 0.66502114497E+02 0.30206318162E+02 0.19460439819E+02 0.14168846320E+02 0.10899623662E+02
 0.88546226515E+01 0.76752777980E+01 0.71662966663E+01 0.68676032458E+01 0.64985478529E+01
 0.67121839840E+01 0.68676032458E+01 0.71581872181E+01 0.74100953793E+01 0.78597992660E+01
 0.88906895710E+01 0.10693956519E+02 0.13622975028E+02 0.18435883428E+02 0.26788145055E+02
 0.53867611521E+02 0.11903742689E+03 0.22921118065E+03 0.37324041473E+03 0.52190703444E+03
 0.63527286226E+03 0.67783447068E+03 0.63527286226E+03 0.52190703444E+03 0.37324041473E+03
 0.22921118065E+03 0.11903742689E+03 0.53867611521E+02 0.26788145055E+02 0.18435883428E+02