    4    4    1    1
  0.1320827E+02  0.3752338E-09  0.3752338E-09  0.3752338E-09  0.5000000E-15
  1.000000000000000E-004
  CAR 
 unknown system                          
     44     35     30
 
  0.0000000E+00  0.0000000E+00  0.0000000E+00  0.1371742E-02
    1       -2.256923   1.000000
    2        2.013869   1.000000
    3        2.013869   1.000000
    4        2.013869   1.000000
    5        2.402191   1.000000
    6        2.402191   1.000000
    7        2.402191   1.000000
    8        3.571548   1.000000
    9        3.571548   1.000000
   10        3.571548   1.000000
   11        4.266026   1.000000
   12        4.266026   1.000000
   13        4.729593   1.000000
   14        4.729593   1.000000
   15        4.729593   1.000000
   16        4.860732   1.000000
   17        4.860732   1.000000
   18        4.860732   1.000000
   19        4.860732   1.000000
   20        4.860732   1.000000
   21        4.860732   1.000000
   22        7.857633  -0.000000
   23        7.857633  -0.000000
   24        7.857633  -0.000000
   25       12.641039   0.000000
   26       12.641039   0.000000
   27       12.641039   0.000000
   28       18.516567   0.000000
   29       18.516567   0.000000
   30       18.516567   0.000000
 
  0.1111111E+00  0.0000000E+00  0.0000000E+00  0.8230453E-02
    1       -2.118460   1.000000
    2        2.007095   1.000000
    3        2.074304   1.000000
    4        2.074304   1.000000
    5        2.435761   1.000000
    6        2.437878   1.000000
    7        2.437878   1.000000
    8        3.534693   1.000000
    9        3.601633   1.000000
   10        3.601633   1.000000
   11        4.232712   1.000000
   12        4.279711   1.000000
   13        4.660315   1.000000
   14        4.660315   1.000000
   15        4.686056   1.000000
   16        4.686056   1.000000
   17        4.714913   1.000000
   18        4.809706   1.000000
   19        4.809706   1.000000
   20        4.860679   1.000000
   21        4.860679   1.000000
   22        7.005460  -0.000000
   23        8.184709  -0.000000
   24        8.184709  -0.000000
   25       12.698433   0.000000
   26       12.698433   0.000000
   27       13.778385   0.000000
   28       17.648916   0.000000
   29       17.648917   0.000000
   30       17.906110   0.000000
 
  0.2222222E+00  0.0000000E+00  0.0000000E+00  0.8230453E-02
    1       -1.707850   1.000000
    2        1.932221   1.000000
    3        2.240478   1.000000
    4        2.240478   1.000000
    5        2.533532   1.000000
    6        2.546634   1.000000
    7        2.546634   1.000000
    8        3.429126   1.000000
    9        3.690582   1.000000
   10        3.690582   1.000000
   11        4.139780   1.000000
   12        4.226253   1.000000
   13        4.226253   1.000000
   14        4.319221   1.000000
   15        4.564318   1.000000
   16        4.564318   1.000000
   17        4.668826   1.000000
   18        4.668826   1.000000
   19        4.673901   1.000000
   20        4.860830   1.000000
   21        4.860830   1.000000
   22        5.543480   1.000013
   23        8.997908  -0.000000
   24        8.997908  -0.000000
   25       12.879755   0.000000
   26       12.879755   0.000000
   27       16.047624   0.000000
   28       16.047624   0.000000
   29       16.140989   0.000000
   30       16.687818   0.000000
 
  0.3333333E+00  0.0000000E+00  0.0000000E+00  0.8230453E-02
    1       -1.042397   1.000000
    2        1.591697   1.000000
    3        2.460292   1.000000
    4        2.460292   1.000000
    5        2.684455   1.000000
    6        2.731385   1.000000
    7        2.731385   1.000000
    8        3.269004   1.000000
    9        3.758624   1.000000
   10        3.758624   1.000000
   11        3.833796   1.000000
   12        3.833796   1.000000
   13        4.011418   1.000000
   14        4.379948   1.000000
   15        4.395250   1.000000
   16        4.395250   1.000000
   17        4.409251   1.000000
   18        4.467572   1.000000
   19        4.467572   1.000000
   20        4.611422   1.000000
   21        4.861049   1.000000
   22        4.861049   1.000000
   23       10.092658  -0.000000
   24       10.092658  -0.000000
   25       13.211175   0.000000
   26       13.211175   0.000000
   27       14.390301   0.000000
   28       14.390301   0.000000
   29       15.479188   0.000000
   30       15.479188   0.000000
 
  0.4444444E+00  0.0000000E+00  0.0000000E+00  0.8230453E-02
    1       -0.165282   1.000000
    2        0.807970   1.000000
    3        2.631748   1.000000
    4        2.631748   1.000000
    5        2.872292   1.000000
    6        2.994890   1.000000
    7        2.994890   1.000000
    8        3.075261   1.000000
    9        3.339402   1.000000
   10        3.339402   1.000000
   11        3.901343   1.000000
   12        3.937194   1.000000
   13        4.022647   1.000000
   14        4.022647   1.000000
   15        4.241726   1.000000
   16        4.241726   1.000000
   17        4.256670   1.000000
   18        4.256670   1.000000
   19        4.454945   1.000000
   20        4.535332   1.000000
   21        4.861132   1.000000
   22        4.861132   1.000000
   23       11.379302  -0.000000
   24       11.379302  -0.000000
   25       12.820228   0.000000
   26       12.820228   0.000000
   27       13.731281   0.000000
   28       13.731281   0.000000
   29       14.480642   0.000000
   30       14.480642   0.000000
 
  0.1111111E+00  0.1111111E+00  0.0000000E+00  0.1646091E-01
    1       -1.980939   1.000000
    2        2.070463   1.000000
    3        2.070463   1.000000
    4        2.132065   1.000000
    5        2.470506   1.000000
    6        2.470506   1.000000
    7        2.471754   1.000000
    8        3.515241   1.000000
    9        3.615645   1.000000
   10        3.626252   1.000000
   11        4.224309   1.000000
   12        4.273982   1.000000
   13        4.524212   1.000000
   14        4.564808   1.000000
   15        4.564808   1.000000
   16        4.646105   1.000000
   17        4.700166   1.000000
   18        4.700166   1.000000
   19        4.809598   1.000000
   20        4.809598   1.000000
   21        4.827536   1.000000
   22        7.321532  -0.000000
   23        7.321532  -0.000000
   24        8.481205  -0.000000
   25       12.757863   0.000000
   26       13.862876   0.000000
   27       13.862876   0.000000
   28       16.031466   0.000000
   29       17.829687   0.000000
   30       17.829688   0.000000
 
  0.2222222E+00  0.1111111E+00  0.0000000E+00  0.3292181E-01
    1       -1.573306   1.000000
    2        2.005084   1.000000
    3        2.245197   1.000000
    4        2.290627   1.000000
    5        2.564602   1.000000
    6        2.573525   1.000000
    7        2.575603   1.000000
    8        3.422475   1.000000
    9        3.695613   1.000000
   10        3.696376   1.000000
   11        4.128589   1.000000
   12        4.148484   1.000000
   13        4.156941   1.000000
   14        4.315155   1.000000
   15        4.349143   1.000000
   16        4.532825   1.000000
   17        4.574212   1.000000
   18        4.662605   1.000000
   19        4.668136   1.000000
   20        4.809124   1.000000
   21        4.810088   1.000000
   22        5.910382   1.027670
   23        8.058673  -0.000000
   24        9.246128  -0.000000
   25       12.943708   0.000000
   26       14.125944   0.000000
   27       14.301075   0.000000
   28       16.217258   0.000000
   29       16.244065   0.000000
   30       16.844474   0.000000
 
  0.3333333E+00  0.1111111E+00  0.0000000E+00  0.3292181E-01
    1       -0.913397   1.000000
    2        1.680161   1.000000
    3        2.478935   1.000000
    4        2.504726   1.000000
    5        2.710252   1.000000
    6        2.739082   1.000000
    7        2.753637   1.000000
    8        3.271050   1.000000
    9        3.672329   1.000000
   10        3.729676   1.000000
   11        3.784472   1.000000
   12        3.835864   1.000000
   13        4.008197   1.000000
   14        4.060712   1.000000
   15        4.375000   1.000000
   16        4.390909   1.000000
   17        4.405921   1.000000
   18        4.466771   1.000000
   19        4.557937   1.000000
   20        4.806496   1.000000
   21        4.808258   1.000000
   22        4.947183   1.000000
   23        9.003728  -0.000000
   24       10.305808  -0.000000
   25       12.707894   0.000000
   26       13.302328   0.000000
   27       14.559963   0.000000
   28       14.591897   0.000000
   29       15.615159   0.000000
   30       17.360830   0.000000
 
  0.4444444E+00  0.1111111E+00  0.0000000E+00  0.3292181E-01
    1       -0.045458   1.000000
    2        0.913755   1.000000
    3        2.669238   1.000000
    4        2.680474   1.000000
    5        2.890941   1.000000
    6        2.963268   1.000000
    7        3.006872   1.000000
    8        3.085829   1.000000
    9        3.274253   1.000000
   10        3.335406   1.000000
   11        3.780318   1.000000
   12        3.782082   1.000000
   13        4.023095   1.000000
   14        4.120108   1.000000
   15        4.241323   1.000000
   16        4.249463   1.000000
   17        4.262245   1.000000
   18        4.332865   1.000000
   19        4.489218   1.000000
   20        4.618181   1.000000
   21        4.806500   1.000000
   22        4.807307   1.000000
   23       10.091632  -0.000000
   24       11.320835  -0.000000
   25       11.569955  -0.000000
   26       12.997052   0.000000
   27       13.829308   0.000000
   28       14.594091   0.000000
   29       15.292794   0.000000
   30       16.228713   0.000000
 
  0.2222222E+00  0.2222222E+00  0.0000000E+00  0.1646091E-01
    1       -1.175197   1.000000
    2        2.207180   1.000000
    3        2.207180   1.000000
    4        2.426681   1.000000
    5        2.654876   1.000000
    6        2.658855   1.000000
    7        2.658855   1.000000
    8        3.375110   1.000000
    9        3.714795   1.000000
   10        3.741061   1.000000
   11        3.891395   1.000000
   12        3.891395   1.000000
   13        3.944202   1.000000
   14        4.123151   1.000000
   15        4.357974   1.000000
   16        4.441589   1.000000
   17        4.554106   1.000000
   18        4.554106   1.000000
   19        4.666534   1.000000
   20        4.666534   1.000000
   21        4.730391   1.000000
   22        6.595022  -0.010152
   23        6.595022  -0.010152
   24        9.921844  -0.000000
   25       12.443767   0.000000
   26       13.174167   0.000000
   27       16.557910   0.000000
   28       16.557910   0.000000
   29       16.711340   0.000000
   30       16.711340   0.000000
 
  0.3333333E+00  0.2222222E+00  0.0000000E+00  0.3292181E-01
    1       -0.533387   1.000000
    2        1.927059   1.000000
    3        2.485312   1.000000
    4        2.613897   1.000000
    5        2.776157   1.000000
    6        2.787182   1.000000
    7        2.817500   1.000000
    8        3.264727   1.000000
    9        3.475434   1.000000
   10        3.637514   1.000000
   11        3.640233   1.000000
   12        3.722121   1.000000
   13        3.856762   1.000000
   14        4.073238   1.000000
   15        4.311609   1.000000
   16        4.395945   1.000000
   17        4.459103   1.000000
   18        4.465265   1.000000
   19        4.478711   1.000000
   20        4.664661   1.000000
   21        4.686015   1.000000
   22        5.502992   1.000003
   23        7.410716  -0.000000
   24       10.849675  -0.000000
   25       10.906025  -0.000000
   26       13.542361   0.000000
   27       15.053867   0.000000
   28       16.013659   0.000000
   29       17.094589   0.000000
   30       17.493285   0.000000
 
  0.4444444E+00  0.2222222E+00  0.0000000E+00  0.3292181E-01
    1        0.303797   1.000000
    2        1.215429   1.000000
    3        2.738960   1.000000
    4        2.815154   1.000000
    5        2.874510   1.000000
    6        2.944931   1.000000
    7        3.039699   1.000000
    8        3.112099   1.000000
    9        3.129181   1.000000
   10        3.319687   1.000000
   11        3.572930   1.000000
   12        3.654344   1.000000
   13        4.031040   1.000000
   14        4.127006   1.000000
   15        4.214500   1.000000
   16        4.242447   1.000000
   17        4.249533   1.000000
   18        4.289564   1.000000
   19        4.654961   1.000000
   20        4.664273   1.000000
   21        4.668932   1.000000
   22        4.931992   1.000000
   23        8.362815  -0.000000
   24        9.494407  -0.000000
   25       12.116934   0.000000
   26       13.509454   0.000000
   27       14.121573   0.000000
   28       14.940183   0.000000
   29       17.854692   0.000000
   30       18.520044   0.000000
 
  0.3333333E+00  0.3333333E+00  0.0000000E+00  0.1646091E-01
    1        0.072667   1.000000
    2        2.271029   1.000000
    3        2.271029   1.000000
    4        2.707262   1.000000
    5        2.880047   1.000000
    6        2.913531   1.000000
    7        2.913531   1.000000
    8        3.223300   1.000000
    9        3.345910   1.000000
   10        3.345910   1.000000
   11        3.480323   1.000000
   12        3.670142   1.000000
   13        3.928274   1.000000
   14        4.020840   1.000000
   15        4.211865   1.000000
   16        4.313558   1.000000
   17        4.313558   1.000000
   18        4.466198   1.000000
   19        4.466198   1.000000
   20        4.574997   1.000000
   21        4.667651   1.000000
   22        6.148957   0.746524
   23        6.148957   0.746524
   24        9.252818  -0.000000
   25       11.814718   0.000000
   26       13.974749   0.000000
   27       15.835570   0.000000
   28       15.835570   0.000000
   29       16.673695   0.000000
   30       16.673695   0.000000
 
  0.4444444E+00  0.3333333E+00  0.0000000E+00  0.3292181E-01
    1        0.846317   1.000000
    2        1.658477   1.000000
    3        2.591155   1.000000
    4        2.732182   1.000000
    5        3.003654   1.000000
    6        3.027408   1.000000
    7        3.083761   1.000000
    8        3.135080   1.000000
    9        3.138609   1.000000
   10        3.282469   1.000000
   11        3.418179   1.000000
   12        3.567213   1.000000
   13        4.037514   1.000000
   14        4.065538   1.000000
   15        4.134119   1.000000
   16        4.165134   1.000000
   17        4.174855   1.000000
   18        4.254399   1.000000
   19        4.476496   1.000000
   20        4.507521   1.000000
   21        4.939175   1.000000
   22        5.368394   1.000000
   23        6.940101  -0.000002
   24        7.954366  -0.000000
   25       12.965465   0.000000
   26       14.315364   0.000000
   27       14.624827   0.000000
   28       15.520871   0.000000
   29       16.864745   0.000000
   30       17.580663   0.000000
 
  0.4444444E+00  0.4444444E+00  0.0000000E+00  0.1646091E-01
    1        1.502301   1.000000
    2        2.133302   1.000000
    3        2.133302   1.000000
    4        2.504093   1.000000
    5        3.124785   1.000000
    6        3.124785   1.000000
    7        3.145891   1.000000
    8        3.186584   1.000000
    9        3.215841   1.000000
   10        3.311437   1.000000
   11        3.311437   1.000000
   12        3.474405   1.000000
   13        3.980667   1.000000
   14        4.043323   1.000000
   15        4.050554   1.000000
   16        4.050554   1.000000
   17        4.149722   1.000000
   18        4.292406   1.000000
   19        4.292406   1.000000
   20        4.374492   1.000000
   21        5.334182   1.000000
   22        5.946738   1.034286
   23        5.946738   1.034286
   24        6.775124  -0.000241
   25       14.062704   0.000000
   26       15.359138   0.000000
   27       15.370952   0.000000
   28       15.370952   0.000000
   29       16.342855   0.000000
   30       16.342855   0.000000
 
  0.1111111E+00  0.1111111E+00  0.1111111E+00  0.1097394E-01
    1       -1.844454   1.000000
    2        2.130202   1.000000
    3        2.130202   1.000000
    4        2.130202   1.000000
    5        2.503367   1.000000
    6        2.503367   1.000000
    7        2.503367   1.000000
    8        3.498573   1.000000
    9        3.636785   1.000000
   10        3.636785   1.000000
   11        4.244890   1.000000
   12        4.244890   1.000000
   13        4.446116   1.000000
   14        4.446116   1.000000
   15        4.446116   1.000000
   16        4.598863   1.000000
   17        4.598863   1.000000
   18        4.598863   1.000000
   19        4.815643   1.000000
   20        4.815643   1.000000
   21        4.815643   1.000000
   22        7.595043  -0.000000
   23        7.595043  -0.000000
   24        7.595043  -0.000000
   25       13.949659   0.000000
   26       13.949659   0.000000
   27       13.949659   0.000000
   28       16.200143   0.000000
   29       16.200143   0.000000
   30       16.200143   0.000000
 
  0.2222222E+00  0.1111111E+00  0.1111111E+00  0.3292181E-01
    1       -1.440217   1.000000
    2        2.071759   1.000000
    3        2.294420   1.000000
    4        2.294420   1.000000
    5        2.595296   1.000000
    6        2.602374   1.000000
    7        2.602374   1.000000
    8        3.417633   1.000000
    9        3.696452   1.000000
   10        3.700369   1.000000
   11        4.070341   1.000000
   12        4.070341   1.000000
   13        4.170758   1.000000
   14        4.212139   1.000000
   15        4.303328   1.000000
   16        4.474901   1.000000
   17        4.500164   1.000000
   18        4.500164   1.000000
   19        4.773806   1.000000
   20        4.796557   1.000000
   21        4.796557   1.000000
   22        6.170198   0.665961
   23        8.272072  -0.000000
   24        8.272072  -0.000000
   25       14.219153   0.000000
   26       14.219153   0.000000
   27       14.463245   0.000000
   28       14.463245   0.000000
   29       16.348120   0.000000
   30       16.692027   0.000000
 
  0.3333333E+00  0.1111111E+00  0.1111111E+00  0.3292181E-01
    1       -0.786711   1.000000
    2        1.759901   1.000000
    3        2.517771   1.000000
    4        2.517771   1.000000
    5        2.737453   1.000000
    6        2.760430   1.000000
    7        2.760430   1.000000
    8        3.276484   1.000000
    9        3.657645   1.000000
   10        3.657645   1.000000
   11        3.766528   1.000000
   12        3.806185   1.000000
   13        3.881030   1.000000
   14        4.120096   1.000000
   15        4.306152   1.000000
   16        4.361321   1.000000
   17        4.361321   1.000000
   18        4.390906   1.000000
   19        4.699990   1.000000
   20        4.779545   1.000000
   21        4.779545   1.000000
   22        5.122764   1.000000
   23        9.173502  -0.000000
   24        9.173502  -0.000000
   25       12.889574   0.000000
   26       12.889574   0.000000
   27       14.696134   0.000000
   28       14.696134   0.000000
   29       17.471892   0.000000
   30       17.506708   0.000000
 
  0.4444444E+00  0.1111111E+00  0.1111111E+00  0.3292181E-01
    1        0.070382   1.000000
    2        1.012746   1.000000
    3        2.716327   1.000000
    4        2.716327   1.000000
    5        2.912895   1.000000
    6        2.941247   1.000000
    7        2.941247   1.000000
    8        3.100210   1.000000
    9        3.313173   1.000000
   10        3.313173   1.000000
   11        3.707524   1.000000
   12        3.735711   1.000000
   13        3.950300   1.000000
   14        4.122956   1.000000
   15        4.237708   1.000000
   16        4.237708   1.000000
   17        4.245163   1.000000
   18        4.495380   1.000000
   19        4.557809   1.000000
   20        4.602991   1.000000
   21        4.772077   1.000000
   22        4.772077   1.000000
   23       10.208005  -0.000000
   24       10.208005  -0.000000
   25       11.529511  -0.000000
   26       11.529511  -0.000000
   27       15.404807   0.000000
   28       15.404807   0.000000
   29       16.359992   0.000000
   30       16.359992   0.000000
 
  0.2222222E+00  0.2222222E+00  0.1111111E+00  0.3292181E-01
    1       -1.046887   1.000000
    2        2.253231   1.000000
    3        2.253231   1.000000
    4        2.425180   1.000000
    5        2.684615   1.000000
    6        2.688170   1.000000
    7        2.688170   1.000000
    8        3.379030   1.000000
    9        3.712172   1.000000
   10        3.726412   1.000000
   11        3.849078   1.000000
   12        3.849078   1.000000
   13        3.878361   1.000000
   14        4.173333   1.000000
   15        4.336495   1.000000
   16        4.370151   1.000000
   17        4.390370   1.000000
   18        4.390370   1.000000
   19        4.757104   1.000000
   20        4.757104   1.000000
   21        4.757600   1.000000
   22        6.766538  -0.000301
   23        6.766538  -0.000301
   24        8.838068  -0.000000
   25       12.637601   0.000000
   26       14.508829   0.000000
   27       14.936455   0.000000
   28       14.936455   0.000000
   29       16.665811   0.000000
   30       16.665811   0.000000
 
  0.3333333E+00  0.2222222E+00  0.1111111E+00  0.6584362E-01
    1       -0.414430   1.000000
    2        1.976517   1.000000
    3        2.495690   1.000000
    4        2.597395   1.000000
    5        2.806503   1.000000
    6        2.821666   1.000000
    7        2.835694   1.000000
    8        3.281798   1.000000
    9        3.495046   1.000000
   10        3.605126   1.000000
   11        3.617537   1.000000
   12        3.716545   1.000000
   13        3.797050   1.000000
   14        4.164978   1.000000
   15        4.225180   1.000000
   16        4.250709   1.000000
   17        4.290859   1.000000
   18        4.458547   1.000000
   19        4.676381   1.000000
   20        4.711841   1.000000
   21        4.711914   1.000000
   22        5.595608   1.000062
   23        7.536900  -0.000000
   24        9.598315  -0.000000
   25       11.103635  -0.000000
   26       13.355523   0.000000
   27       15.014648   0.000000
   28       15.688969   0.000000
   29       17.206098   0.000000
   30       17.938558   0.000000
 
  0.4444444E+00  0.2222222E+00  0.1111111E+00  0.6584362E-01
    1        0.406098   1.000000
    2        1.290942   1.000000
    3        2.723926   1.000000
    4        2.777239   1.000000
    5        2.873394   1.000000
    6        2.938471   1.000000
    7        2.980739   1.000000
    8        3.141099   1.000000
    9        3.283380   1.000000
   10        3.369302   1.000000
   11        3.562173   1.000000
   12        3.645743   1.000000
   13        3.904365   1.000000
   14        4.051871   1.000000
   15        4.162309   1.000000
   16        4.182957   1.000000
   17        4.296992   1.000000
   18        4.521399   1.000000
   19        4.628860   1.000000
   20        4.684451   1.000000
   21        4.684501   1.000000
   22        4.926082   1.000000
   23        8.455100  -0.000000
   24        9.498877  -0.000000
   25       10.867658  -0.000000
   26       11.983733   0.000000
   27       15.759221   0.000000
   28       16.687306   0.000000
   29       16.746939   0.000000
   30       17.906991   0.000000
 
  0.3333333E+00  0.3333333E+00  0.1111111E+00  0.3292181E-01
    1        0.175868   1.000000
    2        2.257690   1.000000
    3        2.257690   1.000000
    4        2.636121   1.000000
    5        2.927843   1.000000
    6        2.965522   1.000000
    7        2.965522   1.000000
    8        3.261284   1.000000
    9        3.384458   1.000000
   10        3.384458   1.000000
   11        3.510262   1.000000
   12        3.670434   1.000000
   13        3.812523   1.000000
   14        4.129314   1.000000
   15        4.152407   1.000000
   16        4.152407   1.000000
   17        4.162207   1.000000
   18        4.606590   1.000000
   19        4.606590   1.000000
   20        4.632659   1.000000
   21        4.640894   1.000000
   22        6.212442   0.490937
   23        6.212442   0.490937
   24        9.208873  -0.000000
   25       10.654289  -0.000000
   26       14.091557   0.000000
   27       14.091557   0.000000
   28       15.563128   0.000000
   29       17.698677   0.000000
   30       18.640777   0.000000
 
  0.4444444E+00  0.3333333E+00  0.1111111E+00  0.6584362E-01
    1        0.920141   1.000000
    2        1.684956   1.000000
    3        2.494347   1.000000
    4        2.614295   1.000000
    5        3.047386   1.000000
    6        3.097405   1.000000
    7        3.098242   1.000000
    8        3.198719   1.000000
    9        3.284729   1.000000
   10        3.395260   1.000000
   11        3.436554   1.000000
   12        3.573136   1.000000
   13        3.870312   1.000000
   14        3.993532   1.000000
   15        4.049841   1.000000
   16        4.070237   1.000000
   17        4.257163   1.000000
   18        4.442422   1.000000
   19        4.561874   1.000000
   20        4.572408   1.000000
   21        4.909583   1.000000
   22        5.363367   1.000000
   23        6.990115  -0.000000
   24        7.990663  -0.000000
   25       11.545119  -0.000000
   26       12.708568   0.000000
   27       15.071057   0.000000
   28       16.276048   0.000000
   29       16.356281   0.000000
   30       17.393976   0.000000
 
  0.4444444E+00  0.4444444E+00  0.1111111E+00  0.3292181E-01
    1        1.524493   1.000000
    2        2.084135   1.000000
    3        2.084135   1.000000
    4        2.393646   1.000000
    5        3.222572   1.000000
    6        3.248228   1.000000
    7        3.248553   1.000000
    8        3.248553   1.000000
    9        3.345284   1.000000
   10        3.345284   1.000000
   11        3.367735   1.000000
   12        3.490694   1.000000
   13        3.858279   1.000000
   14        3.936526   1.000000
   15        3.936526   1.000000
   16        3.949229   1.000000
   17        4.283626   1.000000
   18        4.410240   1.000000
   19        4.410240   1.000000
   20        4.463270   1.000000
   21        5.307165   1.000000
   22        5.946363   1.034241
   23        5.946363   1.034241
   24        6.792626  -0.000152
   25       12.496931   0.000000
   26       13.673456   0.000000
   27       13.673456   0.000000
   28       14.863934   0.000000
   29       17.201557   0.000000
   30       18.289946   0.000000
 
  0.2222222E+00  0.2222222E+00  0.2222222E+00  0.1097394E-01
    1       -0.669168   1.000000
    2        2.366076   1.000000
    3        2.366076   1.000000
    4        2.366076   1.000000
    5        2.781489   1.000000
    6        2.781489   1.000000
    7        2.781489   1.000000
    8        3.374472   1.000000
    9        3.711004   1.000000
   10        3.711004   1.000000
   11        3.711004   1.000000
   12        3.711202   1.000000
   13        3.711202   1.000000
   14        4.220312   1.000000
   15        4.220312   1.000000
   16        4.220312   1.000000
   17        4.291973   1.000000
   18        4.291973   1.000000
   19        4.782531   1.000000
   20        4.782531   1.000000
   21        4.782531   1.000000
   22        7.224952  -0.000000
   23        7.224952  -0.000000
   24        7.224952  -0.000000
   25       13.109641   0.000000
   26       13.109641   0.000000
   27       13.109641   0.000000
   28       16.992259   0.000000
   29       16.992259   0.000000
   30       16.992259   0.000000
 
  0.3333333E+00  0.2222222E+00  0.2222222E+00  0.3292181E-01
    1       -0.067970   1.000000
    2        2.094682   1.000000
    3        2.489613   1.000000
    4        2.489613   1.000000
    5        2.922445   1.000000
    6        2.922445   1.000000
    7        2.934493   1.000000
    8        3.329362   1.000000
    9        3.537721   1.000000
   10        3.537721   1.000000
   11        3.551978   1.000000
   12        3.697333   1.000000
   13        3.729790   1.000000
   14        4.055403   1.000000
   15        4.114284   1.000000
   16        4.114284   1.000000
   17        4.307364   1.000000
   18        4.435463   1.000000
   19        4.743926   1.000000
   20        4.743926   1.000000
   21        4.761254   1.000000
   22        5.901331   1.025616
   23        7.873313  -0.000000
   24        7.873313  -0.000000
   25       11.551721  -0.000000
   26       11.551721  -0.000000
   27       13.850001   0.000000
   28       17.469529   0.000000
   29       17.546847   0.000000
   30       17.546847   0.000000
 
  0.4444444E+00  0.2222222E+00  0.2222222E+00  0.3292181E-01
    1        0.696108   1.000000
    2        1.491177   1.000000
    3        2.577199   1.000000
    4        2.577199   1.000000
    5        3.008266   1.000000
    6        3.008266   1.000000
    7        3.099407   1.000000
    8        3.235394   1.000000
    9        3.460706   1.000000
   10        3.460706   1.000000
   11        3.530500   1.000000
   12        3.619103   1.000000
   13        3.795425   1.000000
   14        3.907261   1.000000
   15        4.039896   1.000000
   16        4.039896   1.000000
   17        4.519542   1.000000
   18        4.575106   1.000000
   19        4.688931   1.000000
   20        4.701273   1.000000
   21        4.701273   1.000000
   22        5.017374   1.000000
   23        8.570575  -0.000000
   24        8.570575  -0.000000
   25       10.396085  -0.000000
   26       10.396085  -0.000000
   27       14.833607   0.000000
   28       16.042575   0.000000
   29       18.332779   0.000000
   30       18.332779   0.000000
 
  0.3333333E+00  0.3333333E+00  0.2222222E+00  0.3292181E-01
    1        0.469249   1.000000
    2        2.217574   1.000000
    3        2.217574   1.000000
    4        2.445228   1.000000
    5        3.064881   1.000000
    6        3.107961   1.000000
    7        3.107961   1.000000