unknown system                          
   1.00000000000000     
     3.635000    0.000000    0.000000
     0.000000    3.635000    0.000000
     0.000000    0.000000    3.635000
   Cu
     4
Direct
  0.000000  0.000000  0.000000
  0.500000  0.500000  0.000000
  0.500000  0.000000  0.500000
  0.000000  0.500000  0.500000
 
   28   28   28
  839.56      777.15      614.81      412.02      230.05      105.57      43.055      22.081      14.142      10.146    
  8.6684      7.8174      7.4127      7.6890      7.9715      7.6890      7.4127      7.8174      8.6684      10.146    
  14.142      22.081      43.055      105.57      230.05      412.02      614.81      777.15      777.15      719.03    
  567.95      379.51      211.03      96.718      40.215      21.523      13.911      10.075      8.6184      7.7368    
  7.2693      7.4543      7.6890      7.4543      7.2693      7.7368      8.6184      10.075      13.911      21.523    
  40.215      96.718      211.03      379.51      567.95      719.03      614.81      567.95      446.37      295.59    
  162.54      74.702      33.463      20.036      13.256      9.9036      8.5830      7.7389      7.2306      7.2693    
  7.4127      7.2693      7.2306      7.7389      8.5830      9.9036      13.256      20.036      33.463      74.702    
  162.54      295.59      446.37      567.95      412.02      379.51      295.59      192.92      104.89      49.996    
  26.492      17.807      12.296      9.6970      8.7006      8.1003      7.7389      7.7368      7.8174      7.7368    
  7.7389      8.1003      8.7006      9.6970      12.296      17.807      26.492      49.996      104.89      192.92    
  295.59      379.51      230.05      211.03      162.54      104.89      58.224      31.937      21.421      15.206    
  11.254      9.5232      8.9518      8.7006      8.5830      8.6184      8.6684      8.6184      8.5830      8.7006    
  8.9518      9.5232      11.254      15.206      21.421      31.937      58.224      104.89      162.54      211.03    
  105.57      96.718      74.702      49.996      31.937      22.719      17.072      12.810      10.443      9.5929    
  9.5232      9.6970      9.9036      10.075      10.146      10.075      9.9036      9.6970      9.5232      9.5929    
  10.443      12.810      17.072      22.719      31.937      49.996      74.702      96.718      43.055      40.215    
  33.463      26.492      21.421      17.072      13.443      11.153      10.263      10.443      11.254      12.296    
  13.256      13.911      14.142      13.911      13.256      12.296      11.254      10.443      10.263      11.153    
  13.443      17.072      21.421      26.492      33.463      40.215      22.081      21.523      20.036      17.807    
  15.206      12.810      11.153      10.567      11.153      12.810      15.206      17.807      20.036      21.523    
  22.081      21.523      20.036      17.807      15.206      12.810      11.153      10.567      11.153      12.810    
  15.206      17.807      20.036      21.523      14.142      13.911      13.256      12.296      11.254      10.443    
  10.263      11.153      13.443      17.072      21.421      26.492      33.463      40.215      43.055      40.215    
  33.463      26.492      21.421      17.072      13.443      11.153      10.263      10.443      11.254      12.296    
  13.256      13.911      10.146      10.075      9.9036      9.6970      9.5232      9.5929      10.443      12.810    
  17.072      22.719      31.937      49.996      74.702      96.718      105.57      96.718      74.702      49.996    
  31.937      22.719      17.072      12.810      10.443      9.5929      9.5232      9.6970      9.9036      10.075    
  8.6684      8.6184      8.5830      8.7006      8.9518      9.5232      11.254      15.206      21.421      31.937    
  58.224      104.89      162.54      211.03      230.05      211.03      162.54      104.89      58.224      31.937    
  21.421      15.206      11.254      9.5232      8.9518      8.7006      8.5830      8.6184      7.8174      7.7368    
  7.7389      8.1003      8.7006      9.6970      12.296      17.807      26.492      49.996      104.89      192.92    
  295.59      379.51      412.02      379.51      295.59      192.92      104.89      49.996      26.492      17.807    
  12.296      9.6970      8.7006      8.1003      7.7389      7.7368      7.4127      7.2693      7.2306      7.7389    
  8.5830      9.9036      13.256      20.036      33.463      74.702      162.54      295.59      446.37      567.95    
  614.81      567.95      446.37      295.59      162.54      74.702      33.463      20.036      13.256      9.9036    
  8.5830      7.7389      7.2306      7.2693      7.6890      7.4543      7.2693      7.7368      8.6184      10.075    
  13.911      21.523      40.215      96.718      211.03      379.51      567.95      719.03      777.15      719.03    
  567.95      379.51      211.03      96.718      40.215      21.523      13.911      10.075      8.6184      7.7368    
  7.2693      7.4543      7.9715      7.6890      7.4127      7.8174      8.6684      10.146      14.142      22.081    
  43.055      105.57      230.05      412.02      614.81      777.15      839.56      777.15      614.81      412.02    
  230.05      105.57      43.055      22.081      14.142      10.146      8.6684      7.8174      7.4127      7.6890    
  7.6890      7.4543      7.2693      7.7368      8.6184      10.075      13.911      21.523      40.215      96.718    
  211.03      379.51      567.95      719.03      777.15      719.03      567.95      379.51      211.03      96.718    
  40.215      21.523      13.911      10.075      8.6184      7.7368      7.2693      7.4543      7.4127      7.2693    
  7.2306      7.7389      8.5830      9.9036      13.256      20.036      33.463      74.702      162.54      295.59    
  446.37      567.95      614.81      567.95      446.37      295.59      162.54      74.702      33.463      20.036    
  13.256      9.9036      8.5830      7.7389      7.2306      7.2693      7.8174      7.7368      7.7389      8.1003    
  8.7006      9.6970      12.296      17.807      26.492      49.996      104.89      192.92      295.59      379.51    
  412.02      379.51      295.59      192.92      104.89      49.996      26.492      17.807      12.296      9.6970    
  8.7006      8.1003      7.7389      7.7368      8.6684      8.6184      8.5830      8.7006      8.9518      9.5232    
  11.254      15.206      21.421      31.937      58.224      104.89      162.54      211.03      230.05      211.03    
  162.54      104.89      58.224      31.937      21.421      15.206      11.254      9.5232      8.9518      8.7006    
  8.5830      8.6184      10.146      10.075      9.9036      9.6970      9.5232      9.5929      10.443      12.810    
  17.072      22.719      31.937      49.996      74.702      96.718      105.57      96.718      74.702      49.996    
  31.937      22.719      17.072      12.810      10.443      9.5929      9.5232      9.6970      9.9036      10.075    
  14.142      13.911      13.256      12.296      11.254      10.443      10.263      11.153      13.443      17.072    
  21.421      26.492      33.463      40.215      43.055      40.215      33.463      26.492      21.421      17.072    
  13.443      11.153      10.263      10.443      11.254      12.296      13.256      13.911      22.081      21.523    
  20.036      17.807      15.206      12.810      11.153      10.567      11.153      12.810      15.206      17.807    
  20.036      21.523      22.081      21.523      20.036      17.807      15.206      12.810      11.153      10.567    
  11.153      12.810      15.206      17.807      20.036      21.523      43.055      40.215      33.463      26.492    
  21.421      17.072      13.443      11.153      10.263      10.443      11.254      12.296      13.256      13.911    
  14.142      13.911      13.256      12.296      11.254      10.443      10.263      11.153      13.443      17.072    
  21.421      26.492      33.463      40.215      105.57      96.718      74.702      49.996      31.937      22.719    
  17.072      12.810      10.443      9.5929      9.5232      9.6970      9.9036      10.075      10.146      10.075    
  9.9036      9.6970      9.5232      9.5929      10.443      12.810      17.072      22.719      31.937      49.996    
  74.702      96.718      230.05      211.03      162.54      104.89      58.224      31.937      21.421      15.206    
  11.254      9.5232      8.9518      8.7006      8.5830      8.6184      8.6684      8.6184      8.5830      8.7006    
  8.9518      9.5232      11.254      15.206      21.421      31.937      58.224      104.89      162.54      211.03    
  412.02      379.51      295.59      192.92      104.89      49.996      26.492      17.807      12.296      9.6970    
  8.7006      8.1003      7.7389      7.7368      7.8174      7.7368      7.7389      8.1003      8.7006      9.6970    
  12.296      17.807      26.492      49.996      104.89      192.92      295.59      379.51      614.81      567.95    
  446.37      295.59      162.54      74.702      33.463      20.036      13.256      9.9036      8.5830      7.7389    
  7.2306      7.2693      7.4127      7.2693      7.2306      7.7389      8.5830      9.9036      13.256      20.036    
  33.463      74.702      162.54      295.59      446.37      567.95      777.15      719.03      567.95      379.51    
  211.03      96.718      40.215      21.523      13.911      10.075      8.6184      7.7368      7.2693      7.4543    
  7.6890      7.4543      7.2693      7.7368      8.6184      10.075      13.911      21.523      40.215      96.718    
  211.03      379.51      567.95      719.03      777.15      719.03      567.95      379.51      211.03      96.718    
  40.215      21.523      13.911      10.075      8.6184      7.7368      7.2693      7.4543      7.6890      7.4543    
  7.2693      7.7368      8.6184      10.075      13.911      21.523      40.215      96.718      211.03      379.51    
  567.95      719.03      719.03      664.94      524.38      349.35      193.49      88.651      37.681      21.001    
  13.690      10.018      8.5881      7.6845      7.1624      7.2640      7.4543      7.2640      7.1624      7.6845    
  8.5881      10.018      13.690      21.001      37.681      88.651      193.49      349.35      524.38      664.94    
  567.95      524.38      411.41      271.62      148.87      68.655      31.678      19.561      13.063      9.8734    
  8.5914      7.7398      7.1916      7.1624      7.2693      7.1624      7.1916      7.7398      8.5914      9.8734    
  13.063      19.561      31.678      68.655      148.87      271.62      411.41      524.38      379.51      349.35    
  271.62      176.82      96.087      46.387      25.494      17.386      12.146      9.6925      8.7351      8.1325    
  7.7398      7.6845      7.7368      7.6845      7.7398      8.1325      8.7351      9.6925      12.146      17.386    
  25.494      46.387      96.087      176.82      271.62      349.35      211.03      193.49      148.87      96.087    
  53.765      30.305      20.832      14.878      11.152      9.5324      8.9905      8.7351      8.5914      8.5881    
  8.6184      8.5881      8.5914      8.7351      8.9905      9.5324      11.152      14.878      20.832      30.305    
  53.765      96.087      148.87      193.49      96.718      88.651      68.655      46.387      30.305      22.051    
  16.628      12.587      10.375      9.5912      9.5324      9.6925      9.8734      10.018      10.075      10.018    
  9.8734      9.6925      9.5324      9.5912      10.375      12.587      16.628      22.051      30.305      46.387    
  68.655      88.651      40.215      37.681      31.678      25.494      20.832      16.628      13.168      11.011    
  10.188      10.375      11.152      12.146      13.063      13.690      13.911      13.690      13.063      12.146    
  11.152      10.375      10.188      11.011      13.168      16.628      20.832      25.494      31.678      37.681    
  21.523      21.001      19.561      17.386      14.878      12.587      11.011      10.455      11.011      12.587    
  14.878      17.386      19.561      21.001      21.523      21.001      19.561      17.386      14.878      12.587    
  11.011      10.455      11.011      12.587      14.878      17.386      19.561      21.001      13.911      13.690    
  13.063      12.146      11.152      10.375      10.188      11.011      13.168      16.628      20.832      25.494    
  31.678      37.681      40.215      37.681      31.678      25.494      20.832      16.628      13.168      11.011    
  10.188      10.375      11.152      12.146      13.063      13.690      10.075      10.018      9.8734      9.6925    
  9.5324      9.5912      10.375      12.587      16.628      22.051      30.305      46.387      68.655      88.651    
  96.718      88.651      68.655      46.387      30.305      22.051      16.628      12.587      10.375      9.5912    
  9.5324      9.6925      9.8734      10.018      8.6184      8.5881      8.5914      8.7351      8.9905      9.5324    
  11.152      14.878      20.832      30.305      53.765      96.087      148.87      193.49      211.03      193.49    
  148.87      96.087      53.765      30.305      20.832      14.878      11.152      9.5324      8.9905      8.7351    
  8.5914      8.5881      7.7368      7.6845      7.7398      8.1325      8.7351      9.6925      12.146      17.386    
  25.494      46.387      96.087      176.82      271.62      349.35      379.51      349.35      271.62      176.82    
  96.087      46.387      25.494      17.386      12.146      9.6925      8.7351      8.1325      7.7398      7.6845    
  7.2693      7.1624      7.1916      7.7398      8.5914      9.8734      13.063      19.561      31.678      68.655    
  148.87      271.62      411.41      524.38      567.95      524.38      411.41      271.62      148.87      68.655    
  31.678      19.561      13.063      9.8734      8.5914      7.7398      7.1916      7.1624      7.4543      7.2640    
  7.1624      7.6845      8.5881      10.018      13.690      21.001      37.681      88.651      193.49      349.35    
  524.38      664.94      719.03      664.94      524.38      349.35      193.49      88.651      37.681      21.001    
  13.690      10.018      8.5881      7.6845      7.1624      7.2640      7.6890      7.4543      7.2693      7.7368    
  8.6184      10.075      13.911      21.523      40.215      96.718      211.03      379.51      567.95      719.03    
  777.15      719.03      567.95      379.51      211.03      96.718      40.215      21.523      13.911      10.075    
  8.6184      7.7368      7.2693      7.4543      7.4543      7.2640      7.1624      7.6845      8.5881      10.018    
  13.690      21.001      37.681      88.651      193.49      349.35      524.38      664.94      719.03      664.94    
  524.38      349.35      193.49      88.651      37.681      21.001      13.690      10.018      8.5881      7.6845    
  7.1624      7.2640      7.2693      7.1624      7.1916      7.7398      8.5914      9.8734      13.063      19.561    
  31.678      68.655      148.87      271.62      411.41      524.38      567.95      524.38      411.41      271.62    
  148.87      68.655      31.678      19.561      13.063      9.8734      8.5914      7.7398      7.1916      7.1624    
  7.7368      7.6845      7.7398      8.1325      8.7351      9.6925      12.146      17.386      25.494      46.387    
  96.087      176.82      271.62      349.35      379.51      349.35      271.62      176.82      96.087      46.387    
  25.494      17.386      12.146      9.6925      8.7351      8.1325      7.7398      7.6845      8.6184      8.5881    
  8.5914      8.7351      8.9905      9.5324      11.152      14.878      20.832      30.305      53.765      96.087    
  148.87      193.49      211.03      193.49      148.87      96.087      53.765      30.305      20.832      14.878    
  11.152      9.5324      8.9905      8.7351      8.5914      8.5881      10.075      10.018      9.8734      9.6925    
  9.5324      9.5912      10.375      12.587      16.628      22.051      30.305      46.387      68.655      88.651    
  96.718      88.651      68.655      46.387      30.305      22.051      16.628      12.587      10.375      9.5912    
  9.5324      9.6925      9.8734      10.018      13.911      13.690      13.063      12.146      11.152      10.375    
  10.188      11.011      13.168      16.628      20.832      25.494      31.678      37.681      40.215      37.681    
  31.678      25.494      20.832      16.628      13.168      11.011      10.188      10.375      11.152      12.146    
  13.063      13.690      21.523      21.001      19.561      17.386      14.878      12.587      11.011      10.455    
  11.011      12.587      14.878      17.386      19.561      21.001      21.523      21.001      19.561      17.386    
  14.878      12.587      11.011      10.455      11.011      12.587      14.878      17.386      19.561      21.001    
  40.215      37.681      31.678      25.494      20.832      16.628      13.168      11.011      10.188      10.375    
  11.152      12.146      13.063      13.690      13.911      13.690      13.063      12.146      11.152      10.375    
  10.188      11.011      13.168      16.628      20.832      25.494      31.678      37.681      96.718      88.651    
  68.655      46.387      30.305      22.051      16.628      12.587      10.375      9.5912      9.5324      9.6925    
  9.8734      10.018      10.075      10.018      9.8734      9.6925      9.5324      9.5912      10.375      12.587    
  16.628      22.051      30.305      46.387      68.655      88.651      211.03      193.49      148.87      96.087    
  53.765      30.305      20.832      14.878      11.152      9.5324      8.9905      8.7351      8.5914      8.5881    
  8.6184      8.5881      8.5914      8.7351      8.9905      9.5324      11.152      14.878      20.832      30.305    
  53.765      96.087      148.87      193.49      379.51      349.35      271.62      176.82      96.087      46.387    
  25.494      17.386      12.146      9.6925      8.7351      8.1325      7.7398      7.6845      7.7368      7.6845    
  7.7398      8.1325      8.7351      9.6925      12.146      17.386      25.494      46.387      96.087      176.82    
  271.62      349.35      567.95      524.38      411.41      271.62      148.87      68.655      31.678      19.561    
  13.063      9.8734      8.5914      7.7398      7.1916      7.1624      7.2693      7.1624      7.1916      7.7398    
  8.5914      9.8734      13.063      19.561      31.678      68.655      148.87      271.62      411.41      524.38    
  719.03      664.94      524.38      349.35      193.49      88.651      37.681      21.001      13.690      10.018    
  8.5881      7.6845      7.1624      7.2640      7.4543      7.2640      7.1624      7.6845      8.5881      10.018    
  13.690      21.001      37.681      88.651      193.49      349.35      524.38      664.94      614.81      567.95    
  446.37      295.59      162.54      74.702      33.463      20.036      13.256      9.9036      8.5830      7.7389    
  7.2306      7.2693      7.4127      7.2693      7.2306      7.7389      8.5830      9.9036      13.256      20.036    
  33.463      74.702      162.54      295.59      446.37      567.95      567.95      524.38      411.41      271.62    
  148.87      68.655      31.678      19.561      13.063      9.8734      8.5914      7.7398      7.1916      7.1624    
  7.2693      7.1624      7.1916      7.7398      8.5914      9.8734      13.063      19.561      31.678      68.655    
  148.87      271.62      411.41      524.38      446.37      411.41      321.06      210.11      114.33      53.833    
  27.479      18.209      12.518      9.7905      8.6650      7.8799      7.3235      7.1916      7.2306      7.1916    
  7.3235      7.8799      8.6650      9.7905      12.518      18.209      27.479      53.833      114.33      210.11    
  321.06      411.41      295.59      271.62      210.11      135.93      74.163      37.725      23.089      16.221    
  11.729      9.6683      8.8427      8.2887      7.8799      7.7398      7.7389      7.7398      7.8799      8.2887    
  8.8427      9.6683      11.729      16.221      23.089      37.725      74.163      135.93      210.11      271.62    
  162.54      148.87      114.33      74.163      42.966      26.462      19.207      13.998      10.875      9.5434    
  9.0856      8.8427      8.6650      8.5914      8.5830      8.5914      8.6650      8.8427      9.0856      9.5434    
  10.875      13.998      19.207      26.462      42.966      74.163      114.33      148.87      74.702      68.655    
  53.833      37.725      26.462      20.270      15.444      12.012      10.201      9.5813      9.5434      9.6683    
  9.7905      9.8734      9.9036      9.8734      9.7905      9.6683      9.5434      9.5813      10.201      12.012    
  15.444      20.270      26.462      37.725      53.833      68.655      33.463      31.678      27.479      23.089    
  19.207      15.444      12.462      10.664      10.012      10.201      10.875      11.729      12.518      13.063    
  13.256      13.063      12.518      11.729      10.875      10.201      10.012      10.664      12.462      15.444    
  19.207      23.089      27.479      31.678      20.036      19.561      18.209      16.221      13.998      12.012    
  10.664      10.190      10.664      12.012      13.998      16.221      18.209      19.561      20.036      19.561    
  18.209      16.221      13.998      12.012      10.664      10.190      10.664      12.012      13.998      16.221    
  18.209      19.561      13.256      13.063      12.518      11.729      10.875      10.201      10.012      10.664    
  12.462      15.444      19.207      23.089      27.479      31.678      33.463      31.678      27.479      23.089    
  19.207      15.444      12.462      10.664      10.012      10.201      10.875      11.729      12.518      13.063    
  9.9036      9.8734      9.7905      9.6683      9.5434      9.5813      10.201      12.012      15.444      20.270    
  26.462      37.725      53.833      68.655      74.702      68.655      53.833      37.725      26.462      20.270    
  15.444      12.012      10.201      9.5813      9.5434      9.6683      9.7905      9.8734      8.5830      8.5914    
  8.6650      8.8427      9.0856      9.5434      10.875      13.998      19.207      26.462      42.966      74.163    
  114.33      148.87      162.54      148.87      114.33      74.163      42.966      26.462      19.207      13.998    
  10.875      9.5434      9.0856      8.8427      8.6650      8.5914      7.7389      7.7398      7.8799      8.2887    
  8.8427      9.6683      11.729      16.221      23.089      37.725      74.163      135.93      210.11      271.62    
  295.59      271.62      210.11      135.93      74.163      37.725      23.089      16.221      11.729      9.6683    
  8.8427      8.2887      7.8799      7.7398      7.2306      7.1916      7.3235      7.8799      8.6650      9.7905    
  12.518      18.209      27.479      53.833      114.33      210.11      321.06      411.41      446.37      411.41    
  321.06      210.11      114.33      53.833      27.479      18.209      12.518      9.7905      8.6650      7.8799    
  7.3235      7.1916      7.2693      7.1624      7.1916      7.7398      8.5914      9.8734      13.063      19.561    
  31.678      68.655      148.87      271.62      411.41      524.38      567.95      524.38      411.41      271.62    
  148.87      68.655      31.678      19.561      13.063      9.8734      8.5914      7.7398      7.1916      7.1624    
  7.4127      7.2693      7.2306      7.7389      8.5830      9.9036      13.256      20.036      33.463      74.702    
  162.54      295.59      446.37      567.95      614.81      567.95      446.37      295.59      162.54      74.702    
  33.463      20.036      13.256      9.9036      8.5830      7.7389      7.2306      7.2693      7.2693      7.1624    
  7.1916      7.7398      8.5914      9.8734      13.063      19.561      31.678      68.655      148.87      271.62    
  411.41      524.38      567.95      524.38      411.41      271.62      148.87      68.655      31.678      19.561    
  13.063      9.8734      8.5914      7.7398      7.1916      7.1624      7.2306      7.1916      7.3235      7.8799    
  8.6650      9.7905      12.518      18.209      27.479      53.833      114.33      210.11      321.06      411.41    
  446.37      411.41      321.06      210.11      114.33      53.833      27.479      18.209      12.518      9.7905    
  8.6650      7.8799      7.3235      7.1916      7.7389      7.7398      7.8799      8.2887      8.8427      9.6683    
  11.729      16.221      23.089      37.725      74.163      135.93      210.11      271.62      295.59      271.62    
  210.11      135.93      74.163      37.725      23.089      16.221      11.729      9.6683      8.8427      8.2887    
  7.8799      7.7398      8.5830      8.5914      8.6650      8.8427      9.0856      9.5434      10.875      13.998    
  19.207      26.462      42.966      74.163      114.33      148.87      162.54      148.87      114.33      74.163    
  42.966      26.462      19.207      13.998      10.875      9.5434      9.0856      8.8427      8.6650      8.5914    
  9.9036      9.8734      9.7905      9.6683      9.5434      9.5813      10.201      12.012      15.444      20.270    
  26.462      37.725      53.833      68.655      74.702      68.655      53.833      37.725      26.462      20.270    
  15.444      12.012      10.201      9.5813      9.5434      9.6683      9.7905      9.8734      13.256      13.063    
  12.518      11.729      10.875      10.201      10.012      10.664      12.462      15.444      19.207      23.089    
  27.479      31.678      33.463      31.678      27.479      23.089      19.207      15.444      12.462      10.664    
  10.012      10.201      10.875      11.729      12.518      13.063      20.036      19.561      18.209      16.221    
  13.998      12.012      10.664      10.190      10.664      12.012      13.998      16.221      18.209      19.561    
  20.036      19.561      18.209      16.221      13.998      12.012      10.664      10.190      10.664      12.012    
  13.998      16.221      18.209      19.561      33.463      31.678      27.479      23.089      19.207      15.444    
  12.462      10.664      10.012      10.201      10.875      11.729      12.518      13.063      13.256      13.063    
  12.518      11.729      10.875      10.201      10.012      10.664      12.462      15.444      19.207      23.089    
  27.479      31.678      74.702      68.655      53.833      37.725      26.462      20.270      15.444      12.012    
  10.201      9.5813      9.5434      9.6683      9.7905      9.8734      9.9036      9.8734      9.7905      9.6683    
  9.5434      9.5813      10.201      12.012      15.444      20.270      26.462      37.725      53.833      68.655    
  162.54      148.87      114.33      74.163      42.966      26.462      19.207      13.998      10.875      9.5434    
  9.0856      8.8427      8.6650      8.5914      8.5830      8.5914      8.6650      8.8427      9.0856      9.5434    
  10.875      13.998      19.207      26.462      42.966      74.163      114.33      148.87      295.59      271.62    
  210.11      135.93      74.163      37.725      23.089      16.221      11.729      9.6683      8.8427      8.2887    
  7.8799      7.7398      7.7389      7.7398      7.8799      8.2887      8.8427      9.6683      11.729      16.221    
  23.089      37.725      74.163      135.93      210.11      271.62      446.37      411.41      321.06      210.11    
  114.33      53.833      27.479      18.209      12.518      9.7905      8.6650      7.8799      7.3235      7.1916    
  7.2306      7.1916      7.3235      7.8799      8.6650      9.7905      12.518      18.209      27.479      53.833    
  114.33      210.11      321.06      411.41      567.95      524.38      411.41      271.62      148.87      68.655    
  31.678      19.561      13.063      9.8734      8.5914      7.7398      7.1916      7.1624      7.2693      7.1624    
  7.1916      7.7398      8.5914      9.8734      13.063      19.561      31.678      68.655      148.87      271.62    
  411.41      524.38      412.02      379.51      295.59      192.92      104.89      49.996      26.492      17.807    
  12.296      9.6970      8.7006      8.1003      7.7389      7.7368      7.8174      7.7368      7.7389      8.1003    
  8.7006      9.6970      12.296      17.807      26.492      49.996      104.89      192.92      295.59      379.51    
  379.51      349.35      271.62      176.82      96.087      46.387      25.494      17.386      12.146      9.6925    
  8.7351      8.1325      7.7398      7.6845      7.7368      7.6845      7.7398      8.1325      8.7351      9.6925    
  12.146      17.386      25.494      46.387      96.087      176.82      271.62      349.35      295.59      271.62    
  210.11      135.93      74.163      37.725      23.089      16.221      11.729      9.6683      8.8427      8.2887    
  7.8799      7.7398      7.7389      7.7398      7.8799      8.2887      8.8427      9.6683      11.729      16.221    
  23.089      37.725      74.163      135.93      210.11      271.62      192.92      176.82      135.93      87.772    
  49.524      28.677      20.170      14.579      11.134      9.6078      9.0054      8.6072      8.2887      8.1325    