unknown system                          
   1.00000000000000     
     3.635000    0.000000    0.000000
     0.000000    3.635000    0.000000
     0.000000    0.000000    3.635000
   Cu
     4
Direct
  0.000000  0.000000  0.000000
  0.500000  0.500000  0.000000
  0.500000  0.000000  0.500000
  0.000000  0.500000  0.500000
 
   28   28   28
 0.83955587616E+03 0.77714517088E+03 0.61480516558E+03 0.41201987249E+03 0.23004637030E+03
 0.10557029634E+03 0.43054623068E+02 0.22080528180E+02 0.14142114616E+02 0.10145577949E+02
 0.86684287777E+01 0.78174256700E+01 0.74127092728E+01 0.76890258138E+01 0.79715391657E+01
 0.76890258138E+01 0.74127092728E+01 0.78174256700E+01 0.86684287777E+01 0.10145577949E+02
 0.14142114616E+02 0.22080528180E+02 0.43054623068E+02 0.10557029634E+03 0.23004637030E+03
 0.41201987249E+03 0.61480516558E+03 0.77714517088E+03 0.77714517088E+03 0.71903245363E+03
 0.56794799903E+03 0.37950671438E+03 0.21102986825E+03 0.96718236695E+02 0.40214761489E+02
 0.21523268735E+02 0.13911476243E+02 0.10075447918E+02 0.86184181971E+01 0.77368256666E+01
 0.72692561048E+01 0.74543347379E+01 0.76890258138E+01 0.74543347379E+01 0.72692561048E+01
 0.77368256666E+01 0.86184181971E+01 0.10075447918E+02 0.13911476243E+02 0.21523268735E+02
 0.40214761489E+02 0.96718236695E+02 0.21102986825E+03 0.37950671438E+03 0.56794799903E+03
 0.71903245363E+03 0.61480516558E+03 0.56794799903E+03 0.44637290140E+03 0.29559271053E+03
 0.16253505669E+03 0.74701918257E+02 0.33463115376E+02 0.20036009433E+02 0.13255842652E+02
 0.99035948290E+01 0.85829922506E+01 0.77389016247E+01 0.72306117444E+01 0.72692561048E+01
 0.74127092728E+01 0.72692561048E+01 0.72306117444E+01 0.77389016247E+01 0.85829922506E+01
 0.99035948290E+01 0.13255842652E+02 0.20036009433E+02 0.33463115376E+02 0.74701918257E+02
 0.16253505669E+03 0.29559271053E+03 0.44637290140E+03 0.56794799903E+03 0.41201987249E+03
 0.37950671438E+03 0.29559271053E+03 0.19292166987E+03 0.10489314354E+03 0.49995541915E+02
 0.26492309569E+02 0.17807409796E+02 0.12296306248E+02 0.96970449569E+01 0.87005567738E+01
 0.81002963804E+01 0.77389016247E+01 0.77368256666E+01 0.78174256700E+01 0.77368256666E+01
 0.77389016247E+01 0.81002963804E+01 0.87005567738E+01 0.96970449569E+01 0.12296306248E+02
 0.17807409796E+02 0.26492309569E+02 0.49995541915E+02 0.10489314354E+03 0.19292166987E+03
 0.29559271053E+03 0.37950671438E+03 0.23004637030E+03 0.21102986825E+03 0.16253505669E+03
 0.10489314354E+03 0.58223601342E+02 0.31937260464E+02 0.21420584069E+02 0.15205970083E+02
 0.11253527099E+02 0.95232203440E+01 0.89518248423E+01 0.87005567738E+01 0.85829922506E+01
 0.86184181971E+01 0.86684287777E+01 0.86184181971E+01 0.85829922506E+01 0.87005567738E+01
 0.89518248423E+01 0.95232203440E+01 0.11253527099E+02 0.15205970083E+02 0.21420584069E+02
 0.31937260464E+02 0.58223601342E+02 0.10489314354E+03 0.16253505669E+03 0.21102986825E+03
 0.10557029634E+03 0.96718236695E+02 0.74701918257E+02 0.49995541915E+02 0.31937260464E+02
 0.22718781749E+02 0.17071972403E+02 0.12809551972E+02 0.10442961809E+02 0.95928561660E+01
 0.95232203440E+01 0.96970449569E+01 0.99035948290E+01 0.10075447918E+02 0.10145577949E+02
 0.10075447918E+02 0.99035948290E+01 0.96970449569E+01 0.95232203440E+01 0.95928561660E+01
 0.10442961809E+02 0.12809551972E+02 0.17071972403E+02 0.22718781749E+02 0.31937260464E+02
 0.49995541915E+02 0.74701918257E+02 0.96718236695E+02 0.43054623068E+02 0.40214761489E+02
 0.33463115376E+02 0.26492309569E+02 0.21420584069E+02 0.17071972403E+02 0.13442722684E+02
 0.11153294639E+02 0.10262727774E+02 0.10442961809E+02 0.11253527099E+02 0.12296306248E+02
 0.13255842652E+02 0.13911476243E+02 0.14142114616E+02 0.13911476243E+02 0.13255842652E+02
 0.12296306248E+02 0.11253527099E+02 0.10442961809E+02 0.10262727774E+02 0.11153294639E+02
 0.13442722684E+02 0.17071972403E+02 0.21420584069E+02 0.26492309569E+02 0.33463115376E+02
 0.40214761489E+02 0.22080528180E+02 0.21523268735E+02 0.20036009433E+02 0.17807409796E+02
 0.15205970083E+02 0.12809551972E+02 0.11153294639E+02 0.10566893319E+02 0.11153294639E+02
 0.12809551972E+02 0.15205970083E+02 0.17807409796E+02 0.20036009433E+02 0.21523268735E+02
 0.22080528180E+02 0.21523268735E+02 0.20036009433E+02 0.17807409796E+02 0.15205970083E+02
 0.12809551972E+02 0.11153294639E+02 0.10566893319E+02 0.11153294639E+02 0.12809551972E+02
 0.15205970083E+02 0.17807409796E+02 0.20036009433E+02 0.21523268735E+02 0.14142114616E+02
 0.13911476243E+02 0.13255842652E+02 0.12296306248E+02 0.11253527099E+02 0.10442961809E+02
 0.10262727774E+02 0.11153294639E+02 0.13442722684E+02 0.17071972403E+02 0.21420584069E+02
 0.26492309569E+02 0.33463115376E+02 0.40214761489E+02 0.43054623068E+02 0.40214761489E+02
 0.33463115376E+02 0.26492309569E+02 0.21420584069E+02 0.17071972403E+02 0.13442722684E+02
 0.11153294639E+02 0.10262727774E+02 0.10442961809E+02 0.11253527099E+02 0.12296306248E+02
 0.13255842652E+02 0.13911476243E+02 0.10145577949E+02 0.10075447918E+02 0.99035948290E+01
 0.96970449569E+01 0.95232203440E+01 0.95928561660E+01 0.10442961809E+02 0.12809551972E+02
 0.17071972403E+02 0.22718781749E+02 0.31937260464E+02 0.49995541915E+02 0.74701918257E+02
 0.96718236695E+02 0.10557029634E+03 0.96718236695E+02 0.74701918257E+02 0.49995541915E+02
 0.31937260464E+02 0.22718781749E+02 0.17071972403E+02 0.12809551972E+02 0.10442961809E+02
 0.95928561660E+01 0.95232203440E+01 0.96970449569E+01 0.99035948290E+01 0.10075447918E+02
 0.86684287777E+01 0.86184181971E+01 0.85829922506E+01 0.87005567738E+01 0.89518248423E+01
 0.95232203440E+01 0.11253527099E+02 0.15205970083E+02 0.21420584069E+02 0.31937260464E+02
 0.58223601342E+02 0.10489314354E+03 0.16253505669E+03 0.21102986825E+03 0.23004637030E+03
 0.21102986825E+03 0.16253505669E+03 0.10489314354E+03 0.58223601342E+02 0.31937260464E+02
 0.21420584069E+02 0.15205970083E+02 0.11253527099E+02 0.95232203440E+01 0.89518248423E+01
 0.87005567738E+01 0.85829922506E+01 0.86184181971E+01 0.78174256700E+01 0.77368256666E+01
 0.77389016247E+01 0.81002963804E+01 0.87005567738E+01 0.96970449569E+01 0.12296306248E+02
 0.17807409796E+02 0.26492309569E+02 0.49995541915E+02 0.10489314354E+03 0.19292166987E+03
 0.29559271053E+03 0.37950671438E+03 0.41201987249E+03 0.37950671438E+03 0.29559271053E+03
 0.19292166987E+03 0.10489314354E+03 0.49995541915E+02 0.26492309569E+02 0.17807409796E+02
 0.12296306248E+02 0.96970449569E+01 0.87005567738E+01 0.81002963804E+01 0.77389016247E+01
 0.77368256666E+01 0.74127092728E+01 0.72692561048E+01 0.72306117444E+01 0.77389016247E+01
 0.85829922506E+01 0.99035948290E+01 0.13255842652E+02 0.20036009433E+02 0.33463115376E+02
 0.74701918257E+02 0.16253505669E+03 0.29559271053E+03 0.44637290140E+03 0.56794799903E+03
 0.61480516558E+03 0.56794799903E+03 0.44637290140E+03 0.29559271053E+03 0.16253505669E+03
 0.74701918257E+02 0.33463115376E+02 0.20036009433E+02 0.13255842652E+02 0.99035948290E+01
 0.85829922506E+01 0.77389016247E+01 0.72306117444E+01 0.72692561048E+01 0.76890258138E+01
 0.74543347379E+01 0.72692561048E+01 0.77368256666E+01 0.86184181971E+01 0.10075447918E+02
 0.13911476243E+02 0.21523268735E+02 0.40214761489E+02 0.96718236695E+02 0.21102986825E+03
 0.37950671438E+03 0.56794799903E+03 0.71903245363E+03 0.77714517088E+03 0.71903245363E+03
 0.56794799903E+03 0.37950671438E+03 0.21102986825E+03 0.96718236695E+02 0.40214761489E+02
 0.21523268735E+02 0.13911476243E+02 0.10075447918E+02 0.86184181971E+01 0.77368256666E+01
 0.72692561048E+01 0.74543347379E+01 0.79715391657E+01 0.76890258138E+01 0.74127092728E+01
 0.78174256700E+01 0.86684287777E+01 0.10145577949E+02 0.14142114616E+02 0.22080528180E+02
 0.43054623068E+02 0.10557029634E+03 0.23004637030E+03 0.41201987249E+03 0.61480516558E+03
 0.77714517088E+03 0.83955587616E+03 0.77714517088E+03 0.61480516558E+03 0.41201987249E+03
 0.23004637030E+03 0.10557029634E+03 0.43054623068E+02 0.22080528180E+02 0.14142114616E+02
 0.10145577949E+02 0.86684287777E+01 0.78174256700E+01 0.74127092728E+01 0.76890258138E+01
 0.76890258138E+01 0.74543347379E+01 0.72692561048E+01 0.77368256666E+01 0.86184181971E+01
 0.10075447918E+02 0.13911476243E+02 0.21523268735E+02 0.40214761489E+02 0.96718236695E+02
 0.21102986825E+03 0.37950671438E+03 0.56794799903E+03 0.71903245363E+03 0.77714517088E+03
 0.71903245363E+03 0.56794799903E+03 0.37950671438E+03 0.21102986825E+03 0.96718236695E+02
 0.40214761489E+02 0.21523268735E+02 0.13911476243E+02 0.10075447918E+02 0.86184181971E+01
 0.77368256666E+01 0.72692561048E+01 0.74543347379E+01 0.74127092728E+01 0.72692561048E+01
 0.72306117444E+01 0.77389016247E+01 0.85829922506E+01 0.99035948290E+01 0.13255842652E+02
 0.20036009433E+02 0.33463115376E+02 0.74701918257E+02 0.16253505669E+03 0.29559271053E+03
 0.44637290140E+03 0.56794799903E+03 0.61480516558E+03 0.56794799903E+03 0.44637290140E+03
 0.29559271053E+03 0.16253505669E+03 0.74701918257E+02 0.33463115376E+02 0.20036009433E+02
 0.13255842652E+02 0.99035948290E+01 0.85829922506E+01 0.77389016247E+01 0.72306117444E+01
 0.72692561048E+01 0.78174256700E+01 0.77368256666E+01 0.77389016247E+01 0.81002963804E+01
 0.87005567738E+01 0.96970449569E+01 0.12296306248E+02 0.17807409796E+02 0.26492309569E+02
 0.49995541915E+02 0.10489314354E+03 0.19292166987E+03 0.29559271053E+03 0.37950671438E+03
 0.41201987249E+03 0.37950671438E+03 0.29559271053E+03 0.19292166987E+03 0.10489314354E+03
 0.49995541915E+02 0.26492309569E+02 0.17807409796E+02 0.12296306248E+02 0.96970449569E+01
 0.87005567738E+01 0.81002963804E+01 0.77389016247E+01 0.77368256666E+01 0.86684287777E+01
 0.86184181971E+01 0.85829922506E+01 0.87005567738E+01 0.89518248423E+01 0.95232203440E+01
 0.11253527099E+02 0.15205970083E+02 0.21420584069E+02 0.31937260464E+02 0.58223601342E+02
 0.10489314354E+03 0.16253505669E+03 0.21102986825E+03 0.23004637030E+03 0.21102986825E+03
 0.16253505669E+03 0.10489314354E+03 0.58223601342E+02 0.31937260464E+02 0.21420584069E+02
 0.15205970083E+02 0.11253527099E+02 0.95232203440E+01 0.89518248423E+01 0.87005567738E+01
 0.85829922506E+01 0.86184181971E+01 0.10145577949E+02 0.10075447918E+02 0.99035948290E+01
 0.96970449569E+01 0.95232203440E+01 0.95928561660E+01 0.10442961809E+02 0.12809551972E+02
 0.17071972403E+02 0.22718781749E+02 0.31937260464E+02 0.49995541915E+02 0.74701918257E+02
 0.96718236695E+02 0.10557029634E+03 0.96718236695E+02 0.74701918257E+02 0.49995541915E+02
 0.31937260464E+02 0.22718781749E+02 0.17071972403E+02 0.12809551972E+02 0.10442961809E+02
 0.95928561660E+01 0.95232203440E+01 0.96970449569E+01 0.99035948290E+01 0.10075447918E+02
 0.14142114616E+02 0.13911476243E+02 0.13255842652E+02 0.12296306248E+02 0.11253527099E+02
 0.10442961809E+02 0.10262727774E+02 0.11153294639E+02 0.13442722684E+02 0.17071972403E+02
 0.21420584069E+02 0.26492309569E+02 0.33463115376E+02 0.40214761489E+02 0.43054623068E+02
 0.40214761489E+02 0.33463115376E+02 0.26492309569E+02 0.21420584069E+02 0.17071972403E+02
 0.13442722684E+02 0.11153294639E+02 0.10262727774E+02 0.10442961809E+02 0.11253527099E+02
 0.12296306248E+02 0.13255842652E+02 0.13911476243E+02 0.22080528180E+02 0.21523268735E+02
 0.20036009433E+02 0.17807409796E+02 0.15205970083E+02 0.12809551972E+02 0.11153294639E+02
 0.10566893319E+02 0.11153294639E+02 0.12809551972E+02 0.15205970083E+02 0.17807409796E+02
 0.20036009433E+02 0.21523268735E+02 0.22080528180E+02 0.21523268735E+02 0.20036009433E+02
 0.17807409796E+02 0.15205970083E+02 0.12809551972E+02 0.11153294639E+02 0.10566893319E+02
 0.11153294639E+02 0.12809551972E+02 0.15205970083E+02 0.17807409796E+02 0.20036009433E+02
 0.21523268735E+02 0.43054623068E+02 0.40214761489E+02 0.33463115376E+02 0.26492309569E+02
 0.21420584069E+02 0.17071972403E+02 0.13442722684E+02 0.11153294639E+02 0.10262727774E+02
 0.10442961809E+02 0.11253527099E+02 0.12296306248E+02 0.13255842652E+02 0.13911476243E+02
 0.14142114616E+02 0.13911476243E+02 0.13255842652E+02 0.12296306248E+02 0.11253527099E+02
 0.10442961809E+02 0.10262727774E+02 0.11153294639E+02 0.13442722684E+02 0.17071972403E+02
 0.21420584069E+02 0.26492309569E+02 0.33463115376E+02 0.40214761489E+02 0.10557029634E+03
 0.96718236695E+02 0.74701918257E+02 0.49995541915E+02 0.31937260464E+02 0.22718781749E+02
 0.17071972403E+02 0.12809551972E+02 0.10442961809E+02 0.95928561660E+01 0.95232203440E+01
 0.96970449569E+01 0.99035948290E+01 0.10075447918E+02 0.10145577949E+02 0.10075447918E+02
 0.99035948290E+01 0.96970449569E+01 0.95232203440E+01 0.95928561660E+01 0.10442961809E+02
 0.12809551972E+02 0.17071972403E+02 0.22718781749E+02 0.31937260464E+02 0.49995541915E+02
 0.74701918257E+02 0.96718236695E+02 0.23004637030E+03 0.21102986825E+03 0.16253505669E+03
 0.10489314354E+03 0.58223601342E+02 0.31937260464E+02 0.21420584069E+02 0.15205970083E+02
 0.11253527099E+02 0.95232203440E+01 0.89518248423E+01 0.87005567738E+01 0.85829922506E+01
 0.86184181971E+01 0.86684287777E+01 0.86184181971E+01 0.85829922506E+01 0.87005567738E+01
 0.89518248423E+01 0.95232203440E+01 0.11253527099E+02 0.15205970083E+02 0.21420584069E+02
 0.31937260464E+02 0.58223601342E+02 0.10489314354E+03 0.16253505669E+03 0.21102986825E+03
 0.41201987249E+03 0.37950671438E+03 0.29559271053E+03 0.19292166987E+03 0.10489314354E+03
 0.49995541915E+02 0.26492309569E+02 0.17807409796E+02 0.12296306248E+02 0.96970449569E+01
 0.87005567738E+01 0.81002963804E+01 0.77389016247E+01 0.77368256666E+01 0.78174256700E+01
 0.77368256666E+01 0.77389016247E+01 0.81002963804E+01 0.87005567738E+01 0.96970449569E+01
 0.12296306248E+02 0.17807409796E+02 0.26492309569E+02 0.49995541915E+02 0.10489314354E+03
 0.19292166987E+03 0.29559271053E+03 0.37950671438E+03 0.61480516558E+03 0.56794799903E+03
 0.44637290140E+03 0.29559271053E+03 0.16253505669E+03 0.74701918257E+02 0.33463115376E+02
 0.20036009433E+02 0.13255842652E+02 0.99035948290E+01 0.85829922506E+01 0.77389016247E+01
 0.72306117444E+01 0.72692561048E+01 0.74127092728E+01 0.72692561048E+01 0.72306117444E+01
 0.77389016247E+01 0.85829922506E+01 0.99035948290E+01 0.13255842652E+02 0.20036009433E+02
 0.33463115376E+02 0.74701918257E+02 0.16253505669E+03 0.29559271053E+03 0.44637290140E+03
 0.56794799903E+03 0.77714517088E+03 0.71903245363E+03 0.56794799903E+03 0.37950671438E+03
 0.21102986825E+03 0.96718236695E+02 0.40214761489E+02 0.21523268735E+02 0.13911476243E+02
 0.10075447918E+02 0.86184181971E+01 0.77368256666E+01 0.72692561048E+01 0.74543347379E+01
 0.76890258138E+01 0.74543347379E+01 0.72692561048E+01 0.77368256666E+01 0.86184181971E+01
 0.10075447918E+02 0.13911476243E+02 0.21523268735E+02 0.40214761489E+02 0.96718236695E+02
 0.21102986825E+03 0.37950671438E+03 0.56794799903E+03 0.71903245363E+03 0.77714517088E+03
 0.71903245363E+03 0.56794799903E+03 0.37950671438E+03 0.21102986825E+03 0.96718236695E+02
 0.40214761489E+02 0.21523268735E+02 0.13911476243E+02 0.10075447918E+02 0.86184181971E+01
 0.77368256666E+01 0.72692561048E+01 0.74543347379E+01 0.76890258138E+01 0.74543347379E+01
 0.72692561048E+01 0.77368256666E+01 0.86184181971E+01 0.10075447918E+02 0.13911476243E+02
 0.21523268735E+02 0.40214761489E+02 0.96718236695E+02 0.21102986825E+03 0.37950671438E+03
 0.56794799903E+03 0.71903245363E+03 0.71903245363E+03 0.66493643484E+03 0.52437548997E+03
 0.34935195805E+03 0.19349420561E+03 0.88650924744E+02 0.37680642780E+02 0.21001224306E+02
 0.13690340532E+02 0.10017705349E+02 0.85880801341E+01 0.76845463750E+01 0.71624363429E+01
 0.72639794032E+01 0.74543347379E+01 0.72639794032E+01 0.71624363429E+01 0.76845463750E+01
 0.85880801341E+01 0.10017705349E+02 0.13690340532E+02 0.21001224306E+02 0.37680642780E+02
 0.88650924744E+02 0.19349420561E+03 0.34935195805E+03 0.52437548997E+03 0.66493643484E+03
 0.56794799903E+03 0.52437548997E+03 0.41141410960E+03 0.27162322812E+03 0.14886810083E+03
 0.68654784070E+02 0.31678091908E+02 0.19560762119E+02 0.13062796295E+02 0.98733965129E+01
 0.85914049479E+01 0.77397533318E+01 0.71915801510E+01 0.71624363429E+01 0.72692561048E+01
 0.71624363429E+01 0.71915801510E+01 0.77397533318E+01 0.85914049479E+01 0.98733965129E+01
 0.13062796295E+02 0.19560762119E+02 0.31678091908E+02 0.68654784070E+02 0.14886810083E+03
 0.27162322812E+03 0.41141410960E+03 0.52437548997E+03 0.37950671438E+03 0.34935195805E+03
 0.27162322812E+03 0.17682370914E+03 0.96087006727E+02 0.46386819533E+02 0.25493547869E+02
 0.17386387719E+02 0.12146493904E+02 0.96924973443E+01 0.87350841841E+01 0.81324856480E+01
 0.77397533318E+01 0.76845463750E+01 0.77368256666E+01 0.76845463750E+01 0.77397533318E+01
 0.81324856480E+01 0.87350841841E+01 0.96924973443E+01 0.12146493904E+02 0.17386387719E+02
 0.25493547869E+02 0.46386819533E+02 0.96087006727E+02 0.17682370914E+03 0.27162322812E+03
 0.34935195805E+03 0.21102986825E+03 0.19349420561E+03 0.14886810083E+03 0.96087006727E+02
 0.53765405397E+02 0.30305380061E+02 0.20832303136E+02 0.14878228439E+02 0.11151616882E+02
 0.95323928146E+01 0.89905427614E+01 0.87350841841E+01 0.85914049479E+01 0.85880801341E+01
 0.86184181971E+01 0.85880801341E+01 0.85914049479E+01 0.87350841841E+01 0.89905427614E+01
 0.95323928146E+01 0.11151616882E+02 0.14878228439E+02 0.20832303136E+02 0.30305380061E+02
 0.53765405397E+02 0.96087006727E+02 0.14886810083E+03 0.19349420561E+03 0.96718236695E+02
 0.88650924744E+02 0.68654784070E+02 0.46386819533E+02 0.30305380061E+02 0.22051343043E+02
 0.16628348398E+02 0.12587201299E+02 0.10374519310E+02 0.95911745750E+01 0.95323928146E+01
 0.96924973443E+01 0.98733965129E+01 0.10017705349E+02 0.10075447918E+02 0.10017705349E+02
 0.98733965129E+01 0.96924973443E+01 0.95323928146E+01 0.95911745750E+01 0.10374519310E+02
 0.12587201299E+02 0.16628348398E+02 0.22051343043E+02 0.30305380061E+02 0.46386819533E+02
 0.68654784070E+02 0.88650924744E+02 0.40214761489E+02 0.37680642780E+02 0.31678091908E+02
 0.25493547869E+02 0.20832303136E+02 0.16628348398E+02 0.13167913570E+02 0.11011489479E+02
 0.10188384752E+02 0.10374519310E+02 0.11151616882E+02 0.12146493904E+02 0.13062796295E+02
 0.13690340532E+02 0.13911476243E+02 0.13690340532E+02 0.13062796295E+02 0.12146493904E+02
 0.11151616882E+02 0.10374519310E+02 0.10188384752E+02 0.11011489479E+02 0.13167913570E+02
 0.16628348398E+02 0.20832303136E+02 0.25493547869E+02 0.31678091908E+02 0.37680642780E+02
 0.21523268735E+02 0.21001224306E+02 0.19560762119E+02 0.17386387719E+02 0.14878228439E+02
 0.12587201299E+02 0.11011489479E+02 0.10454761891E+02 0.11011489479E+02 0.12587201299E+02
 0.14878228439E+02 0.17386387719E+02 0.19560762119E+02 0.21001224306E+02 0.21523268735E+02
 0.21001224306E+02 0.19560762119E+02 0.17386387719E+02 0.14878228439E+02 0.12587201299E+02
 0.11011489479E+02 0.10454761891E+02 0.11011489479E+02 0.12587201299E+02 0.14878228439E+02
 0.17386387719E+02 0.19560762119E+02 0.21001224306E+02 0.13911476243E+02 0.13690340532E+02
 0.13062796295E+02 0.12146493904E+02 0.11151616882E+02 0.10374519310E+02 0.10188384752E+02
 0.11011489479E+02 0.13167913570E+02 0.16628348398E+02 0.20832303136E+02 0.25493547869E+02
 0.31678091908E+02 0.37680642780E+02 0.40214761489E+02 0.37680642780E+02 0.31678091908E+02
 0.25493547869E+02 0.20832303136E+02 0.16628348398E+02 0.13167913570E+02 0.11011489479E+02
 0.10188384752E+02 0.10374519310E+02 0.11151616882E+02 0.12146493904E+02 0.13062796295E+02
 0.13690340532E+02 0.10075447918E+02 0.10017705349E+02 0.98733965129E+01 0.96924973443E+01
 0.95323928146E+01 0.95911745750E+01 0.10374519310E+02 0.12587201299E+02 0.16628348398E+02
 0.22051343043E+02 0.30305380061E+02 0.46386819533E+02 0.68654784070E+02 0.88650924744E+02
 0.96718236695E+02 0.88650924744E+02 0.68654784070E+02 0.46386819533E+02 0.30305380061E+02
 0.22051343043E+02 0.16628348398E+02 0.12587201299E+02 0.10374519310E+02 0.95911745750E+01
 0.95323928146E+01 0.96924973443E+01 0.98733965129E+01 0.10017705349E+02 0.86184181971E+01
 0.85880801341E+01 0.85914049479E+01 0.87350841841E+01 0.89905427614E+01 0.95323928146E+01
 0.11151616882E+02 0.14878228439E+02 0.20832303136E+02 0.30305380061E+02 0.53765405397E+02
 0.96087006727E+02 0.14886810083E+03 0.19349420561E+03 0.21102986825E+03 0.19349420561E+03
 0.14886810083E+03 0.96087006727E+02 0.53765405397E+02 0.30305380061E+02 0.20832303136E+02
 0.14878228439E+02 0.11151616882E+02 0.95323928146E+01 0.89905427614E+01 0.87350841841E+01
 0.85914049479E+01 0.85880801341E+01 0.77368256666E+01 0.76845463750E+01 0.77397533318E+01
 0.81324856480E+01 0.87350841841E+01 0.96924973443E+01 0.12146493904E+02 0.17386387719E+02
 0.25493547869E+02 0.46386819533E+02 0.96087006727E+02 0.17682370914E+03 0.27162322812E+03
 0.34935195805E+03 0.37950671438E+03 0.34935195805E+03 0.27162322812E+03 0.17682370914E+03
 0.96087006727E+02 0.46386819533E+02 0.25493547869E+02 0.17386387719E+02 0.12146493904E+02
 0.96924973443E+01 0.87350841841E+01 0.81324856480E+01 0.77397533318E+01 0.76845463750E+01
 0.72692561048E+01 0.71624363429E+01 0.71915801510E+01 0.77397533318E+01 0.85914049479E+01
 0.98733965129E+01 0.13062796295E+02 0.19560762119E+02 0.31678091908E+02 0.68654784070E+02
 0.14886810083E+03 0.27162322812E+03 0.41141410960E+03 0.52437548997E+03 0.56794799903E+03
 0.52437548997E+03 0.41141410960E+03 0.27162322812E+03 0.14886810083E+03 0.68654784070E+02
 0.31678091908E+02 0.19560762119E+02 0.13062796295E+02 0.98733965129E+01 0.85914049479E+01
 0.77397533318E+01 0.71915801510E+01 0.71624363429E+01 0.74543347379E+01 0.72639794032E+01
 0.71624363429E+01 0.76845463750E+01 0.85880801341E+01 0.10017705349E+02 0.13690340532E+02
 0.21001224306E+02 0.37680642780E+02 0.88650924744E+02 0.19349420561E+03 0.34935195805E+03
 0.52437548997E+03 0.66493643484E+03 0.71903245363E+03 0.66493643484E+03 0.52437548997E+03
 0.34935195805E+03 0.19349420561E+03 0.88650924744E+02 0.37680642780E+02 0.21001224306E+02
 0.13690340532E+02 0.10017705349E+02 0.85880801341E+01 0.76845463750E+01 0.71624363429E+01
 0.72639794032E+01 0.76890258138E+01 0.74543347379E+01 0.72692561048E+01 0.77368256666E+01
 0.86184181971E+01 0.10075447918E+02 0.13911476243E+02 0.21523268735E+02 0.40214761489E+02
 0.96718236695E+02 0.21102986825E+03 0.37950671438E+03 0.56794799903E+03 0.71903245363E+03
 0.77714517088E+03 0.71903245363E+03 0.56794799903E+03 0.37950671438E+03 0.21102986825E+03
 0.96718236695E+02 0.40214761489E+02 0.21523268735E+02 0.13911476243E+02 0.10075447918E+02
 0.86184181971E+01 0.77368256666E+01 0.72692561048E+01 0.74543347379E+01 0.74543347379E+01
 0.72639794032E+01 0.71624363429E+01 0.76845463750E+01 0.85880801341E+01 0.10017705349E+02
 0.13690340532E+02 0.21001224306E+02 0.37680642780E+02 0.88650924744E+02 0.19349420561E+03
 0.34935195805E+03 0.52437548997E+03 0.66493643484E+03 0.71903245363E+03 0.66493643484E+03
 0.52437548997E+03 0.34935195805E+03 0.19349420561E+03 0.88650924744E+02 0.37680642780E+02
 0.21001224306E+02 0.13690340532E+02 0.10017705349E+02 0.85880801341E+01 0.76845463750E+01
 0.71624363429E+01 0.72639794032E+01 0.72692561048E+01 0.71624363429E+01 0.71915801510E+01
 0.77397533318E+01 0.85914049479E+01 0.98733965129E+01 0.13062796295E+02 0.19560762119E+02
 0.31678091908E+02 0.68654784070E+02 0.14886810083E+03 0.27162322812E+03 0.41141410960E+03
 0.52437548997E+03 0.56794799903E+03 0.52437548997E+03 0.41141410960E+03 0.27162322812E+03
 0.14886810083E+03 0.68654784070E+02 0.31678091908E+02 0.19560762119E+02 0.13062796295E+02
 0.98733965129E+01 0.85914049479E+01 0.77397533318E+01 0.71915801510E+01 0.71624363429E+01
 0.77368256666E+01 0.76845463750E+01 0.77397533318E+01 0.81324856480E+01 0.87350841841E+01
 0.96924973443E+01 0.12146493904E+02 0.17386387719E+02 0.25493547869E+02 0.46386819533E+02
 0.96087006727E+02 0.17682370914E+03 0.27162322812E+03 0.34935195805E+03 0.37950671438E+03
 0.34935195805E+03 0.27162322812E+03 0.17682370914E+03 0.96087006727E+02 0.46386819533E+02
 0.25493547869E+02 0.17386387719E+02 0.12146493904E+02 0.96924973443E+01 0.87350841841E+01
 0.81324856480E+01 0.77397533318E+01 0.76845463750E+01 0.86184181971E+01 0.85880801341E+01
 0.85914049479E+01 0.87350841841E+01 0.89905427614E+01 0.95323928146E+01 0.11151616882E+02
 0.14878228439E+02 0.20832303136E+02 0.30305380061E+02 0.53765405397E+02 0.96087006727E+02
 0.14886810083E+03 0.19349420561E+03 0.21102986825E+03 0.19349420561E+03 0.14886810083E+03
 0.96087006727E+02 0.53765405397E+02 0.30305380061E+02 0.20832303136E+02 0.14878228439E+02
 0.11151616882E+02 0.95323928146E+01 0.89905427614E+01 0.87350841841E+01 0.85914049479E+01
 0.85880801341E+01 0.10075447918E+02 0.10017705349E+02 0.98733965129E+01 0.96924973443E+01
 0.95323928146E+01 0.95911745750E+01 0.10374519310E+02 0.12587201299E+02 0.16628348398E+02
 0.22051343043E+02 0.30305380061E+02 0.46386819533E+02 0.68654784070E+02 0.88650924744E+02
 0.96718236695E+02 0.88650924744E+02 0.68654784070E+02 0.46386819533E+02 0.30305380061E+02
 0.22051343043E+02 0.16628348398E+02 0.12587201299E+02 0.10374519310E+02 0.95911745750E+01
 0.95323928146E+01 0.96924973443E+01 0.98733965129E+01 0.10017705349E+02 0.13911476243E+02
 0.13690340532E+02 0.13062796295E+02 0.12146493904E+02 0.11151616882E+02 0.10374519310E+02
 0.10188384752E+02 0.11011489479E+02 0.13167913570E+02 0.16628348398E+02 0.20832303136E+02
 0.25493547869E+02 0.31678091908E+02 0.37680642780E+02 0.40214761489E+02 0.37680642780E+02
 0.31678091908E+02 0.25493547869E+02 0.20832303136E+02 0.16628348398E+02 0.13167913570E+02
 0.11011489479E+02 0.10188384752E+02 0.10374519310E+02 0.11151616882E+02 0.12146493904E+02
 0.13062796295E+02 0.13690340532E+02 0.21523268735E+02 0.21001224306E+02 0.19560762119E+02
 0.17386387719E+02 0.14878228439E+02 0.12587201299E+02 0.11011489479E+02 0.10454761891E+02
 0.11011489479E+02 0.12587201299E+02 0.14878228439E+02 0.17386387719E+02 0.19560762119E+02
 0.21001224306E+02 0.21523268735E+02 0.21001224306E+02 0.19560762119E+02 0.17386387719E+02
 0.14878228439E+02 0.12587201299E+02 0.11011489479E+02 0.10454761891E+02 0.11011489479E+02
 0.12587201299E+02 0.14878228439E+02 0.17386387719E+02 0.19560762119E+02 0.21001224306E+02
 0.40214761489E+02 0.37680642780E+02 0.31678091908E+02 0.25493547869E+02 0.20832303136E+02
 0.16628348398E+02 0.13167913570E+02 0.11011489479E+02 0.10188384752E+02 0.10374519310E+02
 0.11151616882E+02 0.12146493904E+02 0.13062796295E+02 0.13690340532E+02 0.13911476243E+02
 0.13690340532E+02 0.13062796295E+02 0.12146493904E+02 0.11151616882E+02 0.10374519310E+02
 0.10188384752E+02 0.11011489479E+02 0.13167913570E+02 0.16628348398E+02 0.20832303136E+02
 0.25493547869E+02 0.31678091908E+02 0.37680642780E+02 0.96718236695E+02 0.88650924744E+02
 0.68654784070E+02 0.46386819533E+02 0.30305380061E+02 0.22051343043E+02 0.16628348398E+02
 0.12587201299E+02 0.10374519310E+02 0.95911745750E+01 0.95323928146E+01 0.96924973443E+01
 0.98733965129E+01 0.10017705349E+02 0.10075447918E+02 0.10017705349E+02 0.98733965129E+01
 0.96924973443E+01 0.95323928146E+01 0.95911745750E+01 0.10374519310E+02 0.12587201299E+02
 0.16628348398E+02 0.22051343043E+02 0.30305380061E+02 0.46386819533E+02 0.68654784070E+02
 0.88650924744E+02 0.21102986825E+03 0.19349420561E+03 0.14886810083E+03 0.96087006727E+02
 0.53765405397E+02 0.30305380061E+02 0.20832303136E+02 0.14878228439E+02 0.11151616882E+02
 0.95323928146E+01 0.89905427614E+01 0.87350841841E+01 0.85914049479E+01 0.85880801341E+01
 0.86184181971E+01 0.85880801341E+01 0.85914049479E+01 0.87350841841E+01 0.89905427614E+01
 0.95323928146E+01 0.11151616882E+02 0.14878228439E+02 0.20832303136E+02 0.30305380061E+02
 0.53765405397E+02 0.96087006727E+02 0.14886810083E+03 0.19349420561E+03 0.37950671438E+03
 0.34935195805E+03 0.27162322812E+03 0.17682370914E+03 0.96087006727E+02 0.46386819533E+02
 0.25493547869E+02 0.17386387719E+02 0.12146493904E+02 0.96924973443E+01 0.87350841841E+01
 0.81324856480E+01 0.77397533318E+01 0.76845463750E+01 0.77368256666E+01 0.76845463750E+01
 0.77397533318E+01 0.81324856480E+01 0.87350841841E+01 0.96924973443E+01 0.12146493904E+02
 0.17386387719E+02 0.25493547869E+02 0.46386819533E+02 0.96087006727E+02 0.17682370914E+03
 0.27162322812E+03 0.34935195805E+03 0.56794799903E+03 0.52437548997E+03 0.41141410960E+03
 0.27162322812E+03 0.14886810083E+03 0.68654784070E+02 0.31678091908E+02 0.19560762119E+02
 0.13062796295E+02 0.98733965129E+01 0.85914049479E+01 0.77397533318E+01 0.71915801510E+01
 0.71624363429E+01 0.72692561048E+01 0.71624363429E+01 0.71915801510E+01 0.77397533318E+01
 0.85914049479E+01 0.98733965129E+01 0.13062796295E+02 0.19560762119E+02 0.31678091908E+02
 0.68654784070E+02 0.14886810083E+03 0.27162322812E+03 0.41141410960E+03 0.52437548997E+03
 0.71903245363E+03 0.66493643484E+03 0.52437548997E+03 0.34935195805E+03 0.19349420561E+03
 0.88650924744E+02 0.37680642780E+02 0.21001224306E+02 0.13690340532E+02 0.10017705349E+02
 0.85880801341E+01 0.76845463750E+01 0.71624363429E+01 0.72639794032E+01 0.74543347379E+01
 0.72639794032E+01 0.71624363429E+01 0.76845463750E+01 0.85880801341E+01 0.10017705349E+02
 0.13690340532E+02 0.21001224306E+02 0.37680642780E+02 0.88650924744E+02 0.19349420561E+03
 0.34935195805E+03 0.52437548997E+03 0.66493643484E+03 0.61480516558E+03 0.56794799903E+03
 0.44637290140E+03 0.29559271053E+03 0.16253505669E+03 0.74701918257E+02 0.33463115376E+02
 0.20036009433E+02 0.13255842652E+02 0.99035948290E+01 0.85829922506E+01 0.77389016247E+01
 0.72306117444E+01 0.72692561048E+01 0.74127092728E+01 0.72692561048E+01 0.72306117444E+01
 0.77389016247E+01 0.85829922506E+01 0.99035948290E+01 0.13255842652E+02 0.20036009433E+02
 0.33463115376E+02 0.74701918257E+02 0.16253505669E+03 0.29559271053E+03 0.44637290140E+03
 0.56794799903E+03 0.56794799903E+03 0.52437548997E+03 0.41141410960E+03 0.27162322812E+03
 0.14886810083E+03 0.68654784070E+02 0.31678091908E+02 0.19560762119E+02 0.13062796295E+02
 0.98733965129E+01 0.85914049479E+01 0.77397533318E+01 0.71915801510E+01 0.71624363429E+01
 0.72692561048E+01 0.71624363429E+01 0.71915801510E+01 0.77397533318E+01 0.85914049479E+01
 0.98733965129E+01 0.13062796295E+02 0.19560762119E+02 0.31678091908E+02 0.68654784070E+02
 0.14886810083E+03 0.27162322812E+03 0.41141410960E+03 0.52437548997E+03 0.44637290140E+03