    4    4    1    1
  0.1200752E+02  0.3635000E-09  0.3635000E-09  0.3635000E-09  0.5000000E-15
  1.000000000000000E-004
  CAR 
 unknown system                          
     44     10     30
 
  0.0000000E+00  0.0000000E+00  0.0000000E+00  0.8000000E-02
    1       -1.788977   1.000000
    2        2.451241   1.000000
    3        2.451241   1.000000
    4        2.451241   1.000000
    5        3.079142   1.000000
    6        3.079142   1.000000
    7        3.079142   1.000000
    8        5.086253   1.000000
    9        5.086253   1.000000
   10        5.086253   1.000000
   11        5.343219   1.000000
   12        5.343219   1.000000
   13        5.453678   1.000000
   14        5.453678   1.000000
   15        5.453678   1.000000
   16        5.559096   1.000000
   17        5.559096   1.000000
   18        5.559096   1.000000
   19        5.559096   1.000000
   20        5.559096   1.000000
   21        5.559096   1.000000
   22        8.960637  -0.000000
   23        8.960637  -0.000000
   24        8.960637  -0.000000
   25       14.250443   0.000000
   26       14.250443   0.000000
   27       14.250443   0.000000
   28       20.387923   0.000000
   29       20.387923   0.000000
   30       20.387923   0.000000
 
  0.2000000E+00  0.0000000E+00  0.0000000E+00  0.4800000E-01
    1       -1.312721   1.000000
    2        2.562636   1.000000
    3        2.697053   1.000000
    4        2.697053   1.000000
    5        3.204279   1.000000
    6        3.371052   1.000000
    7        3.371052   1.000000
    8        4.497778   1.000000
    9        4.497778   1.000000
   10        4.787021   1.000000
   11        5.002785   1.000000
   12        5.007202   1.000000
   13        5.007202   1.000000
   14        5.236464   1.000000
   15        5.408160   1.000000
   16        5.414891   1.000000
   17        5.414891   1.000000
   18        5.428946   1.000000
   19        5.428946   1.000000
   20        5.566525   1.000000
   21        5.566525   1.000000
   22        6.841156   1.033813
   23        9.978230  -0.000000
   24        9.978230  -0.000000
   25       14.454234   0.000000
   26       14.454234   0.000000
   27       17.360628   0.000000
   28       18.102725   0.000000
   29       18.102725   0.000000
   30       18.767543   0.000000
 
  0.4000000E+00  0.0000000E+00  0.0000000E+00  0.4800000E-01
    1        0.044162   1.000000
    2        1.810774   1.000000
    3        3.242108   1.000000
    4        3.242108   1.000000
    5        3.577514   1.000000
    6        3.640102   1.000000
    7        3.640102   1.000000
    8        3.987847   1.000000
    9        4.290649   1.000000
   10        4.290649   1.000000
   11        4.729760   1.000000
   12        4.729760   1.000000
   13        4.767207   1.000000
   14        4.884240   1.000000
   15        5.031298   1.000000
   16        5.031298   1.000000
   17        5.090480   1.000000
   18        5.090480   1.000000
   19        5.292389   1.000000
   20        5.359660   1.000000
   21        5.692503   1.000000
   22        5.692503   1.000000
   23       12.182054  -0.000000
   24       12.182054  -0.000000
   25       14.955521   0.000000
   26       14.955521   0.000000
   27       15.121107   0.000000
   28       15.121107   0.000000
   29       16.614362   0.000000
   30       16.614362   0.000000
 
  0.2000000E+00  0.2000000E+00  0.0000000E+00  0.9600000E-01
    1       -0.848163   1.000000
    2        2.848113   1.000000
    3        2.848113   1.000000
    4        2.982281   1.000000
    5        3.450352   1.000000
    6        3.510482   1.000000
    7        3.510482   1.000000
    8        4.291153   1.000000
    9        4.662399   1.000000
   10        4.731162   1.000000
   11        4.802734   1.000000
   12        4.802734   1.000000
   13        4.898137   1.000000
   14        5.053204   1.000000
   15        5.220239   1.000000
   16        5.361700   1.000000
   17        5.361700   1.000000
   18        5.440950   1.000000
   19        5.467371   1.000000
   20        5.478813   1.000000
   21        5.478813   1.000000
   22        7.791830  -0.000008
   23        7.791830  -0.000008
   24       10.837307  -0.000000
   25       14.453552   0.000000
   26       14.955486   0.000000
   27       17.702506   0.000000
   28       17.702506   0.000000
   29       18.682591   0.000000
   30       18.682591   0.000000
 
  0.4000000E+00  0.2000000E+00  0.0000000E+00  0.1920000E+00
    1        0.465504   1.000000
    2        2.154796   1.000000
    3        3.300259   1.000000
    4        3.431177   1.000000
    5        3.621021   1.000000
    6        3.628413   1.000000
    7        3.804780   1.000000
    8        3.981009   1.000000
    9        4.089482   1.000000
   10        4.202882   1.000000
   11        4.372365   1.000000
   12        4.492062   1.000000
   13        4.847317   1.000000
   14        4.973617   1.000000
   15        5.042853   1.000000
   16        5.044416   1.000000
   17        5.127798   1.000000
   18        5.198655   1.000000
   19        5.395770   1.000000
   20        5.462906   1.000000
   21        5.484867   1.000000
   22        5.905703   1.000000
   23        9.470895  -0.000000
   24       11.705127  -0.000000
   25       12.849782   0.000000
   26       15.499108   0.000000
   27       15.538914   0.000000
   28       16.994765   0.000000
   29       18.811622   0.000000
   30       20.278340   0.000000
 
  0.4000000E+00  0.4000000E+00  0.0000000E+00  0.9600000E-01
    1        1.603924   1.000000
    2        2.831346   1.000000
    3        2.831346   1.000000
    4        3.298160   1.000000
    5        3.698301   1.000000
    6        3.757918   1.000000
    7        3.757918   1.000000
    8        3.912251   1.000000
    9        3.925255   1.000000
   10        4.019674   1.000000
   11        4.019674   1.000000
   12        4.663625   1.000000
   13        4.807495   1.000000
   14        4.841816   1.000000
   15        4.853491   1.000000
   16        4.922400   1.000000
   17        4.922400   1.000000
   18        5.056120   1.000000
   19        5.056120   1.000000
   20        5.150437   1.000000
   21        5.913577   1.000000
   22        6.957631   0.977351
   23        6.957631   0.977351
   24        8.773154  -0.000000
   25       14.609690   0.000000
   26       16.472130   0.000000
   27       17.153434   0.000000
   28       17.153434   0.000000
   29       18.259649   0.000000
   30       18.259649   0.000000
 
  0.2000000E+00  0.2000000E+00  0.2000000E+00  0.6400000E-01
    1       -0.399174   1.000000
    2        2.989331   1.000000
    3        2.989331   1.000000
    4        2.989331   1.000000
    5        3.417284   1.000000
    6        3.417284   1.000000
    7        3.417284   1.000000
    8        4.331297   1.000000
    9        4.577110   1.000000
   10        4.577110   1.000000
   11        4.577110   1.000000
   12        4.817240   1.000000
   13        4.817240   1.000000
   14        5.044855   1.000000
   15        5.044855   1.000000
   16        5.066134   1.000000
   17        5.066134   1.000000
   18        5.066134   1.000000
   19        5.519839   1.000000
   20        5.519839   1.000000
   21        5.519839   1.000000
   22        8.407737  -0.000000
   23        8.407737  -0.000000
   24        8.407737  -0.000000
   25       15.275234   0.000000
   26       15.275234   0.000000
   27       15.275234   0.000000
   28       18.075072   0.000000
   29       18.075072   0.000000
   30       18.075072   0.000000
 
  0.4000000E+00  0.2000000E+00  0.2000000E+00  0.1920000E+00
    1        0.842170   1.000000
    2        2.339118   1.000000
    3        3.273178   1.000000
    4        3.273178   1.000000
    5        3.567709   1.000000
    6        3.567709   1.000000
    7        3.679779   1.000000
    8        3.993120   1.000000
    9        4.135063   1.000000
   10        4.135063   1.000000
   11        4.285708   1.000000
   12        4.444774   1.000000
   13        4.576565   1.000000
   14        4.798676   1.000000
   15        4.872786   1.000000
   16        4.872786   1.000000
   17        5.137132   1.000000
   18        5.238058   1.000000
   19        5.465829   1.000000
   20        5.475664   1.000000
   21        5.475664   1.000000
   22        6.055299   1.000000
   23        9.767727  -0.000000
   24        9.767727  -0.000000
   25       12.440963  -0.000000
   26       12.440963  -0.000000
   27       16.799553   0.000000
   28       19.110864   0.000000
   29       19.189060   0.000000
   30       19.189060   0.000000
 
  0.4000000E+00  0.4000000E+00  0.2000000E+00  0.1920000E+00
    1        1.826195   1.000000
    2        2.712046   1.000000
    3        2.712046   1.000000
    4        2.988535   1.000000
    5        3.888673   1.000000
    6        3.989318   1.000000
    7        3.989318   1.000000
    8        4.185056   1.000000
    9        4.258859   1.000000
   10        4.273950   1.000000
   11        4.273950   1.000000
   12        4.594351   1.000000
   13        4.621257   1.000000
   14        4.658907   1.000000
   15        4.658907   1.000000
   16        4.676711   1.000000
   17        5.184723   1.000000
   18        5.387554   1.000000
   19        5.387554   1.000000
   20        5.429912   1.000000
   21        5.774858   1.000000
   22        7.028023   0.811719
   23        7.028023   0.811719
   24        8.743269  -0.000000
   25       11.849578  -0.000000
   26       13.847550   0.000000
   27       13.847550   0.000000
   28       16.094104   0.000000
   29       20.405813   0.000000
   30       22.402893   0.000000
 
  0.4000000E+00  0.4000000E+00  0.4000000E+00  0.6400000E-01
    1        2.212663   1.000000
    2        2.579657   1.000000
    3        2.579657   1.000000
    4        2.579657   1.000000
    5        4.380395   1.000000
    6        4.380395   1.000000
    7        4.380395   1.000000
    8        4.516186   1.000000
    9        4.516186   1.000000
   10        4.516186   1.000000
   11        4.758168   1.000000
   12        4.758168   1.000000
   13        4.896459   1.000000
   14        4.896459   1.000000
   15        4.896459   1.000000
   16        5.204999   1.000000
   17        5.437347   1.000000
   18        5.437347   1.000000
   19        5.527530   1.000000
   20        5.527530   1.000000
   21        5.527530   1.000000
   22        7.220303   0.099099
   23        7.220303   0.099099
   24        7.220303   0.099099
   25       11.391633  -0.000000
   26       11.391633  -0.000000
   27       11.391633  -0.000000
   28       13.191431   0.000000
   29       25.703999   0.000000
   30       25.703999   0.000000
