unknown system                          
   1.00000000000000     
     3.866000    0.000000    0.000000
     0.000000    3.866000    0.000000
     0.000000    0.000000    3.866000
   Pd   Ir   Pt   Cu
     1     1     1     1
Direct
  0.000000  0.000000  0.000000
  0.500000  0.500000  0.000000
  0.500000  0.000000  0.500000
  0.000000  0.500000  0.500000
 
   28   28   28
  353.89      333.14      281.41      219.84      162.47      112.10      69.710      39.716      23.653      15.861    
  12.349      10.436      9.4887      9.6175      9.9081      9.6175      9.4887      10.436      12.349      15.861    
  23.653      39.716      69.710      112.10      162.47      219.84      281.41      333.14      333.24      313.77    
  265.17      207.19      153.06      105.63      65.972      38.111      23.128      15.703      12.351      10.514    
  9.5911      9.6850      9.9465      9.6850      9.5911      10.514      12.351      15.703      23.128      38.111    
  65.972      105.63      153.06      207.19      265.17      313.77      280.83      264.57      223.82      174.88    
  128.98      89.108      56.505      34.087      21.771      15.375      12.512      10.949      10.154      10.199    
  10.399      10.199      10.154      10.949      12.512      15.375      21.771      34.087      56.505      89.108    
  128.98      174.88      223.82      264.57      216.87      204.44      173.08      135.06      99.332      68.961    
  45.166      29.320      20.086      15.198      13.118      12.068      11.584      11.666      11.821      11.666    
  11.584      12.068      13.118      15.198      20.086      29.320      45.166      68.961      99.332      135.06    
  173.08      204.44      156.87      147.96      125.35      97.713      71.917      50.814      35.255      25.085    
  18.651      15.497      14.413      14.105      14.144      14.419      14.590      14.419      14.144      14.105    
  14.413      15.497      18.651      25.085      35.255      50.814      71.917      97.713      125.35      147.96    
  106.14      100.27      85.312      67.026      50.247      37.164      28.013      21.744      18.003      16.677    
  16.817      17.535      18.390      19.121      19.421      19.121      18.390      17.535      16.817      16.677    
  18.003      21.744      28.013      37.164      50.247      67.026      85.312      100.27      65.827      62.529    
  54.142      43.969      34.831      27.906      22.914      19.728      18.619      19.255      20.984      23.309    
  25.774      27.722      28.472      27.722      25.774      23.309      20.984      19.255      18.619      19.728    
  22.914      27.906      34.831      43.969      54.142      62.529      38.042      36.630      33.054      28.731    
  24.778      21.588      19.651      19.376      20.775      23.630      27.862      33.112      38.491      42.630    
  44.197      42.630      38.491      33.112      27.862      23.630      20.775      19.376      19.651      21.588    
  24.778      28.731      33.054      36.630      22.788      22.323      21.111      19.589      18.284      17.727    
  18.414      20.646      24.518      30.295      37.900      46.723      55.416      61.966      64.423      61.966    
  55.416      46.723      37.900      30.295      24.518      20.646      18.414      17.727      18.284      19.589    
  21.111      22.323      15.087      14.955      14.691      14.584      14.953      16.206      18.850      23.267    
  29.986      39.024      49.825      61.508      72.599      80.839      83.921      80.839      72.599      61.508    
  49.825      39.024      29.986      23.267      18.850      16.206      14.953      14.584      14.691      14.955    
  11.522      11.537      11.723      12.351      13.678      16.125      20.308      27.068      36.927      49.036    
  62.150      75.387      87.663      96.837      100.30      96.837      87.663      75.387      62.150      49.036    
  36.927      27.068      20.308      16.125      13.678      12.351      11.723      11.537      9.6224      9.7027    
  10.128      11.218      13.225      16.625      22.272      31.635      44.726      59.579      74.339      88.555    
  101.91      112.27      116.29      112.27      101.91      88.555      74.339      59.579      44.726      31.635    
  22.272      16.625      13.225      11.218      10.128      9.7027      8.7415      8.8321      9.3470      10.689    
  13.146      17.258      24.300      36.196      52.293      69.584      85.889      101.51      116.91      129.50    
  134.52      129.50      116.91      101.51      85.889      69.584      52.293      36.196      24.300      17.258    
  13.146      10.689      9.3470      8.8321      8.9016      8.9463      9.3828      10.719      13.315      17.800    
  25.867      39.654      57.982      77.126      94.844      112.16      130.04      145.18      151.32      145.18    
  130.04      112.16      94.844      77.126      57.982      39.654      25.867      17.800      13.315      10.719    
  9.3828      8.9463      9.1925      9.2041      9.5685      10.846      13.438      18.023      26.463      40.955    
  60.120      79.980      98.306      116.42      135.45      151.75      158.39      151.75      135.45      116.42    
  98.306      79.980      60.120      40.955      26.463      18.023      13.438      10.846      9.5685      9.2041    
  8.9016      8.9463      9.3828      10.719      13.315      17.800      25.867      39.654      57.982      77.126    
  94.844      112.16      130.04      145.18      151.32      145.18      130.04      112.16      94.844      77.126    
  57.982      39.654      25.867      17.800      13.315      10.719      9.3828      8.9463      8.7415      8.8321    
  9.3470      10.689      13.146      17.258      24.300      36.196      52.293      69.584      85.889      101.51    
  116.91      129.50      134.52      129.50      116.91      101.51      85.889      69.584      52.293      36.196    
  24.300      17.258      13.146      10.689      9.3470      8.8321      9.6224      9.7027      10.128      11.218    
  13.225      16.625      22.272      31.635      44.726      59.579      74.339      88.555      101.91      112.27    
  116.29      112.27      101.91      88.555      74.339      59.579      44.726      31.635      22.272      16.625    
  13.225      11.218      10.128      9.7027      11.522      11.537      11.723      12.351      13.678      16.125    
  20.308      27.068      36.927      49.036      62.150      75.387      87.663      96.837      100.30      96.837    
  87.663      75.387      62.150      49.036      36.927      27.068      20.308      16.125      13.678      12.351    
  11.723      11.537      15.087      14.955      14.691      14.584      14.953      16.206      18.850      23.267    
  29.986      39.024      49.825      61.508      72.599      80.839      83.921      80.839      72.599      61.508    
  49.825      39.024      29.986      23.267      18.850      16.206      14.953      14.584      14.691      14.955    
  22.788      22.323      21.111      19.589      18.284      17.727      18.414      20.646      24.518      30.295    
  37.900      46.723      55.416      61.966      64.423      61.966      55.416      46.723      37.900      30.295    
  24.518      20.646      18.414      17.727      18.284      19.589      21.111      22.323      38.042      36.630    
  33.054      28.731      24.778      21.588      19.651      19.376      20.775      23.630      27.862      33.112    
  38.491      42.630      44.197      42.630      38.491      33.112      27.862      23.630      20.775      19.376    
  19.651      21.588      24.778      28.731      33.054      36.630      65.827      62.529      54.142      43.969    
  34.831      27.906      22.914      19.728      18.619      19.255      20.984      23.309      25.774      27.722    
  28.472      27.722      25.774      23.309      20.984      19.255      18.619      19.728      22.914      27.906    
  34.831      43.969      54.142      62.529      106.14      100.27      85.312      67.026      50.247      37.164    
  28.013      21.744      18.003      16.677      16.817      17.535      18.390      19.121      19.421      19.121    
  18.390      17.535      16.817      16.677      18.003      21.744      28.013      37.164      50.247      67.026    
  85.312      100.27      156.87      147.96      125.35      97.713      71.917      50.814      35.255      25.085    
  18.651      15.497      14.413      14.105      14.144      14.419      14.590      14.419      14.144      14.105    
  14.413      15.497      18.651      25.085      35.255      50.814      71.917      97.713      125.35      147.96    
  216.87      204.44      173.08      135.06      99.332      68.961      45.166      29.320      20.086      15.198    
  13.118      12.068      11.584      11.666      11.821      11.666      11.584      12.068      13.118      15.198    
  20.086      29.320      45.166      68.961      99.332      135.06      173.08      204.44      280.83      264.57    
  223.82      174.88      128.98      89.108      56.505      34.087      21.771      15.375      12.512      10.949    
  10.154      10.199      10.399      10.199      10.154      10.949      12.512      15.375      21.771      34.087    
  56.505      89.108      128.98      174.88      223.82      264.57      333.24      313.77      265.17      207.19    
  153.06      105.63      65.972      38.111      23.128      15.703      12.351      10.514      9.5911      9.6850    
  9.9465      9.6850      9.5911      10.514      12.351      15.703      23.128      38.111      65.972      105.63    
  153.06      207.19      265.17      313.77      333.62      314.25      265.83      207.93      153.67      105.98    
  66.101      38.131      23.120      15.683      12.313      10.448      9.4927      9.5614      9.8133      9.5614    
  9.4927      10.448      12.313      15.683      23.120      38.131      66.101      105.98      153.67      207.93    
  265.83      314.25      314.94      296.70      251.06      196.35      145.00      99.998      62.648      36.651    
  22.623      15.540      12.328      10.540      9.6103      9.6472      9.8719      9.6472      9.6103      10.540    
  12.328      15.540      22.623      36.651      62.648      99.998      145.00      196.35      251.06      296.70    
  267.19      251.82      213.20      166.58      122.71      84.677      53.885      32.925      21.330      15.246    
  12.512      10.996      10.198      10.194      10.363      10.194      10.198      10.996      12.512      15.246    
  21.330      32.925      53.885      84.677      122.71      166.58      213.20      251.82      207.98      196.09    
  166.02      129.43      94.994      65.882      43.348      28.481      19.723      15.094      13.122      12.113    
  11.626      11.668      11.798      11.668      11.626      12.113      13.122      15.094      19.723      28.481    
  43.348      65.882      94.994      129.43      166.02      196.09      151.18      142.59      120.74      94.004    
  69.070      48.826      34.077      24.463      18.353      15.392      14.384      14.100      14.129      14.371    
  14.522      14.371      14.129      14.100      14.384      15.392      18.353      24.463      34.077      48.826    
  69.070      94.004      120.74      142.59      102.27      96.614      82.187      64.549      48.411      35.915    
  27.228      21.249      17.733      16.522      16.695      17.406      18.231      18.921      19.202      18.921    
  18.231      17.406      16.695      16.522      17.733      21.249      27.228      35.915      48.411      64.549    
  82.187      96.614      63.345      60.188      52.164      42.438      33.719      27.115      22.324      19.318    
  18.322      18.989      20.684      22.913      25.247      27.081      27.785      27.081      25.247      22.913    
  20.684      18.989      18.322      19.318      22.324      27.115      33.719      42.438      52.164      60.188    
  36.803      35.463      32.065      27.945      24.141      21.056      19.217      18.996      20.395      23.167    
  27.217      32.203      37.286      41.187      42.661      41.187      37.286      32.203      27.217      23.167    
  20.395      18.996      19.217      21.056      24.141      27.945      32.065      35.463      22.304      21.854    
  20.680      19.206      17.945      17.410      18.079      20.249      23.989      29.539      36.818      45.218    
  53.450      59.627      61.939      59.627      53.450      45.218      36.818      29.539      23.989      20.249    
  18.079      17.410      17.945      19.206      20.680      21.854      14.866      14.749      14.520      14.441    
  14.810      16.015      18.557      22.805      29.266      37.992      48.411      59.599      70.109      77.849    
  80.729      77.849      70.109      59.599      48.411      37.992      29.266      22.805      18.557      16.015    
  14.810      14.441      14.520      14.749      11.368      11.405      11.637      12.299      13.616      15.988    
  20.017      26.506      36.043      47.856      60.645      73.384      84.962      93.466      96.648      93.466    
  84.962      73.384      60.645      47.856      36.043      26.506      20.017      15.988      13.616      12.299    
  11.637      11.405      9.4136      9.5252      10.020      11.167      13.178      16.498      21.948      30.974    
  43.742      58.393      72.936      86.627      99.051      108.44      112.04      108.44      99.051      86.627    
  72.936      58.393      43.742      30.974      21.948      16.498      13.178      11.167      10.020      9.5252    
  8.4026      8.5365      9.1499      10.583      13.070      17.119      23.931      35.455      51.266      68.467    
  84.630      99.598      113.68      124.86      129.27      124.86      113.68      99.598      84.630      68.467    
  51.266      35.455      23.931      17.119      13.070      10.583      9.1499      8.5365      8.4018      8.5013    
  9.0658      10.529      13.189      17.635      25.457      38.863      56.943      76.074      93.666      110.15    
  126.32      139.64      144.97      139.64      126.32      110.15      93.666      76.074      56.943      38.863    
  25.457      17.635      13.189      10.529      9.0658      8.5013      8.6150      8.6866      9.1924      10.614    
  13.287      17.844      26.037      40.148      59.079      78.952      97.148      114.34      131.50      145.80    
  151.56      145.80      131.50      114.34      97.148      78.952      59.079      40.148      26.037      17.844    
  13.287      10.614      9.1924      8.6866      8.4018      8.5013      9.0658      10.529      13.189      17.635    
  25.457      38.863      56.943      76.074      93.666      110.15      126.32      139.64      144.97      139.64    
  126.32      110.15      93.666      76.074      56.943      38.863      25.457      17.635      13.189      10.529    
  9.0658      8.5013      8.4026      8.5365      9.1499      10.583      13.070      17.119      23.931      35.455    
  51.266      68.467      84.630      99.598      113.68      124.86      129.27      124.86      113.68      99.598    
  84.630      68.467      51.266      35.455      23.931      17.119      13.070      10.583      9.1499      8.5365    
  9.4136      9.5252      10.020      11.167      13.178      16.498      21.948      30.974      43.742      58.393    
  72.936      86.627      99.051      108.44      112.04      108.44      99.051      86.627      72.936      58.393    
  43.742      30.974      21.948      16.498      13.178      11.167      10.020      9.5252      11.368      11.405    
  11.637      12.299      13.616      15.988      20.017      26.506      36.043      47.856      60.645      73.384    
  84.962      93.466      96.648      93.466      84.962      73.384      60.645      47.856      36.043      26.506    
  20.017      15.988      13.616      12.299      11.637      11.405      14.866      14.749      14.520      14.441    
  14.810      16.015      18.557      22.805      29.266      37.992      48.411      59.599      70.109      77.849    
  80.729      77.849      70.109      59.599      48.411      37.992      29.266      22.805      18.557      16.015    
  14.810      14.441      14.520      14.749      22.304      21.854      20.680      19.206      17.945      17.410    
  18.079      20.249      23.989      29.539      36.818      45.218      53.450      59.627      61.939      59.627    
  53.450      45.218      36.818      29.539      23.989      20.249      18.079      17.410      17.945      19.206    
  20.680      21.854      36.803      35.463      32.065      27.945      24.141      21.056      19.217      18.996    
  20.395      23.167      27.217      32.203      37.286      41.187      42.661      41.187      37.286      32.203    
  27.217      23.167      20.395      18.996      19.217      21.056      24.141      27.945      32.065      35.463    
  63.345      60.188      52.164      42.438      33.719      27.115      22.324      19.318      18.322      18.989    
  20.684      22.913      25.247      27.081      27.785      27.081      25.247      22.913      20.684      18.989    
  18.322      19.318      22.324      27.115      33.719      42.438      52.164      60.188      102.27      96.614    
  82.187      64.549      48.411      35.915      27.228      21.249      17.733      16.522      16.695      17.406    
  18.231      18.921      19.202      18.921      18.231      17.406      16.695      16.522      17.733      21.249    
  27.228      35.915      48.411      64.549      82.187      96.614      151.18      142.59      120.74      94.004    
  69.070      48.826      34.077      24.463      18.353      15.392      14.384      14.100      14.129      14.371    
  14.522      14.371      14.129      14.100      14.384      15.392      18.353      24.463      34.077      48.826    
  69.070      94.004      120.74      142.59      207.98      196.09      166.02      129.43      94.994      65.882    
  43.348      28.481      19.723      15.094      13.122      12.113      11.626      11.668      11.798      11.668    
  11.626      12.113      13.122      15.094      19.723      28.481      43.348      65.882      94.994      129.43    
  166.02      196.09      267.19      251.82      213.20      166.58      122.71      84.677      53.885      32.925    
  21.330      15.246      12.512      10.996      10.198      10.194      10.363      10.194      10.198      10.996    
  12.512      15.246      21.330      32.925      53.885      84.677      122.71      166.58      213.20      251.82    
  314.94      296.70      251.06      196.35      145.00      99.998      62.648      36.651      22.623      15.540    
  12.328      10.540      9.6103      9.6472      9.8719      9.6472      9.6103      10.540      12.328      15.540    
  22.623      36.651      62.648      99.998      145.00      196.35      251.06      296.70      281.89      265.94    
  225.77      177.06      130.76      90.103      56.840      34.117      21.732      15.313      12.411      10.788    
  9.9270      9.9192      10.099      9.9192      9.9270      10.788      12.411      15.313      21.732      34.117    
  56.840      90.103      130.76      177.06      225.77      265.94      267.89      252.73      214.51      168.06    
  123.90      85.339      54.100      32.939      21.299      15.200      12.444      10.895      10.059      10.024    
  10.181      10.024      10.059      10.895      12.444      15.200      21.299      32.939      54.100      85.339    
  123.90      168.06      214.51      252.73      231.21      218.12      184.96      144.46      106.02      73.030    
  47.109      29.946      20.172      14.972      12.651      11.354      10.641      10.578      10.688      10.578    
  10.641      11.354      12.651      14.972      20.172      29.946      47.109      73.030      106.02      144.46    
  184.96      218.12      183.46      173.02      146.49      113.91      83.197      57.682      38.600      26.281    
  18.769      14.865      13.229      12.393      11.967      11.959      12.042      11.959      11.967      12.393    
  13.229      14.865      18.769      26.281      38.600      57.682      83.197      113.91      146.49      173.02    
  134.77      127.10      107.54      83.505      61.203      43.479      30.964      22.781      17.570      15.138    
  14.360      14.176      14.222      14.413      14.527      14.413      14.222      14.176      14.360      15.138    
  17.570      22.781      30.964      43.479      61.203      83.505      107.54      127.10      91.072      86.044    
  73.223      57.568      43.364      32.560      25.110      19.924      17.024      16.126      16.392      17.096    
  17.862      18.473      18.712      18.473      17.862      17.096      16.392      16.126      17.024      19.924    
  25.110      32.560      43.364      57.568      73.223      86.044      56.355      53.616      46.656      38.240    
  30.717      24.974      20.743      18.235      17.537      18.280      19.889      21.881      23.894      25.446    
  26.036      25.446      23.894      21.881      19.889      18.280      17.537      18.235      20.743      24.974    
  30.717      38.240      46.656      53.616      33.410      32.270      29.367      25.799      22.390      19.634    
  18.073      17.996      19.375      21.930      25.500      29.797      34.118      37.406      38.643      37.406    
  34.118      29.797      25.500      21.930      19.375      17.996      18.073      19.634      22.390      25.799    
  29.367      32.270      20.891      20.487      19.433      18.120      17.011      16.563      17.196      19.189    
  22.567      27.486      33.879      41.167      48.206      53.425      55.365      53.425      48.206      41.167    
  33.879      27.486      22.567      19.189      17.196      16.563      17.011      18.120      19.433      20.487    
  14.239      14.157      14.008      13.999      14.376      15.477      17.757      21.557      27.291      35.112    
  44.463      54.346      63.387      69.884      72.267      69.884      63.387      54.346      44.463      35.112    
  27.291      21.557      17.757      15.477      14.376      13.999      14.008      14.157      11.059      11.131    
  11.434      12.130      13.389      15.556      19.191      24.945      33.532      44.421      56.265      67.734    
  77.627      84.543      87.059      84.543      77.627      67.734      56.265      44.421      33.532      24.945    
  19.191      15.556      13.389      12.130      11.434      11.131      9.1868      9.3409      9.9153      11.090    
  13.015      16.078      21.003      29.072      40.821      54.740      68.621      81.053      91.348      98.515    
  101.14      98.515      91.348      81.053      68.621      54.740      40.821      29.072      21.003      16.078    
  13.015      11.090      9.9153      9.3409      8.0953      8.2834      8.9999      10.478      12.881      16.663    
  22.829      33.257      48.079      64.795      80.515      94.000      105.15      113.13      116.13      113.13    
  105.15      94.000      80.515      64.795      48.079      33.257      22.829      16.663      12.881      10.478    
  8.9999      8.2834      7.8783      8.0482      8.7546      10.306      12.920      17.124      24.225      36.465    
  53.607      72.431      89.650      104.28      116.66      125.81      129.32      125.81      116.66      104.28    
  89.650      72.431      53.607      36.465      24.225      17.124      12.920      10.306      8.7546      8.0482    
  7.9654      8.1159      8.7847      10.320      12.971      17.302      24.753      37.679      55.695      75.319    
  93.145      108.31      121.29      131.02      134.77      131.02      121.29      108.31      93.145      75.319    
  55.695      37.679      24.753      17.302      12.971      10.320      8.7847      8.1159      7.8783      8.0482    
  8.7546      10.306      12.920      17.124      24.225      36.465      53.607      72.431      89.650      104.28    
  116.66      125.81      129.32      125.81      116.66      104.28      89.650      72.431      53.607      36.465    
  24.225      17.124      12.920      10.306      8.7546      8.0482      8.0953      8.2834      8.9999      10.478    
  12.881      16.663      22.829      33.257      48.079      64.795      80.515      94.000      105.15      113.13    
  116.13      113.13      105.15      94.000      80.515      64.795      48.079      33.257      22.829      16.663    
  12.881      10.478      8.9999      8.2834      9.1868      9.3409      9.9153      11.090      13.015      16.078    
  21.003      29.072      40.821      54.740      68.621      81.053      91.348      98.515      101.14      98.515    
  91.348      81.053      68.621      54.740      40.821      29.072      21.003      16.078      13.015      11.090    
  9.9153      9.3409      11.059      11.131      11.434      12.130      13.389      15.556      19.191      24.945    
  33.532      44.421      56.265      67.734      77.627      84.543      87.059      84.543      77.627      67.734    
  56.265      44.421      33.532      24.945      19.191      15.556      13.389      12.130      11.434      11.131    
  14.239      14.157      14.008      13.999      14.376      15.477      17.757      21.557      27.291      35.112    
  44.463      54.346      63.387      69.884      72.267      69.884      63.387      54.346      44.463      35.112    
  27.291      21.557      17.757      15.477      14.376      13.999      14.008      14.157      20.891      20.487    
  19.433      18.120      17.011      16.563      17.196      19.189      22.567      27.486      33.879      41.167    
  48.206      53.425      55.365      53.425      48.206      41.167      33.879      27.486      22.567      19.189    
  17.196      16.563      17.011      18.120      19.433      20.487      33.410      32.270      29.367      25.799    
  22.390      19.634      18.073      17.996      19.375      21.930      25.500      29.797      34.118      37.406    
  38.643      37.406      34.118      29.797      25.500      21.930      19.375      17.996      18.073      19.634    
  22.390      25.799      29.367      32.270      56.355      53.616      46.656      38.240      30.717      24.974    
  20.743      18.235      17.537      18.280      19.889      21.881      23.894      25.446      26.036      25.446    
  23.894      21.881      19.889      18.280      17.537      18.235      20.743      24.974      30.717      38.240    
  46.656      53.616      91.072      86.044      73.223      57.568      43.364      32.560      25.110      19.924    
  17.024      16.126      16.392      17.096      17.862      18.473      18.712      18.473      17.862      17.096    
  16.392      16.126      17.024      19.924      25.110      32.560      43.364      57.568      73.223      86.044    
  134.77      127.10      107.54      83.505      61.203      43.479      30.964      22.781      17.570      15.138    
  14.360      14.176      14.222      14.413      14.527      14.413      14.222      14.176      14.360      15.138    
  17.570      22.781      30.964      43.479      61.203      83.505      107.54      127.10      183.46      173.02    
  146.49      113.91      83.197      57.682      38.600      26.281      18.769      14.865      13.229      12.393    
  11.967      11.959      12.042      11.959      11.967      12.393      13.229      14.865      18.769      26.281    
  38.600      57.682      83.197      113.91      146.49      173.02      231.21      218.12      184.96      144.46    
  106.02      73.030      47.109      29.946      20.172      14.972      12.651      11.354      10.641      10.578    
  10.688      10.578      10.641      11.354      12.651      14.972      20.172      29.946      47.109      73.030    
  106.02      144.46      184.96      218.12      267.89      252.73      214.51      168.06      123.90      85.339    
  54.100      32.939      21.299      15.200      12.444      10.895      10.059      10.024      10.181      10.024    
  10.059      10.895      12.444      15.200      21.299      32.939      54.100      85.339      123.90      168.06    
  214.51      252.73      218.09      206.12      175.64      137.96      101.63      70.154      45.485      29.279    
  19.976      15.073      12.973      11.890      11.366      11.414      11.555      11.414      11.366      11.890    
  12.973      15.073      19.976      29.279      45.485      70.154      101.63      137.96      175.64      206.12    
  208.92      197.40      168.05      131.73      96.810      66.809      43.580      28.434      19.622      14.983    
  13.000      11.973      11.466      11.489      11.611      11.489      11.466      11.973      13.000      14.983    
  19.622      28.434      43.580      66.809      96.810      131.73      168.05      197.40      183.83      173.58    
  147.38      114.93      83.987      58.060      38.671      26.236      18.701      14.793      13.158      12.325    
  11.904      11.899      11.983      11.899      11.904      12.325      13.158      14.793      18.701      26.236    
  38.671      58.060      83.987      114.93      147.38      173.58      148.66      140.24      118.71      92.072    