unknown system                          
   1.00000000000000     
     3.866000    0.000000    0.000000
     0.000000    3.866000    0.000000
     0.000000    0.000000    3.866000
   Pd   Ir   Pt   Cu
     1     1     1     1
Direct
  0.000000  0.000000  0.000000
  0.500000  0.500000  0.000000
  0.500000  0.000000  0.500000
  0.000000  0.500000  0.500000
 
   28   28   28
 0.35389309733E+03 0.33314304978E+03 0.28140548486E+03 0.21983602633E+03 0.16246828100E+03
 0.11209786945E+03 0.69709911929E+02 0.39715578725E+02 0.23653069477E+02 0.15861456118E+02
 0.12349037415E+02 0.10435770130E+02 0.94886556390E+01 0.96174991903E+01 0.99080662880E+01
 0.96174991903E+01 0.94886556390E+01 0.10435770130E+02 0.12349037415E+02 0.15861456118E+02
 0.23653069477E+02 0.39715578725E+02 0.69709911929E+02 0.11209786945E+03 0.16246828100E+03
 0.21983602633E+03 0.28140548486E+03 0.33314304978E+03 0.33323569256E+03 0.31376858951E+03
 0.26516670532E+03 0.20718889237E+03 0.15306162908E+03 0.10562771355E+03 0.65972356514E+02
 0.38111414620E+02 0.23127955434E+02 0.15702502748E+02 0.12350963939E+02 0.10514243746E+02
 0.95910697492E+01 0.96849554271E+01 0.99464658787E+01 0.96849554271E+01 0.95910697492E+01
 0.10514243746E+02 0.12350963939E+02 0.15702502748E+02 0.23127955434E+02 0.38111414620E+02
 0.65972356514E+02 0.10562771355E+03 0.15306162908E+03 0.20718889237E+03 0.26516670532E+03
 0.31376858951E+03 0.28082684375E+03 0.26457089891E+03 0.22382343400E+03 0.17487633324E+03
 0.12898239652E+03 0.89107594839E+02 0.56505143364E+02 0.34086714627E+02 0.21770749622E+02
 0.15375136621E+02 0.12512210250E+02 0.10948711995E+02 0.10153926504E+02 0.10199400593E+02
 0.10399385639E+02 0.10199400593E+02 0.10153926504E+02 0.10948711995E+02 0.12512210250E+02
 0.15375136621E+02 0.21770749622E+02 0.34086714627E+02 0.56505143364E+02 0.89107594839E+02
 0.12898239652E+03 0.17487633324E+03 0.22382343400E+03 0.26457089891E+03 0.21686957295E+03
 0.20443961545E+03 0.17308485458E+03 0.13505696550E+03 0.99332424964E+02 0.68961164173E+02
 0.45166458473E+02 0.29319753537E+02 0.20086271421E+02 0.15197793322E+02 0.13117506144E+02
 0.12067951260E+02 0.11584360419E+02 0.11665938297E+02 0.11821065606E+02 0.11665938297E+02
 0.11584360419E+02 0.12067951260E+02 0.13117506144E+02 0.15197793322E+02 0.20086271421E+02
 0.29319753537E+02 0.45166458473E+02 0.68961164173E+02 0.99332424964E+02 0.13505696550E+03
 0.17308485458E+03 0.20443961545E+03 0.15687186600E+03 0.14796497491E+03 0.12535028514E+03
 0.97712816062E+02 0.71916501314E+02 0.50813897957E+02 0.35255233946E+02 0.25084785525E+02
 0.18650798281E+02 0.15497496535E+02 0.14413131694E+02 0.14104858853E+02 0.14143872047E+02
 0.14419368716E+02 0.14589892414E+02 0.14419368716E+02 0.14143872047E+02 0.14104858853E+02
 0.14413131694E+02 0.15497496535E+02 0.18650798281E+02 0.25084785525E+02 0.35255233946E+02
 0.50813897957E+02 0.71916501314E+02 0.97712816062E+02 0.12535028514E+03 0.14796497491E+03
 0.10613823995E+03 0.10026743362E+03 0.85311546204E+02 0.67025520105E+02 0.50246694941E+02
 0.37163715035E+02 0.28013057580E+02 0.21744402237E+02 0.18003067607E+02 0.16676622801E+02
 0.16816724283E+02 0.17535445838E+02 0.18389742614E+02 0.19120842591E+02 0.19421495802E+02
 0.19120842591E+02 0.18389742614E+02 0.17535445838E+02 0.16816724283E+02 0.16676622801E+02
 0.18003067607E+02 0.21744402237E+02 0.28013057580E+02 0.37163715035E+02 0.50246694941E+02
 0.67025520105E+02 0.85311546204E+02 0.10026743362E+03 0.65827355383E+02 0.62529156314E+02
 0.54142490153E+02 0.43969024002E+02 0.34830694061E+02 0.27906421304E+02 0.22913830976E+02
 0.19728396731E+02 0.18619300368E+02 0.19255316095E+02 0.20983640044E+02 0.23309199802E+02
 0.25773625476E+02 0.27722279093E+02 0.28472486689E+02 0.27722279093E+02 0.25773625476E+02
 0.23309199802E+02 0.20983640044E+02 0.19255316095E+02 0.18619300368E+02 0.19728396731E+02
 0.22913830976E+02 0.27906421304E+02 0.34830694061E+02 0.43969024002E+02 0.54142490153E+02
 0.62529156314E+02 0.38041967541E+02 0.36629734476E+02 0.33053638582E+02 0.28730805837E+02
 0.24778292834E+02 0.21587510871E+02 0.19651456025E+02 0.19375958019E+02 0.20775316886E+02
 0.23629617272E+02 0.27862075839E+02 0.33112133891E+02 0.38490525457E+02 0.42629570667E+02
 0.44196586176E+02 0.42629570667E+02 0.38490525457E+02 0.33112133891E+02 0.27862075839E+02
 0.23629617272E+02 0.20775316886E+02 0.19375958019E+02 0.19651456025E+02 0.21587510871E+02
 0.24778292834E+02 0.28730805837E+02 0.33053638582E+02 0.36629734476E+02 0.22788353080E+02
 0.22322849451E+02 0.21110729367E+02 0.19588625518E+02 0.18283646944E+02 0.17727481672E+02
 0.18414098838E+02 0.20646269260E+02 0.24517696502E+02 0.30294876626E+02 0.37900264813E+02
 0.46722547638E+02 0.55415776739E+02 0.61966136261E+02 0.64423475664E+02 0.61966136261E+02
 0.55415776739E+02 0.46722547638E+02 0.37900264813E+02 0.30294876626E+02 0.24517696502E+02
 0.20646269260E+02 0.18414098838E+02 0.17727481672E+02 0.18283646944E+02 0.19588625518E+02
 0.21110729367E+02 0.22322849451E+02 0.15086892337E+02 0.14954998003E+02 0.14690873165E+02
 0.14583662719E+02 0.14953036901E+02 0.16205560601E+02 0.18850034265E+02 0.23267240206E+02
 0.29986179804E+02 0.39023949266E+02 0.49824720805E+02 0.61508354350E+02 0.72598840744E+02
 0.80839414164E+02 0.83920742081E+02 0.80839414164E+02 0.72598840744E+02 0.61508354350E+02
 0.49824720805E+02 0.39023949266E+02 0.29986179804E+02 0.23267240206E+02 0.18850034265E+02
 0.16205560601E+02 0.14953036901E+02 0.14583662719E+02 0.14690873165E+02 0.14954998003E+02
 0.11522020964E+02 0.11537062968E+02 0.11723382458E+02 0.12350770620E+02 0.13677534090E+02
 0.16125405624E+02 0.20307980256E+02 0.27067934880E+02 0.36927020252E+02 0.49036484354E+02
 0.62149962220E+02 0.75386738854E+02 0.87662653240E+02 0.96836991312E+02 0.10030086144E+03
 0.96836991312E+02 0.87662653240E+02 0.75386738854E+02 0.62149962220E+02 0.49036484354E+02
 0.36927020252E+02 0.27067934880E+02 0.20307980256E+02 0.16125405624E+02 0.13677534090E+02
 0.12350770620E+02 0.11723382458E+02 0.11537062968E+02 0.96223822031E+01 0.97026574748E+01
 0.10128208129E+02 0.11217911984E+02 0.13225480365E+02 0.16624525662E+02 0.22271600484E+02
 0.31635245693E+02 0.44725953569E+02 0.59579080819E+02 0.74338597464E+02 0.88555332377E+02
 0.10190794219E+03 0.11227209128E+03 0.11628863342E+03 0.11227209128E+03 0.10190794219E+03
 0.88555332377E+02 0.74338597464E+02 0.59579080819E+02 0.44725953569E+02 0.31635245693E+02
 0.22271600484E+02 0.16624525662E+02 0.13225480365E+02 0.11217911984E+02 0.10128208129E+02
 0.97026574748E+01 0.87414556288E+01 0.88320848771E+01 0.93469645244E+01 0.10689386813E+02
 0.13145573424E+02 0.17257871563E+02 0.24300419890E+02 0.36195611654E+02 0.52293333198E+02
 0.69583904892E+02 0.85888750276E+02 0.10151368414E+03 0.11690928317E+03 0.12949952339E+03
 0.13451737527E+03 0.12949952339E+03 0.11690928317E+03 0.10151368414E+03 0.85888750276E+02
 0.69583904892E+02 0.52293333198E+02 0.36195611654E+02 0.24300419890E+02 0.17257871563E+02
 0.13145573424E+02 0.10689386813E+02 0.93469645244E+01 0.88320848771E+01 0.89016253017E+01
 0.89462835125E+01 0.93828122236E+01 0.10719006511E+02 0.13314603913E+02 0.17800325683E+02
 0.25867078386E+02 0.39653625760E+02 0.57982183736E+02 0.77126283776E+02 0.94843689574E+02
 0.11216227549E+03 0.13003728042E+03 0.14518326932E+03 0.15131716698E+03 0.14518326932E+03
 0.13003728042E+03 0.11216227549E+03 0.94843689574E+02 0.77126283776E+02 0.57982183736E+02
 0.39653625760E+02 0.25867078386E+02 0.17800325683E+02 0.13314603913E+02 0.10719006511E+02
 0.93828122236E+01 0.89462835125E+01 0.91925088841E+01 0.92040838703E+01 0.95685389890E+01
 0.10845606356E+02 0.13437970974E+02 0.18023084217E+02 0.26462708756E+02 0.40954920963E+02
 0.60120130780E+02 0.79980197412E+02 0.98305921686E+02 0.11642223658E+03 0.13544951130E+03
 0.15175378432E+03 0.15838711419E+03 0.15175378432E+03 0.13544951130E+03 0.11642223658E+03
 0.98305921686E+02 0.79980197412E+02 0.60120130780E+02 0.40954920963E+02 0.26462708756E+02
 0.18023084217E+02 0.13437970974E+02 0.10845606356E+02 0.95685389890E+01 0.92040838703E+01
 0.89016253017E+01 0.89462835125E+01 0.93828122236E+01 0.10719006511E+02 0.13314603913E+02
 0.17800325683E+02 0.25867078386E+02 0.39653625760E+02 0.57982183736E+02 0.77126283776E+02
 0.94843689574E+02 0.11216227549E+03 0.13003728042E+03 0.14518326932E+03 0.15131716698E+03
 0.14518326932E+03 0.13003728042E+03 0.11216227549E+03 0.94843689574E+02 0.77126283776E+02
 0.57982183736E+02 0.39653625760E+02 0.25867078386E+02 0.17800325683E+02 0.13314603913E+02
 0.10719006511E+02 0.93828122236E+01 0.89462835125E+01 0.87414556288E+01 0.88320848771E+01
 0.93469645244E+01 0.10689386813E+02 0.13145573424E+02 0.17257871563E+02 0.24300419890E+02
 0.36195611654E+02 0.52293333198E+02 0.69583904892E+02 0.85888750276E+02 0.10151368414E+03
 0.11690928317E+03 0.12949952339E+03 0.13451737527E+03 0.12949952339E+03 0.11690928317E+03
 0.10151368414E+03 0.85888750276E+02 0.69583904892E+02 0.52293333198E+02 0.36195611654E+02
 0.24300419890E+02 0.17257871563E+02 0.13145573424E+02 0.10689386813E+02 0.93469645244E+01
 0.88320848771E+01 0.96223822031E+01 0.97026574748E+01 0.10128208129E+02 0.11217911984E+02
 0.13225480365E+02 0.16624525662E+02 0.22271600484E+02 0.31635245693E+02 0.44725953569E+02
 0.59579080819E+02 0.74338597464E+02 0.88555332377E+02 0.10190794219E+03 0.11227209128E+03
 0.11628863342E+03 0.11227209128E+03 0.10190794219E+03 0.88555332377E+02 0.74338597464E+02
 0.59579080819E+02 0.44725953569E+02 0.31635245693E+02 0.22271600484E+02 0.16624525662E+02
 0.13225480365E+02 0.11217911984E+02 0.10128208129E+02 0.97026574748E+01 0.11522020964E+02
 0.11537062968E+02 0.11723382458E+02 0.12350770620E+02 0.13677534090E+02 0.16125405624E+02
 0.20307980256E+02 0.27067934880E+02 0.36927020252E+02 0.49036484354E+02 0.62149962220E+02
 0.75386738854E+02 0.87662653240E+02 0.96836991312E+02 0.10030086144E+03 0.96836991312E+02
 0.87662653240E+02 0.75386738854E+02 0.62149962220E+02 0.49036484354E+02 0.36927020252E+02
 0.27067934880E+02 0.20307980256E+02 0.16125405624E+02 0.13677534090E+02 0.12350770620E+02
 0.11723382458E+02 0.11537062968E+02 0.15086892337E+02 0.14954998003E+02 0.14690873165E+02
 0.14583662719E+02 0.14953036901E+02 0.16205560601E+02 0.18850034265E+02 0.23267240206E+02
 0.29986179804E+02 0.39023949266E+02 0.49824720805E+02 0.61508354350E+02 0.72598840744E+02
 0.80839414164E+02 0.83920742081E+02 0.80839414164E+02 0.72598840744E+02 0.61508354350E+02
 0.49824720805E+02 0.39023949266E+02 0.29986179804E+02 0.23267240206E+02 0.18850034265E+02
 0.16205560601E+02 0.14953036901E+02 0.14583662719E+02 0.14690873165E+02 0.14954998003E+02
 0.22788353080E+02 0.22322849451E+02 0.21110729367E+02 0.19588625518E+02 0.18283646944E+02
 0.17727481672E+02 0.18414098838E+02 0.20646269260E+02 0.24517696502E+02 0.30294876626E+02
 0.37900264813E+02 0.46722547638E+02 0.55415776739E+02 0.61966136261E+02 0.64423475664E+02
 0.61966136261E+02 0.55415776739E+02 0.46722547638E+02 0.37900264813E+02 0.30294876626E+02
 0.24517696502E+02 0.20646269260E+02 0.18414098838E+02 0.17727481672E+02 0.18283646944E+02
 0.19588625518E+02 0.21110729367E+02 0.22322849451E+02 0.38041967541E+02 0.36629734476E+02
 0.33053638582E+02 0.28730805837E+02 0.24778292834E+02 0.21587510871E+02 0.19651456025E+02
 0.19375958019E+02 0.20775316886E+02 0.23629617272E+02 0.27862075839E+02 0.33112133891E+02
 0.38490525457E+02 0.42629570667E+02 0.44196586176E+02 0.42629570667E+02 0.38490525457E+02
 0.33112133891E+02 0.27862075839E+02 0.23629617272E+02 0.20775316886E+02 0.19375958019E+02
 0.19651456025E+02 0.21587510871E+02 0.24778292834E+02 0.28730805837E+02 0.33053638582E+02
 0.36629734476E+02 0.65827355383E+02 0.62529156314E+02 0.54142490153E+02 0.43969024002E+02
 0.34830694061E+02 0.27906421304E+02 0.22913830976E+02 0.19728396731E+02 0.18619300368E+02
 0.19255316095E+02 0.20983640044E+02 0.23309199802E+02 0.25773625476E+02 0.27722279093E+02
 0.28472486689E+02 0.27722279093E+02 0.25773625476E+02 0.23309199802E+02 0.20983640044E+02
 0.19255316095E+02 0.18619300368E+02 0.19728396731E+02 0.22913830976E+02 0.27906421304E+02
 0.34830694061E+02 0.43969024002E+02 0.54142490153E+02 0.62529156314E+02 0.10613823995E+03
 0.10026743362E+03 0.85311546204E+02 0.67025520105E+02 0.50246694941E+02 0.37163715035E+02
 0.28013057580E+02 0.21744402237E+02 0.18003067607E+02 0.16676622801E+02 0.16816724283E+02
 0.17535445838E+02 0.18389742614E+02 0.19120842591E+02 0.19421495802E+02 0.19120842591E+02
 0.18389742614E+02 0.17535445838E+02 0.16816724283E+02 0.16676622801E+02 0.18003067607E+02
 0.21744402237E+02 0.28013057580E+02 0.37163715035E+02 0.50246694941E+02 0.67025520105E+02
 0.85311546204E+02 0.10026743362E+03 0.15687186600E+03 0.14796497491E+03 0.12535028514E+03
 0.97712816062E+02 0.71916501314E+02 0.50813897957E+02 0.35255233946E+02 0.25084785525E+02
 0.18650798281E+02 0.15497496535E+02 0.14413131694E+02 0.14104858853E+02 0.14143872047E+02
 0.14419368716E+02 0.14589892414E+02 0.14419368716E+02 0.14143872047E+02 0.14104858853E+02
 0.14413131694E+02 0.15497496535E+02 0.18650798281E+02 0.25084785525E+02 0.35255233946E+02
 0.50813897957E+02 0.71916501314E+02 0.97712816062E+02 0.12535028514E+03 0.14796497491E+03
 0.21686957295E+03 0.20443961545E+03 0.17308485458E+03 0.13505696550E+03 0.99332424964E+02
 0.68961164173E+02 0.45166458473E+02 0.29319753537E+02 0.20086271421E+02 0.15197793322E+02
 0.13117506144E+02 0.12067951260E+02 0.11584360419E+02 0.11665938297E+02 0.11821065606E+02
 0.11665938297E+02 0.11584360419E+02 0.12067951260E+02 0.13117506144E+02 0.15197793322E+02
 0.20086271421E+02 0.29319753537E+02 0.45166458473E+02 0.68961164173E+02 0.99332424964E+02
 0.13505696550E+03 0.17308485458E+03 0.20443961545E+03 0.28082684375E+03 0.26457089891E+03
 0.22382343400E+03 0.17487633324E+03 0.12898239652E+03 0.89107594839E+02 0.56505143364E+02
 0.34086714627E+02 0.21770749622E+02 0.15375136621E+02 0.12512210250E+02 0.10948711995E+02
 0.10153926504E+02 0.10199400593E+02 0.10399385639E+02 0.10199400593E+02 0.10153926504E+02
 0.10948711995E+02 0.12512210250E+02 0.15375136621E+02 0.21770749622E+02 0.34086714627E+02
 0.56505143364E+02 0.89107594839E+02 0.12898239652E+03 0.17487633324E+03 0.22382343400E+03
 0.26457089891E+03 0.33323569256E+03 0.31376858951E+03 0.26516670532E+03 0.20718889237E+03
 0.15306162908E+03 0.10562771355E+03 0.65972356514E+02 0.38111414620E+02 0.23127955434E+02
 0.15702502748E+02 0.12350963939E+02 0.10514243746E+02 0.95910697492E+01 0.96849554271E+01
 0.99464658787E+01 0.96849554271E+01 0.95910697492E+01 0.10514243746E+02 0.12350963939E+02
 0.15702502748E+02 0.23127955434E+02 0.38111414620E+02 0.65972356514E+02 0.10562771355E+03
 0.15306162908E+03 0.20718889237E+03 0.26516670532E+03 0.31376858951E+03 0.33361842087E+03
 0.31424701563E+03 0.26583058620E+03 0.20792875278E+03 0.15367020648E+03 0.10598017687E+03
 0.66101309515E+02 0.38131156125E+02 0.23120297535E+02 0.15683491469E+02 0.12312947261E+02
 0.10447587041E+02 0.94926709182E+01 0.95614177039E+01 0.98133008213E+01 0.95614177039E+01
 0.94926709182E+01 0.10447587041E+02 0.12312947261E+02 0.15683491469E+02 0.23120297535E+02
 0.38131156125E+02 0.66101309515E+02 0.10598017687E+03 0.15367020648E+03 0.20792875278E+03
 0.26583058620E+03 0.31424701563E+03 0.31493866819E+03 0.29670349831E+03 0.25106391067E+03
 0.19635097718E+03 0.14500175045E+03 0.99997993382E+02 0.62648302005E+02 0.36650558740E+02
 0.22622521844E+02 0.15539739190E+02 0.12327613999E+02 0.10539530250E+02 0.96102664668E+01
 0.96472358808E+01 0.98719493528E+01 0.96472358808E+01 0.96102664668E+01 0.10539530250E+02
 0.12327613999E+02 0.15539739190E+02 0.22622521844E+02 0.36650558740E+02 0.62648302005E+02
 0.99997993382E+02 0.14500175045E+03 0.19635097718E+03 0.25106391067E+03 0.29670349831E+03
 0.26718854027E+03 0.25181943474E+03 0.21319536684E+03 0.16658180354E+03 0.12270576492E+03
 0.84677064549E+02 0.53885180824E+02 0.32925489540E+02 0.21329749154E+02 0.15245517954E+02
 0.12511970642E+02 0.10996236657E+02 0.10198112333E+02 0.10194478749E+02 0.10362605761E+02
 0.10194478749E+02 0.10198112333E+02 0.10996236657E+02 0.12511970642E+02 0.15245517954E+02
 0.21329749154E+02 0.32925489540E+02 0.53885180824E+02 0.84677064549E+02 0.12270576492E+03
 0.16658180354E+03 0.21319536684E+03 0.25181943474E+03 0.20797768566E+03 0.19608687215E+03
 0.16602247022E+03 0.12942662389E+03 0.94994438361E+02 0.65882413609E+02 0.43347874918E+02
 0.28480532198E+02 0.19723327410E+02 0.15094112344E+02 0.13122423150E+02 0.12113443531E+02
 0.11626430028E+02 0.11668045105E+02 0.11797770519E+02 0.11668045105E+02 0.11626430028E+02
 0.12113443531E+02 0.13122423150E+02 0.15094112344E+02 0.19723327410E+02 0.28480532198E+02
 0.43347874918E+02 0.65882413609E+02 0.94994438361E+02 0.12942662389E+03 0.16602247022E+03
 0.19608687215E+03 0.15117714999E+03 0.14258728306E+03 0.12074486982E+03 0.94003505891E+02
 0.69070050048E+02 0.48825543086E+02 0.34077496538E+02 0.24463407590E+02 0.18352775863E+02
 0.15391654352E+02 0.14384394864E+02 0.14100046894E+02 0.14129032665E+02 0.14370828397E+02
 0.14521765794E+02 0.14370828397E+02 0.14129032665E+02 0.14100046894E+02 0.14384394864E+02
 0.15391654352E+02 0.18352775863E+02 0.24463407590E+02 0.34077496538E+02 0.48825543086E+02
 0.69070050048E+02 0.94003505891E+02 0.12074486982E+03 0.14258728306E+03 0.10227465453E+03
 0.96613893393E+02 0.82186678587E+02 0.64549082451E+02 0.48410679308E+02 0.35915365212E+02
 0.27228061130E+02 0.21249125518E+02 0.17733117584E+02 0.16522399880E+02 0.16695124812E+02
 0.17406044631E+02 0.18230543512E+02 0.18921213516E+02 0.19201761954E+02 0.18921213516E+02
 0.18230543512E+02 0.17406044631E+02 0.16695124812E+02 0.16522399880E+02 0.17733117584E+02
 0.21249125518E+02 0.27228061130E+02 0.35915365212E+02 0.48410679308E+02 0.64549082451E+02
 0.82186678587E+02 0.96613893393E+02 0.63344814434E+02 0.60188321110E+02 0.52163666460E+02
 0.42437936400E+02 0.33718892532E+02 0.27114682373E+02 0.22323943720E+02 0.19318462636E+02
 0.18322092885E+02 0.18989394585E+02 0.20684009325E+02 0.22912875504E+02 0.25247408419E+02
 0.27081341974E+02 0.27785247560E+02 0.27081341974E+02 0.25247408419E+02 0.22912875504E+02
 0.20684009325E+02 0.18989394585E+02 0.18322092885E+02 0.19318462636E+02 0.22323943720E+02
 0.27114682373E+02 0.33718892532E+02 0.42437936400E+02 0.52163666460E+02 0.60188321110E+02
 0.36803260751E+02 0.35462831261E+02 0.32065147115E+02 0.27944735921E+02 0.24140864185E+02
 0.21055796527E+02 0.19216559470E+02 0.18996238651E+02 0.20394663337E+02 0.23167265704E+02
 0.27217498632E+02 0.32203305858E+02 0.37286446149E+02 0.41186717185E+02 0.42661259430E+02
 0.41186717185E+02 0.37286446149E+02 0.32203305858E+02 0.27217498632E+02 0.23167265704E+02
 0.20394663337E+02 0.18996238651E+02 0.19216559470E+02 0.21055796527E+02 0.24140864185E+02
 0.27944735921E+02 0.32065147115E+02 0.35462831261E+02 0.22303564755E+02 0.21854159948E+02
 0.20679641858E+02 0.19206038143E+02 0.17945075381E+02 0.17410385330E+02 0.18078909606E+02
 0.20248850808E+02 0.23988616818E+02 0.29538523565E+02 0.36817669132E+02 0.45218217013E+02
 0.53450425204E+02 0.59626792660E+02 0.61938578088E+02 0.59626792660E+02 0.53450425204E+02
 0.45218217013E+02 0.36817669132E+02 0.29538523565E+02 0.23988616818E+02 0.20248850808E+02
 0.18078909606E+02 0.17410385330E+02 0.17945075381E+02 0.19206038143E+02 0.20679641858E+02
 0.21854159948E+02 0.14866083728E+02 0.14749480483E+02 0.14519613928E+02 0.14440817151E+02
 0.14809884321E+02 0.16015439831E+02 0.18556831460E+02 0.22804748541E+02 0.29266454924E+02
 0.37992158035E+02 0.48410825980E+02 0.59598702757E+02 0.70108867405E+02 0.77849114987E+02
 0.80729414397E+02 0.77849114987E+02 0.70108867405E+02 0.59598702757E+02 0.48410825980E+02
 0.37992158035E+02 0.29266454924E+02 0.22804748541E+02 0.18556831460E+02 0.16015439831E+02
 0.14809884321E+02 0.14440817151E+02 0.14519613928E+02 0.14749480483E+02 0.11368237335E+02
 0.11404613691E+02 0.11637071299E+02 0.12298583914E+02 0.13615804767E+02 0.15987700699E+02
 0.20017191109E+02 0.26505880436E+02 0.36043232723E+02 0.47856269247E+02 0.60644812254E+02
 0.73384324823E+02 0.84961577729E+02 0.93466032363E+02 0.96648204110E+02 0.93466032363E+02
 0.84961577729E+02 0.73384324823E+02 0.60644812254E+02 0.47856269247E+02 0.36043232723E+02
 0.26505880436E+02 0.20017191109E+02 0.15987700699E+02 0.13615804767E+02 0.12298583914E+02
 0.11637071299E+02 0.11404613691E+02 0.94135952538E+01 0.95252477686E+01 0.10020228153E+02
 0.11167281382E+02 0.13178163297E+02 0.16498115792E+02 0.21948452121E+02 0.30973772785E+02
 0.43741695722E+02 0.58393140198E+02 0.72936415486E+02 0.86627420718E+02 0.99051302730E+02
 0.10844373926E+03 0.11203894700E+03 0.10844373926E+03 0.99051302730E+02 0.86627420718E+02
 0.72936415486E+02 0.58393140198E+02 0.43741695722E+02 0.30973772785E+02 0.21948452121E+02
 0.16498115792E+02 0.13178163297E+02 0.11167281382E+02 0.10020228153E+02 0.95252477686E+01
 0.84026306908E+01 0.85365315691E+01 0.91499263540E+01 0.10582960556E+02 0.13069614898E+02
 0.17118838294E+02 0.23930997223E+02 0.35455216062E+02 0.51265940632E+02 0.68466601683E+02
 0.84629985529E+02 0.99598301840E+02 0.11368499444E+03 0.12486468856E+03 0.12926592840E+03
 0.12486468856E+03 0.11368499444E+03 0.99598301840E+02 0.84629985529E+02 0.68466601683E+02
 0.51265940632E+02 0.35455216062E+02 0.23930997223E+02 0.17118838294E+02 0.13069614898E+02
 0.10582960556E+02 0.91499263540E+01 0.85365315691E+01 0.84018269606E+01 0.85013364539E+01
 0.90658146792E+01 0.10529001713E+02 0.13188978269E+02 0.17635339545E+02 0.25457330482E+02
 0.38863456218E+02 0.56942655494E+02 0.76074238269E+02 0.93665973217E+02 0.11014865866E+03
 0.12632380219E+03 0.13963819771E+03 0.14497242586E+03 0.13963819771E+03 0.12632380219E+03
 0.11014865866E+03 0.93665973217E+02 0.76074238269E+02 0.56942655494E+02 0.38863456218E+02
 0.25457330482E+02 0.17635339545E+02 0.13188978269E+02 0.10529001713E+02 0.90658146792E+01
 0.85013364539E+01 0.86149687828E+01 0.86865786185E+01 0.91923884948E+01 0.10613518876E+02
 0.13286809146E+02 0.17844136156E+02 0.26036801928E+02 0.40147754207E+02 0.59078795408E+02
 0.78952281366E+02 0.97148093113E+02 0.11434329443E+03 0.13150197045E+03 0.14579811143E+03
 0.15155579909E+03 0.14579811143E+03 0.13150197045E+03 0.11434329443E+03 0.97148093113E+02
 0.78952281366E+02 0.59078795408E+02 0.40147754207E+02 0.26036801928E+02 0.17844136156E+02
 0.13286809146E+02 0.10613518876E+02 0.91923884948E+01 0.86865786185E+01 0.84018269606E+01
 0.85013364539E+01 0.90658146792E+01 0.10529001713E+02 0.13188978269E+02 0.17635339545E+02
 0.25457330482E+02 0.38863456218E+02 0.56942655494E+02 0.76074238269E+02 0.93665973217E+02
 0.11014865866E+03 0.12632380219E+03 0.13963819771E+03 0.14497242586E+03 0.13963819771E+03
 0.12632380219E+03 0.11014865866E+03 0.93665973217E+02 0.76074238269E+02 0.56942655494E+02
 0.38863456218E+02 0.25457330482E+02 0.17635339545E+02 0.13188978269E+02 0.10529001713E+02
 0.90658146792E+01 0.85013364539E+01 0.84026306908E+01 0.85365315691E+01 0.91499263540E+01
 0.10582960556E+02 0.13069614898E+02 0.17118838294E+02 0.23930997223E+02 0.35455216062E+02
 0.51265940632E+02 0.68466601683E+02 0.84629985529E+02 0.99598301840E+02 0.11368499444E+03
 0.12486468856E+03 0.12926592840E+03 0.12486468856E+03 0.11368499444E+03 0.99598301840E+02
 0.84629985529E+02 0.68466601683E+02 0.51265940632E+02 0.35455216062E+02 0.23930997223E+02
 0.17118838294E+02 0.13069614898E+02 0.10582960556E+02 0.91499263540E+01 0.85365315691E+01
 0.94135952538E+01 0.95252477686E+01 0.10020228153E+02 0.11167281382E+02 0.13178163297E+02
 0.16498115792E+02 0.21948452121E+02 0.30973772785E+02 0.43741695722E+02 0.58393140198E+02
 0.72936415486E+02 0.86627420718E+02 0.99051302730E+02 0.10844373926E+03 0.11203894700E+03
 0.10844373926E+03 0.99051302730E+02 0.86627420718E+02 0.72936415486E+02 0.58393140198E+02
 0.43741695722E+02 0.30973772785E+02 0.21948452121E+02 0.16498115792E+02 0.13178163297E+02
 0.11167281382E+02 0.10020228153E+02 0.95252477686E+01 0.11368237335E+02 0.11404613691E+02
 0.11637071299E+02 0.12298583914E+02 0.13615804767E+02 0.15987700699E+02 0.20017191109E+02
 0.26505880436E+02 0.36043232723E+02 0.47856269247E+02 0.60644812254E+02 0.73384324823E+02
 0.84961577729E+02 0.93466032363E+02 0.96648204110E+02 0.93466032363E+02 0.84961577729E+02
 0.73384324823E+02 0.60644812254E+02 0.47856269247E+02 0.36043232723E+02 0.26505880436E+02
 0.20017191109E+02 0.15987700699E+02 0.13615804767E+02 0.12298583914E+02 0.11637071299E+02
 0.11404613691E+02 0.14866083728E+02 0.14749480483E+02 0.14519613928E+02 0.14440817151E+02
 0.14809884321E+02 0.16015439831E+02 0.18556831460E+02 0.22804748541E+02 0.29266454924E+02
 0.37992158035E+02 0.48410825980E+02 0.59598702757E+02 0.70108867405E+02 0.77849114987E+02
 0.80729414397E+02 0.77849114987E+02 0.70108867405E+02 0.59598702757E+02 0.48410825980E+02
 0.37992158035E+02 0.29266454924E+02 0.22804748541E+02 0.18556831460E+02 0.16015439831E+02
 0.14809884321E+02 0.14440817151E+02 0.14519613928E+02 0.14749480483E+02 0.22303564755E+02
 0.21854159948E+02 0.20679641858E+02 0.19206038143E+02 0.17945075381E+02 0.17410385330E+02
 0.18078909606E+02 0.20248850808E+02 0.23988616818E+02 0.29538523565E+02 0.36817669132E+02
 0.45218217013E+02 0.53450425204E+02 0.59626792660E+02 0.61938578088E+02 0.59626792660E+02
 0.53450425204E+02 0.45218217013E+02 0.36817669132E+02 0.29538523565E+02 0.23988616818E+02
 0.20248850808E+02 0.18078909606E+02 0.17410385330E+02 0.17945075381E+02 0.19206038143E+02
 0.20679641858E+02 0.21854159948E+02 0.36803260751E+02 0.35462831261E+02 0.32065147115E+02
 0.27944735921E+02 0.24140864185E+02 0.21055796527E+02 0.19216559470E+02 0.18996238651E+02
 0.20394663337E+02 0.23167265704E+02 0.27217498632E+02 0.32203305858E+02 0.37286446149E+02
 0.41186717185E+02 0.42661259430E+02 0.41186717185E+02 0.37286446149E+02 0.32203305858E+02
 0.27217498632E+02 0.23167265704E+02 0.20394663337E+02 0.18996238651E+02 0.19216559470E+02
 0.21055796527E+02 0.24140864185E+02 0.27944735921E+02 0.32065147115E+02 0.35462831261E+02
 0.63344814434E+02 0.60188321110E+02 0.52163666460E+02 0.42437936400E+02 0.33718892532E+02
 0.27114682373E+02 0.22323943720E+02 0.19318462636E+02 0.18322092885E+02 0.18989394585E+02
 0.20684009325E+02 0.22912875504E+02 0.25247408419E+02 0.27081341974E+02 0.27785247560E+02
 0.27081341974E+02 0.25247408419E+02 0.22912875504E+02 0.20684009325E+02 0.18989394585E+02
 0.18322092885E+02 0.19318462636E+02 0.22323943720E+02 0.27114682373E+02 0.33718892532E+02
 0.42437936400E+02 0.52163666460E+02 0.60188321110E+02 0.10227465453E+03 0.96613893393E+02
 0.82186678587E+02 0.64549082451E+02 0.48410679308E+02 0.35915365212E+02 0.27228061130E+02
 0.21249125518E+02 0.17733117584E+02 0.16522399880E+02 0.16695124812E+02 0.17406044631E+02
 0.18230543512E+02 0.18921213516E+02 0.19201761954E+02 0.18921213516E+02 0.18230543512E+02
 0.17406044631E+02 0.16695124812E+02 0.16522399880E+02 0.17733117584E+02 0.21249125518E+02
 0.27228061130E+02 0.35915365212E+02 0.48410679308E+02 0.64549082451E+02 0.82186678587E+02
 0.96613893393E+02 0.15117714999E+03 0.14258728306E+03 0.12074486982E+03 0.94003505891E+02
 0.69070050048E+02 0.48825543086E+02 0.34077496538E+02 0.24463407590E+02 0.18352775863E+02
 0.15391654352E+02 0.14384394864E+02 0.14100046894E+02 0.14129032665E+02 0.14370828397E+02
 0.14521765794E+02 0.14370828397E+02 0.14129032665E+02 0.14100046894E+02 0.14384394864E+02
 0.15391654352E+02 0.18352775863E+02 0.24463407590E+02 0.34077496538E+02 0.48825543086E+02
 0.69070050048E+02 0.94003505891E+02 0.12074486982E+03 0.14258728306E+03 0.20797768566E+03
 0.19608687215E+03 0.16602247022E+03 0.12942662389E+03 0.94994438361E+02 0.65882413609E+02
 0.43347874918E+02 0.28480532198E+02 0.19723327410E+02 0.15094112344E+02 0.13122423150E+02
 0.12113443531E+02 0.11626430028E+02 0.11668045105E+02 0.11797770519E+02 0.11668045105E+02
 0.11626430028E+02 0.12113443531E+02 0.13122423150E+02 0.15094112344E+02 0.19723327410E+02
 0.28480532198E+02 0.43347874918E+02 0.65882413609E+02 0.94994438361E+02 0.12942662389E+03
 0.16602247022E+03 0.19608687215E+03 0.26718854027E+03 0.25181943474E+03 0.21319536684E+03
 0.16658180354E+03 0.12270576492E+03 0.84677064549E+02 0.53885180824E+02 0.32925489540E+02
 0.21329749154E+02 0.15245517954E+02 0.12511970642E+02 0.10996236657E+02 0.10198112333E+02
 0.10194478749E+02 0.10362605761E+02 0.10194478749E+02 0.10198112333E+02 0.10996236657E+02
 0.12511970642E+02 0.15245517954E+02 0.21329749154E+02 0.32925489540E+02 0.53885180824E+02
 0.84677064549E+02 0.12270576492E+03 0.16658180354E+03 0.21319536684E+03 0.25181943474E+03
 0.31493866819E+03 0.29670349831E+03 0.25106391067E+03 0.19635097718E+03 0.14500175045E+03
 0.99997993382E+02 0.62648302005E+02 0.36650558740E+02 0.22622521844E+02 0.15539739190E+02
 0.12327613999E+02 0.10539530250E+02 0.96102664668E+01 0.96472358808E+01 0.98719493528E+01
 0.96472358808E+01 0.96102664668E+01 0.10539530250E+02 0.12327613999E+02 0.15539739190E+02
 0.22622521844E+02 0.36650558740E+02 0.62648302005E+02 0.99997993382E+02 0.14500175045E+03
 0.19635097718E+03 0.25106391067E+03 0.29670349831E+03 0.28188938260E+03 0.26593680493E+03
 0.22577491270E+03 0.17706457702E+03 0.13076049990E+03 0.90103110204E+02 0.56839618940E+02
 0.34116861906E+02 0.21732419257E+02 0.15312565928E+02 0.12411060031E+02 0.10788216854E+02
 0.99270102751E+01 0.99191926253E+01 0.10098543940E+02 0.99191926253E+01 0.99270102751E+01
 0.10788216854E+02 0.12411060031E+02 0.15312565928E+02 0.21732419257E+02 0.34116861906E+02
 0.56839618940E+02 0.90103110204E+02 0.13076049990E+03 0.17706457702E+03 0.22577491270E+03
 0.26593680493E+03 0.26789136649E+03 0.25273243145E+03 0.21451339017E+03 0.16806257633E+03
 0.12390344373E+03 0.85339254713E+02 0.54100386201E+02 0.32939095995E+02 0.21299141895E+02
 0.15200182088E+02 0.12444403594E+02 0.10894674691E+02 0.10058602933E+02 0.10024394515E+02
 0.10180619521E+02 0.10024394515E+02 0.10058602933E+02 0.10894674691E+02 0.12444403594E+02
 0.15200182088E+02 0.21299141895E+02 0.32939095995E+02 0.54100386201E+02 0.85339254713E+02
 0.12390344373E+03 0.16806257633E+03 0.21451339017E+03 0.25273243145E+03 0.23121407574E+03