   4   4   0   0
  0.1444527E+02  0.3866000E-09  0.3866000E-09  0.3866000E-09  0.5000000E-15
  1.000000000000000E-004
  CAR 
 unknown system                          
     27.47939501     -1.87830182  301      9.06819542      1.00000000
     -1.878  0.0000E+00  0.0000E+00
     -1.780  0.0000E+00  0.0000E+00
     -1.683  0.0000E+00  0.0000E+00
     -1.585  0.0000E+00  0.0000E+00
     -1.487 -0.2993E-28 -0.2929E-29
     -1.389 -0.5792E-25 -0.5671E-26
     -1.291 -0.6916E-22 -0.6774E-23
     -1.193 -0.5091E-19 -0.4988E-20
     -1.095 -0.2308E-16 -0.2263E-17
     -0.998 -0.6235E-14 -0.6125E-15
     -0.900 -0.1061E-11 -0.1044E-12
     -0.802 -0.1104E-09 -0.1091E-10
     -0.704 -0.7000E-08 -0.6960E-09
     -0.606 -0.2686E-06 -0.2698E-07
     -0.508 -0.6170E-05 -0.6308E-06
     -0.410 -0.8324E-04 -0.8777E-05
     -0.313 -0.6335E-03 -0.7077E-04
     -0.215 -0.2439E-02 -0.3094E-03
     -0.117 -0.2610E-02 -0.5648E-03
     -0.019  0.1210E-01  0.6194E-03
      0.079  0.4604E-01  0.5124E-02
      0.177  0.6201E-01  0.1119E-01
      0.275  0.2905E-01  0.1404E-01
      0.372 -0.5988E-02  0.1345E-01
      0.470  0.5714E-01  0.1904E-01
      0.568  0.2470E+00  0.4321E-01
      0.666  0.3719E+00  0.7960E-01
      0.764  0.2435E+00  0.1034E+00
      0.862  0.5351E-01  0.1087E+00
      0.960  0.1650E+00  0.1248E+00
      1.057  0.5731E+00  0.1809E+00
      1.155  0.7500E+00  0.2543E+00
      1.253  0.4404E+00  0.2974E+00
      1.351  0.1759E+00  0.3146E+00
      1.449  0.3289E+00  0.3468E+00
      1.547  0.5334E+00  0.3990E+00
      1.645  0.4304E+00  0.4411E+00
      1.742  0.1773E+00  0.4585E+00
      1.840  0.3259E-01  0.4616E+00
      1.938  0.1158E+00  0.4730E+00
      2.036  0.3942E+00  0.5116E+00
      2.134  0.6169E+00  0.5719E+00
      2.232  0.7597E+00  0.6463E+00
      2.330  0.1204E+01  0.7641E+00
      2.427  0.1765E+01  0.9368E+00
      2.525  0.1805E+01  0.1113E+01
      2.623  0.1288E+01  0.1240E+01
      2.721  0.6861E+00  0.1307E+01
      2.819  0.7000E+00  0.1375E+01
      2.917  0.1564E+01  0.1528E+01
      3.015  0.2548E+01  0.1778E+01
      3.113  0.2870E+01  0.2059E+01
      3.210  0.2611E+01  0.2314E+01
      3.308  0.2055E+01  0.2515E+01
      3.406  0.1710E+01  0.2682E+01
      3.504  0.2786E+01  0.2955E+01
      3.602  0.4887E+01  0.3433E+01
      3.700  0.5603E+01  0.3982E+01
      3.798  0.4893E+01  0.4460E+01
      3.895  0.5136E+01  0.4963E+01
      3.993  0.6557E+01  0.5605E+01
      4.091  0.7581E+01  0.6347E+01
      4.189  0.7636E+01  0.7094E+01
      4.287  0.6749E+01  0.7754E+01
      4.385  0.5411E+01  0.8284E+01
      4.483  0.5002E+01  0.8773E+01
      4.580  0.5702E+01  0.9331E+01
      4.678  0.6205E+01  0.9938E+01
      4.776  0.5846E+01  0.1051E+02
      4.874  0.5054E+01  0.1101E+02
      4.972  0.4521E+01  0.1145E+02
      5.070  0.4569E+01  0.1189E+02
      5.168  0.4617E+01  0.1235E+02
      5.265  0.4209E+01  0.1276E+02
      5.363  0.4252E+01  0.1317E+02
      5.461  0.5331E+01  0.1370E+02
      5.559  0.6644E+01  0.1435E+02
      5.657  0.7215E+01  0.1505E+02
      5.755  0.6646E+01  0.1570E+02
      5.853  0.5873E+01  0.1628E+02
      5.950  0.6472E+01  0.1691E+02
      6.048  0.7723E+01  0.1767E+02
      6.146  0.7566E+01  0.1841E+02
      6.244  0.6664E+01  0.1906E+02
      6.342  0.7836E+01  0.1983E+02
      6.440  0.1120E+02  0.2092E+02
      6.538  0.1301E+02  0.2220E+02
      6.635  0.1113E+02  0.2328E+02
      6.733  0.8664E+01  0.2413E+02
      6.831  0.8518E+01  0.2497E+02
      6.929  0.9548E+01  0.2590E+02
      7.027  0.1032E+02  0.2691E+02
      7.125  0.1058E+02  0.2795E+02
      7.223  0.9944E+01  0.2892E+02
      7.320  0.8176E+01  0.2972E+02
      7.418  0.6132E+01  0.3032E+02
      7.516  0.5144E+01  0.3082E+02
      7.614  0.4951E+01  0.3131E+02
      7.712  0.4854E+01  0.3178E+02
      7.810  0.5178E+01  0.3229E+02
      7.908  0.5924E+01  0.3287E+02
      8.005  0.6895E+01  0.3354E+02
      8.103  0.7907E+01  0.3432E+02
      8.201  0.8013E+01  0.3510E+02
      8.299  0.6904E+01  0.3578E+02
      8.397  0.5590E+01  0.3632E+02
      8.495  0.4899E+01  0.3680E+02
      8.593  0.4600E+01  0.3725E+02
      8.690  0.4546E+01  0.3770E+02
      8.788  0.5225E+01  0.3821E+02
      8.886  0.6298E+01  0.3883E+02
      8.984  0.6666E+01  0.3948E+02
      9.082  0.6149E+01  0.4008E+02
      9.180  0.5304E+01  0.4060E+02
      9.278  0.4481E+01  0.4104E+02
      9.375  0.3748E+01  0.4140E+02
      9.473  0.3152E+01  0.4171E+02
      9.571  0.3176E+01  0.4202E+02
      9.669  0.3640E+01  0.4238E+02
      9.767  0.3140E+01  0.4269E+02
      9.865  0.1663E+01  0.4285E+02
      9.963  0.8790E+00  0.4294E+02
     10.060  0.1138E+01  0.4305E+02
     10.158  0.1252E+01  0.4317E+02
     10.256  0.8319E+00  0.4325E+02
     10.354  0.6658E+00  0.4332E+02
     10.452  0.9877E+00  0.4341E+02
     10.550  0.1091E+01  0.4352E+02
     10.648  0.7903E+00  0.4360E+02
     10.746  0.6952E+00  0.4366E+02
     10.843  0.1074E+01  0.4377E+02
     10.941  0.1556E+01  0.4392E+02
     11.039  0.1745E+01  0.4409E+02
     11.137  0.1406E+01  0.4423E+02
     11.235  0.6804E+00  0.4430E+02
     11.333  0.3378E+00  0.4433E+02
     11.431  0.7135E+00  0.4440E+02
     11.528  0.1057E+01  0.4450E+02
     11.626  0.8376E+00  0.4459E+02
     11.724  0.6237E+00  0.4465E+02
     11.822  0.8558E+00  0.4473E+02
     11.920  0.1051E+01  0.4483E+02
     12.018  0.8501E+00  0.4492E+02
     12.116  0.5773E+00  0.4497E+02
     12.213  0.4327E+00  0.4501E+02
     12.311  0.2879E+00  0.4504E+02
     12.409  0.3085E+00  0.4507E+02
     12.507  0.7414E+00  0.4515E+02
     12.605  0.1391E+01  0.4528E+02
     12.703  0.1791E+01  0.4546E+02
     12.801  0.1726E+01  0.4563E+02
     12.898  0.1461E+01  0.4577E+02
     12.996  0.1236E+01  0.4589E+02
     13.094  0.1022E+01  0.4599E+02
     13.192  0.7897E+00  0.4607E+02
     13.290  0.6481E+00  0.4613E+02
     13.388  0.7334E+00  0.4620E+02
     13.486  0.9239E+00  0.4629E+02
     13.583  0.1077E+01  0.4640E+02
     13.681  0.1509E+01  0.4655E+02
     13.779  0.2134E+01  0.4675E+02
     13.877  0.2124E+01  0.4696E+02
     13.975  0.1532E+01  0.4711E+02
     14.073  0.9096E+00  0.4720E+02
     14.171  0.3362E+00  0.4723E+02
     14.268  0.1497E-01  0.4724E+02
     14.366  0.1431E+00  0.4725E+02
     14.464  0.5256E+00  0.4730E+02
     14.562  0.6967E+00  0.4737E+02
     14.660  0.4388E+00  0.4741E+02
     14.758  0.1460E+00  0.4743E+02
     14.856  0.2267E+00  0.4745E+02
     14.953  0.5605E+00  0.4750E+02
     15.051  0.9466E+00  0.4760E+02
     15.149  0.1318E+01  0.4773E+02
     15.247  0.1379E+01  0.4786E+02
     15.345  0.1202E+01  0.4798E+02
     15.443  0.1410E+01  0.4812E+02
     15.541  0.1968E+01  0.4831E+02
     15.638  0.2184E+01  0.4852E+02
     15.736  0.1931E+01  0.4871E+02
     15.834  0.1464E+01  0.4885E+02
     15.932  0.9623E+00  0.4895E+02
     16.030  0.8751E+00  0.4903E+02
     16.128  0.1402E+01  0.4917E+02
     16.226  0.1874E+01  0.4935E+02
     16.323  0.1531E+01  0.4950E+02
     16.421  0.6457E+00  0.4957E+02
     16.519  0.1088E-01  0.4957E+02
     16.617 -0.5084E-01  0.4956E+02
     16.715  0.5045E+00  0.4961E+02
     16.813  0.1542E+01  0.4976E+02
     16.911  0.2305E+01  0.4999E+02
     17.008  0.2131E+01  0.5020E+02
     17.106  0.1287E+01  0.5032E+02
     17.204  0.4266E+00  0.5037E+02
     17.302  0.5995E-01  0.5037E+02
     17.400  0.3732E+00  0.5041E+02
     17.498  0.1003E+01  0.5051E+02
     17.596  0.1369E+01  0.5064E+02
     17.693  0.1468E+01  0.5078E+02
     17.791  0.1870E+01  0.5097E+02
     17.889  0.2741E+01  0.5124E+02
     17.987  0.3065E+01  0.5154E+02
     18.085  0.2095E+01  0.5174E+02
     18.183  0.8210E+00  0.5182E+02
     18.281  0.3524E+00  0.5186E+02
     18.379  0.5264E+00  0.5191E+02
     18.476  0.8794E+00  0.5199E+02
     18.574  0.1368E+01  0.5213E+02
     18.672  0.1762E+01  0.5230E+02
     18.770  0.1770E+01  0.5247E+02
     18.868  0.1663E+01  0.5264E+02
     18.966  0.1611E+01  0.5279E+02
     19.064  0.1245E+01  0.5291E+02
     19.161  0.5918E+00  0.5297E+02
     19.259  0.2752E+00  0.5300E+02
     19.357  0.6249E+00  0.5306E+02
     19.455  0.1267E+01  0.5318E+02
     19.553  0.1597E+01  0.5334E+02
     19.651  0.1482E+01  0.5349E+02
     19.749  0.1379E+01  0.5362E+02
     19.846  0.1684E+01  0.5379E+02
     19.944  0.2247E+01  0.5401E+02
     20.042  0.2697E+01  0.5427E+02
     20.140  0.2606E+01  0.5452E+02
     20.238  0.1853E+01  0.5471E+02
     20.336  0.1335E+01  0.5484E+02
     20.434  0.1723E+01  0.5501E+02
     20.531  0.2099E+01  0.5521E+02
     20.629  0.1662E+01  0.5537E+02
     20.727  0.9545E+00  0.5547E+02
     20.825  0.5626E+00  0.5552E+02
     20.923  0.5940E+00  0.5558E+02
     21.021  0.1103E+01  0.5569E+02
     21.119  0.1893E+01  0.5587E+02
     21.216  0.2305E+01  0.5610E+02
     21.314  0.1976E+01  0.5629E+02
     21.412  0.1605E+01  0.5645E+02
     21.510  0.1908E+01  0.5664E+02
     21.608  0.2430E+01  0.5687E+02
     21.706  0.2425E+01  0.5711E+02
     21.804  0.2044E+01  0.5731E+02
     21.901  0.1779E+01  0.5749E+02
     21.999  0.1666E+01  0.5765E+02
     22.097  0.1627E+01  0.5781E+02
     22.195  0.1747E+01  0.5798E+02
     22.293  0.1884E+01  0.5816E+02
     22.391  0.1854E+01  0.5834E+02
     22.489  0.1532E+01  0.5849E+02
     22.586  0.9437E+00  0.5859E+02
     22.684  0.6297E+00  0.5865E+02
     22.782  0.8747E+00  0.5873E+02
     22.880  0.1342E+01  0.5886E+02
     22.978  0.1599E+01  0.5902E+02
     23.076  0.1345E+01  0.5915E+02
     23.174  0.7338E+00  0.5922E+02
     23.271  0.3559E+00  0.5926E+02
     23.369  0.3889E+00  0.5930E+02
     23.467  0.4144E+00  0.5934E+02
     23.565  0.2239E+00  0.5936E+02
     23.663  0.3420E-01  0.5936E+02
     23.761 -0.2123E-01  0.5936E+02
     23.859 -0.1232E-01  0.5936E+02
     23.956 -0.3620E-02  0.5936E+02
     24.054 -0.6471E-02  0.5936E+02
     24.152 -0.2347E-01  0.5936E+02
     24.250 -0.3125E-01  0.5935E+02
     24.348  0.7556E-01  0.5936E+02
     24.446  0.3840E+00  0.5940E+02
     24.544  0.7951E+00  0.5948E+02
     24.641  0.1104E+01  0.5958E+02
     24.739  0.1043E+01  0.5969E+02
     24.837  0.5646E+00  0.5974E+02
     24.935  0.9952E-01  0.5975E+02
     25.033 -0.6901E-01  0.5975E+02
     25.131 -0.7086E-01  0.5974E+02
     25.229  0.5315E-01  0.5974E+02
     25.326  0.4264E+00  0.5979E+02
     25.424  0.8601E+00  0.5987E+02
     25.522  0.8763E+00  0.5996E+02
     25.620  0.4552E+00  0.6000E+02
     25.718  0.7415E-01  0.6001E+02
     25.816 -0.3917E-01  0.6000E+02
     25.914 -0.2402E-01  0.6000E+02
     26.012 -0.5637E-02  0.6000E+02
     26.109 -0.7066E-03  0.6000E+02
     26.207 -0.5107E-04  0.6000E+02
     26.305 -0.2192E-05  0.6000E+02
     26.403 -0.5666E-07  0.6000E+02
     26.501 -0.8894E-09  0.6000E+02
     26.599 -0.8521E-11  0.6000E+02
     26.697 -0.4966E-13  0.6000E+02
     26.794 -0.2904E-15  0.6000E+02
     26.892  0.0000E+00  0.6000E+02
     26.990  0.0000E+00  0.6000E+02
     27.088  0.0000E+00  0.6000E+02
     27.186  0.0000E+00  0.6000E+02
     27.284  0.0000E+00  0.6000E+02
     27.382  0.0000E+00  0.6000E+02
     27.479  0.0000E+00  0.6000E+02
