    4    4    1    1
  0.1444527E+02  0.3866000E-09  0.3866000E-09  0.3866000E-09  0.5000000E-15
  1.000000000000000E-004
  CAR 
 unknown system                          
     40     27     30
 
  0.0000000E+00  0.0000000E+00  0.0000000E+00  0.8000000E-02
    1        0.121698   1.000000
    2        2.505466   1.000000
    3        3.443365   1.000000
    4        3.507661   1.000000
    5        3.582147   1.000000
    6        3.643262   1.000000
    7        3.679838   1.000000
    8        6.590570   1.000000
    9        6.647466   1.000000
   10        6.738481   1.000000
   11        7.439200   1.000000
   12        7.560616   1.000000
   13        7.847559   1.000000
   14        8.168249   1.000000
   15        8.230688   1.000000
   16        9.009255   0.737795
   17        9.246078  -0.009520
   18        9.276103  -0.028759
   19        9.615160  -0.000381
   20       10.081921  -0.000000
   21       10.678895  -0.000000
   22       11.435199  -0.000000
   23       11.445826  -0.000000
   24       11.457051  -0.000000
   25       17.802397   0.000000
   26       18.122225   0.000000
   27       19.682092   0.000000
   28       20.342356   0.000000
   29       20.494277   0.000000
   30       20.740005   0.000000
 
  0.2000000E+00  0.0000000E+00  0.0000000E+00  0.1600000E-01
    1        0.584487   1.000000
    2        2.824183   1.000000
    3        3.658511   1.000000
    4        3.678168   1.000000
    5        3.920932   1.000000
    6        3.964379   1.000000
    7        4.016154   1.000000
    8        6.091561   1.000000
    9        6.340598   1.000000
   10        6.513980   1.000000
   11        7.231941   1.000000
   12        7.395933   1.000000
   13        7.493305   1.000000
   14        7.723754   1.000000
   15        7.777150   1.000000
   16        7.839977   1.000000
   17        8.840501   1.034172
   18        8.987420   0.812842
   19        9.096976   0.379608
   20        9.361719  -0.029068
   21        9.704975  -0.000032
   22       10.681264  -0.000000
   23       13.158897  -0.000000
   24       13.159184  -0.000000
   25       17.830844   0.000000
   26       18.013250   0.000000
   27       20.452682   0.000000
   28       20.502968   0.000000
   29       20.627615   0.000000
   30       20.975601   0.000000
 
  0.0000000E+00  0.2000000E+00  0.0000000E+00  0.1600000E-01
    1        0.640850   1.000000
    2        2.835224   1.000000
    3        3.620317   1.000000
    4        3.729399   1.000000
    5        3.864333   1.000000
    6        4.015522   1.000000
    7        4.024940   1.000000
    8        6.210247   1.000000
    9        6.375720   1.000000
   10        6.428834   1.000000
   11        7.133648   1.000000
   12        7.349665   1.000000
   13        7.513889   1.000000
   14        7.574737   1.000000
   15        8.093391   1.000000
   16        8.644639   1.005365
   17        8.876551   1.020230
   18        8.973728   0.854527
   19        9.100439   0.365514
   20        9.145048   0.199900
   21        9.259718  -0.020151
   22        9.690106  -0.000050
   23       13.271231  -0.000000
   24       13.395981  -0.000000
   25       17.423243   0.000000
   26       18.621205   0.000000
   27       20.389000   0.000000
   28       20.440492   0.000000
   29       20.633271   0.000000
   30       21.255297   0.000000
 
  0.0000000E+00  0.0000000E+00  0.2000000E+00  0.1600000E-01
    1        0.642632   1.000000
    2        2.855693   1.000000
    3        3.761712   1.000000
    4        3.837560   1.000000
    5        3.857203   1.000000
    6        3.872809   1.000000
    7        3.929447   1.000000
    8        6.032292   1.000000
    9        6.391526   1.000000
   10        6.511816   1.000000
   11        7.146365   1.000000
   12        7.329712   1.000000
   13        7.482744   1.000000
   14        7.815249   1.000000
   15        7.886666   1.000000
   16        8.208975   1.000000
   17        8.667095   1.007853
   18        8.997393   0.779792
   19        9.066022   0.509197
   20        9.177681   0.104973
   21        9.709437  -0.000028
   22       10.068951  -0.000000
   23       13.235998  -0.000000
   24       13.360908  -0.000000
   25       17.105415   0.000000
   26       18.835868   0.000000
   27       20.485802   0.000000
   28       20.490536   0.000000
   29       20.744679   0.000000
   30       21.192600   0.000000
 
  0.4000000E+00  0.0000000E+00  0.0000000E+00  0.1600000E-01
    1        1.669620   1.000000
    2        3.490192   1.000000
    3        3.805216   1.000000
    4        3.993484   1.000000
    5        4.669488   1.000000
    6        4.714375   1.000000
    7        4.860182   1.000000
    8        5.664841   1.000000
    9        5.940107   1.000000
   10        6.059886   1.000000
   11        6.810136   1.000000
   12        6.837203   1.000000
   13        6.878724   1.000000
   14        7.127941   1.000000
   15        7.192936   1.000000
   16        7.358378   1.000000
   17        7.912108   1.000000
   18        8.124387   1.000000
   19        8.142435   1.000000
   20        8.475779   1.000115
   21        9.225481   0.013506
   22       10.706119  -0.000000
   23       15.691560   0.000000
   24       15.764553   0.000000
   25       17.043345   0.000000
   26       17.971706   0.000000
   27       18.670757   0.000000
   28       18.787807   0.000000
   29       19.147148   0.000000
   30       21.887120   0.000000
 
  0.0000000E+00  0.4000000E+00  0.0000000E+00  0.1600000E-01
    1        2.010802   1.000000
    2        3.291531   1.000000
    3        3.748022   1.000000
    4        4.055387   1.000000
    5        4.596495   1.000000
    6        4.648374   1.000000
    7        4.999913   1.000000
    8        5.846555   1.000000
    9        6.290143   1.000000
   10        6.328114   1.000000
   11        6.743996   1.000000
   12        6.785583   1.000000
   13        6.797119   1.000000
   14        7.074624   1.000000
   15        7.396919   1.000000
   16        7.742665   1.000000
   17        7.761889   1.000000
   18        7.947361   1.000000
   19        8.081231   1.000000
   20        8.267101   1.000000
   21        8.957725   0.897485
   22        9.288434  -0.032692
   23       15.924646   0.000000
   24       15.957895   0.000000
   25       16.683965   0.000000
   26       18.442155   0.000000
   27       18.507091   0.000000
   28       18.656154   0.000000
   29       20.444730   0.000000
   30       20.850655   0.000000
 
  0.0000000E+00  0.0000000E+00  0.4000000E+00  0.1600000E-01
    1        2.029643   1.000000
    2        3.288616   1.000000
    3        3.948048   1.000000
    4        4.292273   1.000000
    5        4.668561   1.000000
    6        4.694849   1.000000
    7        4.704539   1.000000
    8        5.522272   1.000000
    9        5.935078   1.000000
   10        6.080645   1.000000
   11        6.776200   1.000000
   12        6.885971   1.000000
   13        6.900818   1.000000
   14        7.066988   1.000000
   15        7.259732   1.000000
   16        7.513097   1.000000
   17        7.917243   1.000000
   18        7.921908   1.000000
   19        8.253794   1.000000
   20        8.333196   1.000001
   21        8.794568   1.032871
   22       10.082377  -0.000000
   23       15.893996   0.000000
   24       16.003773   0.000000
   25       16.235000   0.000000
   26       18.482511   0.000000
   27       18.749060   0.000000
   28       18.943793   0.000000
   29       20.060250   0.000000
   30       21.173517   0.000000
 
  0.2000000E+00  0.2000000E+00  0.0000000E+00  0.3200000E-01
    1        1.081991   1.000000
    2        3.149914   1.000000
    3        3.944605   1.000000
    4        3.948519   1.000000
    5        4.085940   1.000000
    6        4.136861   1.000000
    7        4.342093   1.000000
    8        5.998687   1.000000
    9        6.504943   1.000000
   10        6.578755   1.000000
   11        7.029187   1.000000
   12        7.151745   1.000000
   13        7.156054   1.000000
   14        7.304634   1.000000
   15        7.636125   1.000000
   16        7.876551   1.000000
   17        8.123499   1.000000
   18        8.766868   1.027354
   19        8.842726   1.033795
   20        8.965565   0.877235
   21        9.607602  -0.000459
   22       10.852069  -0.000000
   23       11.855050  -0.000000
   24       14.535089   0.000000
   25       16.971679   0.000000
   26       18.983976   0.000000
   27       20.062185   0.000000
   28       20.412599   0.000000
   29       21.115458   0.000000
   30       21.753760   0.000000
 
  0.0000000E+00  0.2000000E+00  0.2000000E+00  0.3200000E-01
    1        1.110537   1.000000
    2        3.183721   1.000000
    3        3.914037   1.000000
    4        4.010466   1.000000
    5        4.045696   1.000000
    6        4.255099   1.000000
    7        4.293428   1.000000
    8        5.941210   1.000000
    9        6.513968   1.000000
   10        6.556643   1.000000
   11        7.040146   1.000000
   12        7.055581   1.000000
   13        7.211892   1.000000
   14        7.286141   1.000000
   15        7.646555   1.000000
   16        7.938913   1.000000
   17        8.305111   1.000000
   18        8.599871   1.002281
   19        8.773832   1.028888
   20        8.817810   1.035348
   21        9.414325  -0.017232
   22       10.903607  -0.000000
   23       12.208672  -0.000000
   24       14.433037  -0.000000
   25       16.828566   0.000000
   26       19.046286   0.000000
   27       19.561538   0.000000
   28       20.944901   0.000000
   29       21.256443   0.000000
   30       21.925099   0.000000
 
  0.2000000E+00  0.0000000E+00  0.2000000E+00  0.3200000E-01
    1        1.082000   1.000000
    2        3.173703   1.000000
    3        3.934904   1.000000
    4        3.943714   1.000000
    5        4.076506   1.000000
    6        4.266978   1.000000
    7        4.269359   1.000000
    8        5.822248   1.000000
    9        6.506472   1.000000
   10        6.737134   1.000000
   11        6.946307   1.000000
   12        7.179540   1.000000
   13        7.182157   1.000000
   14        7.213090   1.000000
   15        7.614681   1.000000
   16        7.749197   1.000000
   17        7.938680   1.000000
   18        8.892810   1.007195
   19        8.943055   0.931215
   20        9.142752   0.207513
   21        9.739885  -0.000011
   22       11.090802  -0.000000
   23       11.519784  -0.000000
   24       14.531185   0.000000
   25       16.934785   0.000000
   26       18.916900   0.000000
   27       20.007757   0.000000
   28       20.544129   0.000000
   29       21.210400   0.000000
   30       21.887313   0.000000
 
  0.4000000E+00  0.2000000E+00  0.0000000E+00  0.3200000E-01
    1        2.134754   1.000000
    2        3.765849   1.000000
    3        4.109505   1.000000
    4        4.239771   1.000000
    5        4.622431   1.000000
    6        4.795493   1.000000
    7        4.958766   1.000000
    8        5.531380   1.000000
    9        5.582143   1.000000
   10        6.047399   1.000000
   11        6.321661   1.000000
   12        6.417226   1.000000
   13        6.796030   1.000000
   14        7.067058   1.000000
   15        7.163772   1.000000
   16        7.535561   1.000000
   17        7.681892   1.000000
   18        8.250585   1.000000
   19        8.349391   1.000002
   20        8.839948   1.034257
   21        9.440275  -0.012220
   22        9.704819  -0.000032
   23       13.067806  -0.000000
   24       15.181491   0.000000
   25       16.903769   0.000000
   26       18.055784   0.000000
   27       19.595720   0.000000
   28       19.790461   0.000000
   29       21.887136   0.000000
   30       23.093574   0.000000
 
  0.0000000E+00  0.4000000E+00  0.2000000E+00  0.3200000E-01
    1        2.358494   1.000000
    2        3.624847   1.000000
    3        3.981634   1.000000
    4        4.259678   1.000000
    5        4.523055   1.000000
    6        4.767740   1.000000
    7        5.120163   1.000000
    8        5.655193   1.000000
    9        5.723405   1.000000
   10        6.239634   1.000000
   11        6.283952   1.000000
   12        6.447907   1.000000
   13        6.799244   1.000000
   14        7.049172   1.000000
   15        7.465205   1.000000
   16        7.580614   1.000000
   17        7.659205   1.000000
   18        8.030614   1.000000
   19        8.228806   1.000000
   20        8.798770   1.033515
   21        8.911305   0.985963
   22        9.255755  -0.017410
   23       13.578405  -0.000000
   24       15.125155   0.000000
   25       16.784067   0.000000
   26       18.343135   0.000000
   27       19.402808   0.000000
   28       19.566619   0.000000
   29       21.713445   0.000000
   30       23.330914   0.000000
 
  0.2000000E+00  0.0000000E+00  0.4000000E+00  0.3200000E-01
    1        2.399789   1.000000
    2        3.629948   1.000000
    3        4.193573   1.000000
    4        4.382333   1.000000
    5        4.591716   1.000000
    6        4.891399   1.000000
    7        4.929108   1.000000
    8        5.294291   1.000000
    9        5.492014   1.000000
   10        6.136371   1.000000
   11        6.389928   1.000000
   12        6.460557   1.000000
   13        6.845224   1.000000
   14        7.097855   1.000000
   15        7.202198   1.000000
   16        7.521247   1.000000
   17        7.830743   1.000000
   18        8.087493   1.000000
   19        8.363150   1.000004
   20        8.578762   1.001461
   21        9.140378   0.215505
   22        9.330319  -0.034449
   23       13.433323  -0.000000
   24       15.169284   0.000000
   25       16.851047   0.000000
   26       17.926785   0.000000
   27       19.393299   0.000000
   28       20.109065   0.000000
   29       21.977656   0.000000
   30       22.999098   0.000000
 
 -0.2000000E+00  0.4000000E+00  0.0000000E+00  0.3200000E-01
    1        2.394850   1.000000
    2        3.606571   1.000000
    3        4.033112   1.000000
    4        4.265060   1.000000
    5        4.541647   1.000000
    6        4.734129   1.000000
    7        5.112777   1.000000
    8        5.657418   1.000000
    9        5.907936   1.000000
   10        6.193484   1.000000
   11        6.232956   1.000000
   12        6.427545   1.000000
   13        6.808096   1.000000
   14        7.105911   1.000000
   15        7.347960   1.000000
   16        7.601097   1.000000
   17        7.663804   1.000000
   18        8.057747   1.000000
   19        8.319361   1.000001
   20        8.685169   1.010415
   21        8.832025   1.035143
   22        9.100535   0.365122
   23       13.491892  -0.000000
   24       15.164668   0.000000
   25       16.846648   0.000000
   26       18.305319   0.000000
   27       19.377129   0.000000
   28       19.727845   0.000000
   29       22.017782   0.000000
   30       23.030532   0.000000
 
 -0.4000000E+00  0.0000000E+00  0.2000000E+00  0.3200000E-01
    1        2.130919   1.000000
    2        3.801500   1.000000
    3        4.068229   1.000000
    4        4.203432   1.000000
    5        4.573111   1.000000
    6        4.851243   1.000000
    7        5.007606   1.000000
    8        5.437193   1.000000
    9        5.491159   1.000000
   10        6.157422   1.000000
   11        6.408867   1.000000
   12        6.467064   1.000000
   13        6.820712   1.000000
   14        7.058436   1.000000
   15        7.139145   1.000000
   16        7.521957   1.000000
   17        7.788999   1.000000
   18        8.066393   1.000000
   19        8.453805   1.000062
   20        8.874695   1.021418
   21        9.400734  -0.020200
   22        9.658824  -0.000121
   23       13.044210  -0.000000
   24       15.242177   0.000000
   25       16.860742   0.000000
   26       18.021201   0.000000
   27       19.503106   0.000000
   28       19.727563   0.000000
   29       21.986719   0.000000
   30       22.987666   0.000000
 
  0.0000000E+00  0.2000000E+00  0.4000000E+00  0.3200000E-01
    1        2.368924   1.000000
    2        3.607648   1.000000
    3        4.205361   1.000000
    4        4.436458   1.000000
    5        4.602453   1.000000
    6        4.851901   1.000000
    7        4.866413   1.000000
    8        5.388431   1.000000
    9        5.481430   1.000000
   10        6.046935   1.000000
   11        6.294875   1.000000
   12        6.443033   1.000000
   13        6.819432   1.000000
   14        7.043422   1.000000
   15        7.307116   1.000000
   16        7.551188   1.000000
   17        7.675071   1.000000
   18        8.188690   1.000000
   19        8.430480   1.000031
   20        8.497453   1.000207
   21        9.352393  -0.030980
   22        9.446009  -0.011250
   23       13.533753  -0.000000
   24       15.065597   0.000000
   25       16.837441   0.000000
   26       17.987561   0.000000
   27       19.506256   0.000000
   28       20.007109   0.000000
   29       21.602150   0.000000
   30       23.421659   0.000000
 
  0.4000000E+00  0.4000000E+00  0.0000000E+00  0.3200000E-01
    1        3.276636   1.000000
    2        4.186957   1.000000
    3        4.420280   1.000000
    4        4.726277   1.000000
    5        4.839045   1.000000
    6        5.040955   1.000000
    7        5.172056   1.000000
    8        5.276609   1.000000
    9        5.312140   1.000000
   10        5.819901   1.000000
   11        5.986024   1.000000
   12        6.256428   1.000000
   13        6.825404   1.000000
   14        6.947764   1.000000
   15        7.059844   1.000000
   16        7.272342   1.000000
   17        7.329738   1.000000
   18        8.020996   1.000000
   19        8.281762   1.000000
   20        8.298915   1.000000
   21        8.986847   0.814674
   22       10.014015  -0.000000
   23       11.552249  -0.000000
   24       12.908115  -0.000000
   25       18.812335   0.000000
   26       18.955391   0.000000
   27       20.483849   0.000000
   28       21.209796   0.000000
   29       21.225400   0.000000
   30       21.710907   0.000000
 
  0.0000000E+00  0.4000000E+00  0.4000000E+00  0.3200000E-01
    1        3.172952   1.000000
    2        3.953463   1.000000
    3        4.344134   1.000000
    4        4.705339   1.000000
    5        4.894155   1.000000
    6        5.076154   1.000000
    7        5.079960   1.000000
    8        5.357942   1.000000
    9        5.387734   1.000000
   10        5.826886   1.000000
   11        6.072644   1.000000
   12        6.289550   1.000000
   13        6.857192   1.000000
   14        6.896726   1.000000
   15        7.061835   1.000000
   16        7.207106   1.000000
   17        7.227856   1.000000
   18        7.957916   1.000000
   19        8.518880   1.000359
   20        8.565847   1.001099
   21        9.048948   0.581026
   22        9.833711  -0.000000
   23       12.122888  -0.000000
   24       12.960842  -0.000000
   25       18.552711   0.000000
   26       18.673987   0.000000
   27       20.387732   0.000000
   28       20.504745   0.000000
   29       21.093036   0.000000
   30       22.173478   0.000000
 
  0.4000000E+00  0.0000000E+00  0.4000000E+00  0.3200000E-01
    1        3.244520   1.000000
    2        4.317265   1.000000
    3        4.416751   1.000000
    4        4.596338   1.000000
    5        4.710465   1.000000
    6        4.931234   1.000000
    7        5.001548   1.000000
    8        5.192290   1.000000
    9        5.565087   1.000000
   10        6.005965   1.000000
   11        6.118919   1.000000
   12        6.375313   1.000000
   13        6.762651   1.000000
   14        6.942372   1.000000
   15        7.115542   1.000000
   16        7.234555   1.000000
   17        7.608415   1.000000
   18        7.810255   1.000000
   19        8.135371   1.000000
   20        8.165631   1.000000
   21        9.208140   0.040223
   22       10.411104  -0.000000
   23       11.088603  -0.000000
   24       12.784853  -0.000000
   25       18.724685   0.000000
   26       18.929022   0.000000
   27       20.708837   0.000000
   28       21.022310   0.000000
   29       21.408997   0.000000
   30       21.535904   0.000000
 
  0.2000000E+00  0.2000000E+00  0.2000000E+00  0.6400000E-01
    1        1.492566   1.000000
    2        3.396934   1.000000
    3        3.983715   1.000000
    4        4.095297   1.000000
    5        4.181245   1.000000
    6        4.560190   1.000000
    7        4.686961   1.000000
    8        5.709070   1.000000
    9        6.506274   1.000000
   10        6.582270   1.000000
   11        6.601563   1.000000
   12        6.855092   1.000000
   13        7.011802   1.000000
   14        7.183790   1.000000
   15        7.305168   1.000000
   16        7.491639   1.000000
   17        8.113632   1.000000
   18        8.248490   1.000000
   19        8.446706   1.000051
   20        8.916932   0.978013
   21        9.688671  -0.000052
   22       11.787898  -0.000000
   23       12.485867  -0.000000
   24       12.693573  -0.000000
   25       17.687159   0.000000
   26       17.913981   0.000000
   27       18.609598   0.000000
   28       21.128595   0.000000
   29       21.545360   0.000000
   30       21.751141   0.000000
 
  0.4000000E+00  0.2000000E+00  0.2000000E+00  0.6400000E-01
    1        2.380688   1.000000
    2        3.736094   1.000000
    3        4.187379   1.000000
    4        4.493783   1.000000
    5        4.517347   1.000000
    6        4.791734   1.000000
    7        5.284410   1.000000
    8        5.508317   1.000000
    9        5.721261   1.000000
   10        5.963257   1.000000
   11        6.394521   1.000000
   12        6.425540   1.000000
   13        6.663446   1.000000
   14        6.964630   1.000000
   15        7.049441   1.000000
   16        7.460902   1.000000
   17        7.887209   1.000000
   18        8.109072   1.000000
   19        8.508632   1.000277
   20        8.876091   1.020530
   21        9.412961  -0.017521
   22        9.694828  -0.000044
   23       13.748871  -0.000000
   24       13.770692  -0.000000
   25       15.492995   0.000000
   26       16.296287   0.000000
   27       20.112362   0.000000
   28       21.547208   0.000000
   29       22.131329   0.000000
   30       22.385658   0.000000
 
  0.2000000E+00  0.4000000E+00  0.2000000E+00  0.6400000E-01
    1        2.566896   1.000000
    2        3.613422   1.000000
    3        3.983449   1.000000
    4        4.443011   1.000000
    5        4.657877   1.000000
    6        4.827222   1.000000
    7        5.485988   1.000000
    8        5.588452   1.000000
    9        5.729450   1.000000
   10        6.054048   1.000000
   11        6.438726   1.000000
   12        6.479173   1.000000
   13        6.575948   1.000000
   14        6.972877   1.000000
   15        7.070088   1.000000
   16        7.221124   1.000000
   17        8.045959   1.000000
   18        8.119272   1.000000
   19        8.246334   1.000000
   20        8.797352   1.033306
   21        9.228017   0.010181
   22        9.558619  -0.001430
   23       13.769017  -0.000000
   24       14.010856  -0.000000
   25       15.597772   0.000000
   26       16.105105   0.000000
   27       20.199502   0.000000
   28       21.607511   0.000000
   29       22.258696   0.000000
   30       22.413734   0.000000
 
  0.2000000E+00  0.2000000E+00  0.4000000E+00  0.6400000E-01
    1        2.572905   1.000000
    2        3.615443   1.000000
    3        4.131498   1.000000
    4        4.472781   1.000000
    5        4.628585   1.000000
    6        5.000337   1.000000
    7        5.155494   1.000000
    8        5.506342   1.000000
    9        5.667063   1.000000
   10        5.917209   1.000000
   11        6.373322   1.000000
   12        6.427737   1.000000
   13        6.676285   1.000000
   14        7.003136   1.000000
   15        7.094522   1.000000
   16        7.316651   1.000000
   17        8.019648   1.000000
   18        8.095466   1.000000
   19        8.416808   1.000021
   20        8.715751   1.015925
   21        9.338165  -0.033435
   22        9.636560  -0.000220
   23       13.767650  -0.000000
   24       13.952516  -0.000000
   25       15.574834   0.000000
   26       16.195112   0.000000
   27       20.113342   0.000000
   28       21.387775   0.000000
   29       22.218249   0.000000
   30       22.483198   0.000000
 
  0.4000000E+00  0.4000000E+00  0.2000000E+00  0.6400000E-01
    1        3.017333   1.000000
    2        3.538045   1.000000
    3        3.837515   1.000000
    4        4.236361   1.000000
    5        5.142622   1.000000
    6        5.419292   1.000000
    7        5.683467   1.000000
    8        5.851208   1.000000
    9        6.021853   1.000000
   10        6.124548   1.000000
   11        6.360929   1.000000
   12        6.517789   1.000000
   13        6.535135   1.000000
   14        6.672451   1.000000
   15        6.869380   1.000000
   16        6.964127   1.000000
   17        7.773574   1.000000
   18        8.239878   1.000000
   19        8.626391   1.003843
   20        8.945201   0.926621
   21        9.103393   0.353592
   22       10.157468  -0.000000
   23       11.443139  -0.000000
   24       12.672387  -0.000000
   25       15.771034   0.000000
   26       17.478236   0.000000
   27       17.880950   0.000000
   28       19.894740   0.000000
   29       22.835511   0.000000
   30       24.637423   0.000000
 
  0.2000000E+00  0.4000000E+00  0.4000000E+00  0.6400000E-01
    1        3.007690   1.000000
    2        3.563431   1.000000
    3        3.622166   1.000000
    4        4.233043   1.000000
    5        5.142743   1.000000
    6        5.438190   1.000000
    7        5.671002   1.000000
    8        5.912717   1.000000
    9        6.012363   1.000000
   10        6.105204   1.000000
   11        6.363625   1.000000
   12        6.533926   1.000000
   13        6.542876   1.000000
   14        6.669830   1.000000
   15        6.844247   1.000000
   16        6.968692   1.000000
   17        7.826340   1.000000
   18        8.267196   1.000000
   19        8.756853   1.025069
   20        8.928814   0.958790
   21        9.082952   0.437748
   22       10.034014  -0.000000
   23       11.932316  -0.000000
   24       12.854769  -0.000000
   25       15.511245   0.000000
   26       17.034933   0.000000
   27       17.937363   0.000000
   28       19.861991   0.000000
   29       22.917344   0.000000
   30       24.479575   0.000000
 
  0.4000000E+00  0.2000000E+00  0.4000000E+00  0.6400000E-01
    1        3.012576   1.000000
    2        3.572345   1.000000
    3        3.868818   1.000000
    4        4.065420   1.000000
    5        5.105366   1.000000
    6        5.326838   1.000000
    7        5.644544   1.000000
    8        6.046319   1.000000
    9        6.129961   1.000000
   10        6.206388   1.000000
   11        6.479531   1.000000
   12        6.486030   1.000000
   13        6.525024   1.000000
   14        6.739838   1.000000
   15        6.826007   1.000000
   16        6.857611   1.000000
   17        7.910429   1.000000
   18        8.006569   1.000000
   19        8.442721   1.000045
   20        9.090881   0.404692
   21        9.239440  -0.003066
   22       10.523640  -0.000000
   23       10.984373  -0.000000
   24       12.601587  -0.000000
   25       15.750591   0.000000
   26       17.527952   0.000000
   27       17.863571   0.000000
   28       19.955165   0.000000
   29       22.709730   0.000000
   30       24.704859   0.000000
 
  0.4000000E+00  0.4000000E+00  0.4000000E+00  0.6400000E-01
    1        2.888069   1.000000
    2        3.019948   1.000000
    3        3.242917   1.000000
    4        3.631120   1.000000
    5        5.562150   1.000000
    6        5.676368   1.000000
    7        5.854020   1.000000
    8        6.035861   1.000000
    9        6.250663   1.000000
   10        6.513846   1.000000
   11        6.583712   1.000000
   12        6.766295   1.000000
   13        7.247105   1.000000
   14        7.288850   1.000000
   15        7.488360   1.000000
   16        7.833694   1.000000
   17        8.095857   1.000000
   18        8.554184   1.000842
   19        8.633133   1.004358
   20        9.041293   0.612701
   21        9.591176  -0.000683
   22       10.427874  -0.000000
   23       10.848061  -0.000000
   24       11.080230  -0.000000
   25       14.919672   0.000000
   26       15.367537   0.000000
   27       16.185003   0.000000
   28       17.677689   0.000000
   29       25.374996   0.000000
   30       25.479395   0.000000
