 vasp.6.2.0 18Jan21 (build Mar 17 2021 09:06:54) complex                        
  
 POSCAR found type information on POSCAR PdIrPtCu
 POSCAR found :  4 types and       4 ions
 LDA part: xc-table for Pade appr. of Perdew
 found WAVECAR, reading the header
 POSCAR, INCAR and KPOINTS ok, starting setup
 FFT: planning ...
 reading WAVECAR
 the WAVECAR file was read successfully
 charge-density read from file: unknown                                 
 entering main loop
       N       E                     dE             d eps       ncg     rms          rms(c)
DAV:   1    -0.204062556406E+02   -0.20406E+02   -0.59219E-03  1932   0.634E-01    0.128E-01
DAV:   2    -0.203792180144E+02    0.27038E-01   -0.92286E-03  1948   0.869E-01    0.191E-01
DAV:   3    -0.203786106107E+02    0.60740E-03   -0.11491E-03  2144   0.542E-01    0.452E-02
DAV:   4    -0.203786068163E+02    0.37945E-05   -0.56164E-05  2094   0.850E-02    0.373E-02
DAV:   5    -0.203786030119E+02    0.38043E-05   -0.72798E-06  1660   0.561E-02    0.289E-02
DAV:   6    -0.203786029112E+02    0.10070E-06   -0.10245E-06   978   0.102E-02
   1 F= -.20378603E+02 E0= -.20377135E+02  d E =-.440391E-02
 writing wavefunctions
