unknown system                          
   1.00000000000000     
     3.635000    0.000000    0.000000
     0.000000    3.635000    0.000000
     0.000000    0.000000    3.635000
   Cu
     4
Direct
  0.000000  0.000000  0.000000
  0.500000  0.500000  0.000000
  0.500000  0.000000  0.500000
  0.000000  0.500000  0.500000
 
   28   28   28
  842.69      780.17      617.42      413.77      230.55      104.89      41.834      21.151      13.905      10.421    
  9.0009      7.9144      7.3185      7.5762      7.8863      7.5762      7.3185      7.9144      9.0009      10.421    
  13.905      21.151      41.834      104.89      230.55      413.77      617.42      780.17      780.17      721.93    
  570.39      381.03      211.29      95.857      38.933      20.620      13.716      10.371      8.9621      7.8557    
  7.1931      7.3314      7.5762      7.3314      7.1931      7.8557      8.9621      10.371      13.716      20.620    
  38.933      95.857      211.29      381.03      570.39      721.93      617.42      570.39      448.24      296.44    
  162.15      73.439      32.103      19.258      13.197      10.260      8.9576      7.9239      7.2376      7.1931    
  7.3185      7.1931      7.2376      7.9239      8.9576      10.260      13.197      19.258      32.103      73.439    
  162.15      296.44      448.24      570.39      413.77      381.03      296.44      192.75      103.76      48.432    
  25.252      17.327      12.478      10.164      9.1376      8.3999      7.9239      7.8557      7.9144      7.8557    
  7.9239      8.3999      9.1376      10.164      12.478      17.327      25.252      48.432      103.76      192.75    
  296.44      381.03      230.55      211.29      162.15      103.76      56.622      30.463      20.612      15.189    
  11.754      10.158      9.4990      9.1376      8.9576      8.9621      9.0009      8.9621      8.9576      9.1376    
  9.4990      10.158      11.754      15.189      20.612      30.463      56.622      103.76      162.15      211.29    
  104.89      95.857      73.439      48.432      30.463      21.787      16.909      13.303      11.255      10.395    
  10.158      10.164      10.260      10.371      10.421      10.371      10.260      10.164      10.158      10.395    
  11.255      13.303      16.909      21.787      30.463      48.432      73.439      95.857      41.834      38.933    
  32.103      25.252      20.612      16.909      13.916      12.039      11.246      11.255      11.754      12.478    
  13.197      13.716      13.905      13.716      13.197      12.478      11.754      11.255      11.246      12.039    
  13.916      16.909      20.612      25.252      32.103      38.933      21.151      20.620      19.258      17.327    
  15.189      13.303      12.039      11.598      12.039      13.303      15.189      17.327      19.258      20.620    
  21.151      20.620      19.258      17.327      15.189      13.303      12.039      11.598      12.039      13.303    
  15.189      17.327      19.258      20.620      13.905      13.716      13.197      12.478      11.754      11.255    
  11.246      12.039      13.916      16.909      20.612      25.252      32.103      38.933      41.834      38.933    
  32.103      25.252      20.612      16.909      13.916      12.039      11.246      11.255      11.754      12.478    
  13.197      13.716      10.421      10.371      10.260      10.164      10.158      10.395      11.255      13.303    
  16.909      21.787      30.463      48.432      73.439      95.857      104.89      95.857      73.439      48.432    
  30.463      21.787      16.909      13.303      11.255      10.395      10.158      10.164      10.260      10.371    
  9.0009      8.9621      8.9576      9.1376      9.4990      10.158      11.754      15.189      20.612      30.463    
  56.622      103.76      162.15      211.29      230.55      211.29      162.15      103.76      56.622      30.463    
  20.612      15.189      11.754      10.158      9.4990      9.1376      8.9576      8.9621      7.9144      7.8557    
  7.9239      8.3999      9.1376      10.164      12.478      17.327      25.252      48.432      103.76      192.75    
  296.44      381.03      413.77      381.03      296.44      192.75      103.76      48.432      25.252      17.327    
  12.478      10.164      9.1376      8.3999      7.9239      7.8557      7.3185      7.1931      7.2376      7.9239    
  8.9576      10.260      13.197      19.258      32.103      73.439      162.15      296.44      448.24      570.39    
  617.42      570.39      448.24      296.44      162.15      73.439      32.103      19.258      13.197      10.260    
  8.9576      7.9239      7.2376      7.1931      7.5762      7.3314      7.1931      7.8557      8.9621      10.371    
  13.716      20.620      38.933      95.857      211.29      381.03      570.39      721.93      780.17      721.93    
  570.39      381.03      211.29      95.857      38.933      20.620      13.716      10.371      8.9621      7.8557    
  7.1931      7.3314      7.8863      7.5762      7.3185      7.9144      9.0009      10.421      13.905      21.151    
  41.834      104.89      230.55      413.77      617.42      780.17      842.69      780.17      617.42      413.77    
  230.55      104.89      41.834      21.151      13.905      10.421      9.0009      7.9144      7.3185      7.5762    
  7.5762      7.3314      7.1931      7.8557      8.9621      10.371      13.716      20.620      38.933      95.857    
  211.29      381.03      570.39      721.93      780.17      721.93      570.39      381.03      211.29      95.857    
  38.933      20.620      13.716      10.371      8.9621      7.8557      7.1931      7.3314      7.3185      7.1931    
  7.2376      7.9239      8.9576      10.260      13.197      19.258      32.103      73.439      162.15      296.44    
  448.24      570.39      617.42      570.39      448.24      296.44      162.15      73.439      32.103      19.258    
  13.197      10.260      8.9576      7.9239      7.2376      7.1931      7.9144      7.8557      7.9239      8.3999    
  9.1376      10.164      12.478      17.327      25.252      48.432      103.76      192.75      296.44      381.03    
  413.77      381.03      296.44      192.75      103.76      48.432      25.252      17.327      12.478      10.164    
  9.1376      8.3999      7.9239      7.8557      9.0009      8.9621      8.9576      9.1376      9.4990      10.158    
  11.754      15.189      20.612      30.463      56.622      103.76      162.15      211.29      230.55      211.29    
  162.15      103.76      56.622      30.463      20.612      15.189      11.754      10.158      9.4990      9.1376    
  8.9576      8.9621      10.421      10.371      10.260      10.164      10.158      10.395      11.255      13.303    
  16.909      21.787      30.463      48.432      73.439      95.857      104.89      95.857      73.439      48.432    
  30.463      21.787      16.909      13.303      11.255      10.395      10.158      10.164      10.260      10.371    
  13.905      13.716      13.197      12.478      11.754      11.255      11.246      12.039      13.916      16.909    
  20.612      25.252      32.103      38.933      41.834      38.933      32.103      25.252      20.612      16.909    
  13.916      12.039      11.246      11.255      11.754      12.478      13.197      13.716      21.151      20.620    
  19.258      17.327      15.189      13.303      12.039      11.598      12.039      13.303      15.189      17.327    
  19.258      20.620      21.151      20.620      19.258      17.327      15.189      13.303      12.039      11.598    
  12.039      13.303      15.189      17.327      19.258      20.620      41.834      38.933      32.103      25.252    
  20.612      16.909      13.916      12.039      11.246      11.255      11.754      12.478      13.197      13.716    
  13.905      13.716      13.197      12.478      11.754      11.255      11.246      12.039      13.916      16.909    
  20.612      25.252      32.103      38.933      104.89      95.857      73.439      48.432      30.463      21.787    
  16.909      13.303      11.255      10.395      10.158      10.164      10.260      10.371      10.421      10.371    
  10.260      10.164      10.158      10.395      11.255      13.303      16.909      21.787      30.463      48.432    
  73.439      95.857      230.55      211.29      162.15      103.76      56.622      30.463      20.612      15.189    
  11.754      10.158      9.4990      9.1376      8.9576      8.9621      9.0009      8.9621      8.9576      9.1376    
  9.4990      10.158      11.754      15.189      20.612      30.463      56.622      103.76      162.15      211.29    
  413.77      381.03      296.44      192.75      103.76      48.432      25.252      17.327      12.478      10.164    
  9.1376      8.3999      7.9239      7.8557      7.9144      7.8557      7.9239      8.3999      9.1376      10.164    
  12.478      17.327      25.252      48.432      103.76      192.75      296.44      381.03      617.42      570.39    
  448.24      296.44      162.15      73.439      32.103      19.258      13.197      10.260      8.9576      7.9239    
  7.2376      7.1931      7.3185      7.1931      7.2376      7.9239      8.9576      10.260      13.197      19.258    
  32.103      73.439      162.15      296.44      448.24      570.39      780.17      721.93      570.39      381.03    
  211.29      95.857      38.933      20.620      13.716      10.371      8.9621      7.8557      7.1931      7.3314    
  7.5762      7.3314      7.1931      7.8557      8.9621      10.371      13.716      20.620      38.933      95.857    
  211.29      381.03      570.39      721.93      780.17      721.93      570.39      381.03      211.29      95.857    
  38.933      20.620      13.716      10.371      8.9621      7.8557      7.1931      7.3314      7.5762      7.3314    
  7.1931      7.8557      8.9621      10.371      13.716      20.620      38.933      95.857      211.29      381.03    
  570.39      721.93      721.93      667.70      526.64      350.65      193.53      87.637      36.357      20.131    
  13.536      10.330      8.9414      7.8261      7.1103      7.1447      7.3314      7.1447      7.1103      7.8261    
  8.9414      10.330      13.536      20.131      36.357      87.637      193.53      350.65      526.64      667.70    
  570.39      526.64      413.08      272.26      148.31      67.308      30.321      18.826      13.036      10.238    
  8.9705      7.9449      7.2286      7.1103      7.1931      7.1103      7.2286      7.9449      8.9705      10.238    
  13.036      18.826      30.321      67.308      148.31      272.26      413.08      526.64      381.03      350.65    
  272.26      176.49      94.863      44.818      24.296      16.948      12.344      10.154      9.1671      8.4409    
  7.9449      7.8261      7.8557      7.8261      7.9449      8.4409      9.1671      10.154      12.344      16.948    
  24.296      44.818      94.863      176.49      272.26      350.65      211.29      193.53      148.31      94.863    
  52.161      28.882      20.078      14.888      11.647      10.147      9.5217      9.1671      8.9705      8.9414    
  8.9621      8.9414      8.9705      9.1671      9.5217      10.147      11.647      14.888      20.078      28.882    
  52.161      94.863      148.31      193.53      95.857      87.637      67.308      44.818      28.882      21.183    
  16.506      13.085      11.164      10.365      10.147      10.154      10.238      10.330      10.371      10.330    
  10.238      10.154      10.147      10.365      11.164      13.085      16.506      21.183      28.882      44.818    
  67.308      87.637      38.933      36.357      30.321      24.296      20.078      16.506      13.653      11.884    
  11.145      11.164      11.647      12.344      13.036      13.536      13.716      13.536      13.036      12.344    
  11.647      11.164      11.145      11.884      13.653      16.506      20.078      24.296      30.321      36.357    
  20.620      20.131      18.826      16.948      14.888      13.085      11.884      11.466      11.884      13.085    
  14.888      16.948      18.826      20.131      20.620      20.131      18.826      16.948      14.888      13.085    
  11.884      11.466      11.884      13.085      14.888      16.948      18.826      20.131      13.716      13.536    
  13.036      12.344      11.647      11.164      11.145      11.884      13.653      16.506      20.078      24.296    
  30.321      36.357      38.933      36.357      30.321      24.296      20.078      16.506      13.653      11.884    
  11.145      11.164      11.647      12.344      13.036      13.536      10.371      10.330      10.238      10.154    
  10.147      10.365      11.164      13.085      16.506      21.183      28.882      44.818      67.308      87.637    
  95.857      87.637      67.308      44.818      28.882      21.183      16.506      13.085      11.164      10.365    
  10.147      10.154      10.238      10.330      8.9621      8.9414      8.9705      9.1671      9.5217      10.147    
  11.647      14.888      20.078      28.882      52.161      94.863      148.31      193.53      211.29      193.53    
  148.31      94.863      52.161      28.882      20.078      14.888      11.647      10.147      9.5217      9.1671    
  8.9705      8.9414      7.8557      7.8261      7.9449      8.4409      9.1671      10.154      12.344      16.948    
  24.296      44.818      94.863      176.49      272.26      350.65      381.03      350.65      272.26      176.49    
  94.863      44.818      24.296      16.948      12.344      10.154      9.1671      8.4409      7.9449      7.8261    
  7.1931      7.1103      7.2286      7.9449      8.9705      10.238      13.036      18.826      30.321      67.308    
  148.31      272.26      413.08      526.64      570.39      526.64      413.08      272.26      148.31      67.308    
  30.321      18.826      13.036      10.238      8.9705      7.9449      7.2286      7.1103      7.3314      7.1447    
  7.1103      7.8261      8.9414      10.330      13.536      20.131      36.357      87.637      193.53      350.65    
  526.64      667.70      721.93      667.70      526.64      350.65      193.53      87.637      36.357      20.131    
  13.536      10.330      8.9414      7.8261      7.1103      7.1447      7.5762      7.3314      7.1931      7.8557    
  8.9621      10.371      13.716      20.620      38.933      95.857      211.29      381.03      570.39      721.93    
  780.17      721.93      570.39      381.03      211.29      95.857      38.933      20.620      13.716      10.371    
  8.9621      7.8557      7.1931      7.3314      7.3314      7.1447      7.1103      7.8261      8.9414      10.330    
  13.536      20.131      36.357      87.637      193.53      350.65      526.64      667.70      721.93      667.70    
  526.64      350.65      193.53      87.637      36.357      20.131      13.536      10.330      8.9414      7.8261    
  7.1103      7.1447      7.1931      7.1103      7.2286      7.9449      8.9705      10.238      13.036      18.826    
  30.321      67.308      148.31      272.26      413.08      526.64      570.39      526.64      413.08      272.26    
  148.31      67.308      30.321      18.826      13.036      10.238      8.9705      7.9449      7.2286      7.1103    
  7.8557      7.8261      7.9449      8.4409      9.1671      10.154      12.344      16.948      24.296      44.818    
  94.863      176.49      272.26      350.65      381.03      350.65      272.26      176.49      94.863      44.818    
  24.296      16.948      12.344      10.154      9.1671      8.4409      7.9449      7.8261      8.9621      8.9414    
  8.9705      9.1671      9.5217      10.147      11.647      14.888      20.078      28.882      52.161      94.863    
  148.31      193.53      211.29      193.53      148.31      94.863      52.161      28.882      20.078      14.888    
  11.647      10.147      9.5217      9.1671      8.9705      8.9414      10.371      10.330      10.238      10.154    
  10.147      10.365      11.164      13.085      16.506      21.183      28.882      44.818      67.308      87.637    
  95.857      87.637      67.308      44.818      28.882      21.183      16.506      13.085      11.164      10.365    
  10.147      10.154      10.238      10.330      13.716      13.536      13.036      12.344      11.647      11.164    
  11.145      11.884      13.653      16.506      20.078      24.296      30.321      36.357      38.933      36.357    
  30.321      24.296      20.078      16.506      13.653      11.884      11.145      11.164      11.647      12.344    
  13.036      13.536      20.620      20.131      18.826      16.948      14.888      13.085      11.884      11.466    
  11.884      13.085      14.888      16.948      18.826      20.131      20.620      20.131      18.826      16.948    
  14.888      13.085      11.884      11.466      11.884      13.085      14.888      16.948      18.826      20.131    
  38.933      36.357      30.321      24.296      20.078      16.506      13.653      11.884      11.145      11.164    
  11.647      12.344      13.036      13.536      13.716      13.536      13.036      12.344      11.647      11.164    
  11.145      11.884      13.653      16.506      20.078      24.296      30.321      36.357      95.857      87.637    
  67.308      44.818      28.882      21.183      16.506      13.085      11.164      10.365      10.147      10.154    
  10.238      10.330      10.371      10.330      10.238      10.154      10.147      10.365      11.164      13.085    
  16.506      21.183      28.882      44.818      67.308      87.637      211.29      193.53      148.31      94.863    
  52.161      28.882      20.078      14.888      11.647      10.147      9.5217      9.1671      8.9705      8.9414    
  8.9621      8.9414      8.9705      9.1671      9.5217      10.147      11.647      14.888      20.078      28.882    
  52.161      94.863      148.31      193.53      381.03      350.65      272.26      176.49      94.863      44.818    
  24.296      16.948      12.344      10.154      9.1671      8.4409      7.9449      7.8261      7.8557      7.8261    
  7.9449      8.4409      9.1671      10.154      12.344      16.948      24.296      44.818      94.863      176.49    
  272.26      350.65      570.39      526.64      413.08      272.26      148.31      67.308      30.321      18.826    
  13.036      10.238      8.9705      7.9449      7.2286      7.1103      7.1931      7.1103      7.2286      7.9449    
  8.9705      10.238      13.036      18.826      30.321      67.308      148.31      272.26      413.08      526.64    
  721.93      667.70      526.64      350.65      193.53      87.637      36.357      20.131      13.536      10.330    
  8.9414      7.8261      7.1103      7.1447      7.3314      7.1447      7.1103      7.8261      8.9414      10.330    
  13.536      20.131      36.357      87.637      193.53      350.65      526.64      667.70      617.42      570.39    
  448.24      296.44      162.15      73.439      32.103      19.258      13.197      10.260      8.9576      7.9239    
  7.2376      7.1931      7.3185      7.1931      7.2376      7.9239      8.9576      10.260      13.197      19.258    
  32.103      73.439      162.15      296.44      448.24      570.39      570.39      526.64      413.08      272.26    
  148.31      67.308      30.321      18.826      13.036      10.238      8.9705      7.9449      7.2286      7.1103    
  7.1931      7.1103      7.2286      7.9449      8.9705      10.238      13.036      18.826      30.321      67.308    
  148.31      272.26      413.08      526.64      448.24      413.08      322.09      210.15      113.36      52.325    
  26.189      17.621      12.593      10.184      9.0559      8.1355      7.4466      7.2286      7.2376      7.2286    
  7.4466      8.1355      9.0559      10.184      12.593      17.621      26.189      52.325      113.36      210.15    
  322.09      413.08      296.44      272.26      210.15      135.16      72.746      36.188      22.037      15.911    
  11.979      10.126      9.2659      8.6180      8.1355      7.9449      7.9239      7.9449      8.1355      8.6180    
  9.2659      10.126      11.979      15.911      22.037      36.188      72.746      135.16      210.15      272.26    
  162.15      148.31      113.36      72.746      41.393      25.197      18.606      14.077      11.361      10.116    
  9.5843      9.2659      9.0559      8.9705      8.9576      8.9705      9.0559      9.2659      9.5843      10.116    
  11.361      14.077      18.606      25.197      41.393      72.746      113.36      148.31      73.439      67.308    
  52.325      36.188      25.197      19.573      15.417      12.508      10.928      10.285      10.116      10.126    
  10.184      10.238      10.260      10.238      10.184      10.126      10.116      10.285      10.928      12.508    
  15.417      19.573      25.197      36.188      52.325      67.308      32.103      30.321      26.189      22.037    
  18.606      15.417      12.960      11.481      10.887      10.928      11.361      11.979      12.593      13.036    
  13.197      13.036      12.593      11.979      11.361      10.928      10.887      11.481      12.960      15.417    
  18.606      22.037      26.189      30.321      19.258      18.826      17.621      15.911      14.077      12.508    
  11.481      11.128      11.481      12.508      14.077      15.911      17.621      18.826      19.258      18.826    
  17.621      15.911      14.077      12.508      11.481      11.128      11.481      12.508      14.077      15.911    
  17.621      18.826      13.197      13.036      12.593      11.979      11.361      10.928      10.887      11.481    
  12.960      15.417      18.606      22.037      26.189      30.321      32.103      30.321      26.189      22.037    
  18.606      15.417      12.960      11.481      10.887      10.928      11.361      11.979      12.593      13.036    
  10.260      10.238      10.184      10.126      10.116      10.285      10.928      12.508      15.417      19.573    
  25.197      36.188      52.325      67.308      73.439      67.308      52.325      36.188      25.197      19.573    
  15.417      12.508      10.928      10.285      10.116      10.126      10.184      10.238      8.9576      8.9705    
  9.0559      9.2659      9.5843      10.116      11.361      14.077      18.606      25.197      41.393      72.746    
  113.36      148.31      162.15      148.31      113.36      72.746      41.393      25.197      18.606      14.077    
  11.361      10.116      9.5843      9.2659      9.0559      8.9705      7.9239      7.9449      8.1355      8.6180    
  9.2659      10.126      11.979      15.911      22.037      36.188      72.746      135.16      210.15      272.26    
  296.44      272.26      210.15      135.16      72.746      36.188      22.037      15.911      11.979      10.126    
  9.2659      8.6180      8.1355      7.9449      7.2376      7.2286      7.4466      8.1355      9.0559      10.184    
  12.593      17.621      26.189      52.325      113.36      210.15      322.09      413.08      448.24      413.08    
  322.09      210.15      113.36      52.325      26.189      17.621      12.593      10.184      9.0559      8.1355    
  7.4466      7.2286      7.1931      7.1103      7.2286      7.9449      8.9705      10.238      13.036      18.826    
  30.321      67.308      148.31      272.26      413.08      526.64      570.39      526.64      413.08      272.26    
  148.31      67.308      30.321      18.826      13.036      10.238      8.9705      7.9449      7.2286      7.1103    
  7.3185      7.1931      7.2376      7.9239      8.9576      10.260      13.197      19.258      32.103      73.439    
  162.15      296.44      448.24      570.39      617.42      570.39      448.24      296.44      162.15      73.439    
  32.103      19.258      13.197      10.260      8.9576      7.9239      7.2376      7.1931      7.1931      7.1103    
  7.2286      7.9449      8.9705      10.238      13.036      18.826      30.321      67.308      148.31      272.26    
  413.08      526.64      570.39      526.64      413.08      272.26      148.31      67.308      30.321      18.826    
  13.036      10.238      8.9705      7.9449      7.2286      7.1103      7.2376      7.2286      7.4466      8.1355    
  9.0559      10.184      12.593      17.621      26.189      52.325      113.36      210.15      322.09      413.08    
  448.24      413.08      322.09      210.15      113.36      52.325      26.189      17.621      12.593      10.184    
  9.0559      8.1355      7.4466      7.2286      7.9239      7.9449      8.1355      8.6180      9.2659      10.126    
  11.979      15.911      22.037      36.188      72.746      135.16      210.15      272.26      296.44      272.26    
  210.15      135.16      72.746      36.188      22.037      15.911      11.979      10.126      9.2659      8.6180    
  8.1355      7.9449      8.9576      8.9705      9.0559      9.2659      9.5843      10.116      11.361      14.077    
  18.606      25.197      41.393      72.746      113.36      148.31      162.15      148.31      113.36      72.746    
  41.393      25.197      18.606      14.077      11.361      10.116      9.5843      9.2659      9.0559      8.9705    
  10.260      10.238      10.184      10.126      10.116      10.285      10.928      12.508      15.417      19.573    
  25.197      36.188      52.325      67.308      73.439      67.308      52.325      36.188      25.197      19.573    
  15.417      12.508      10.928      10.285      10.116      10.126      10.184      10.238      13.197      13.036    
  12.593      11.979      11.361      10.928      10.887      11.481      12.960      15.417      18.606      22.037    
  26.189      30.321      32.103      30.321      26.189      22.037      18.606      15.417      12.960      11.481    
  10.887      10.928      11.361      11.979      12.593      13.036      19.258      18.826      17.621      15.911    
  14.077      12.508      11.481      11.128      11.481      12.508      14.077      15.911      17.621      18.826    
  19.258      18.826      17.621      15.911      14.077      12.508      11.481      11.128      11.481      12.508    
  14.077      15.911      17.621      18.826      32.103      30.321      26.189      22.037      18.606      15.417    
  12.960      11.481      10.887      10.928      11.361      11.979      12.593      13.036      13.197      13.036    
  12.593      11.979      11.361      10.928      10.887      11.481      12.960      15.417      18.606      22.037    
  26.189      30.321      73.439      67.308      52.325      36.188      25.197      19.573      15.417      12.508    
  10.928      10.285      10.116      10.126      10.184      10.238      10.260      10.238      10.184      10.126    
  10.116      10.285      10.928      12.508      15.417      19.573      25.197      36.188      52.325      67.308    
  162.15      148.31      113.36      72.746      41.393      25.197      18.606      14.077      11.361      10.116    
  9.5843      9.2659      9.0559      8.9705      8.9576      8.9705      9.0559      9.2659      9.5843      10.116    
  11.361      14.077      18.606      25.197      41.393      72.746      113.36      148.31      296.44      272.26    
  210.15      135.16      72.746      36.188      22.037      15.911      11.979      10.126      9.2659      8.6180    
  8.1355      7.9449      7.9239      7.9449      8.1355      8.6180      9.2659      10.126      11.979      15.911    
  22.037      36.188      72.746      135.16      210.15      272.26      448.24      413.08      322.09      210.15    
  113.36      52.325      26.189      17.621      12.593      10.184      9.0559      8.1355      7.4466      7.2286    
  7.2376      7.2286      7.4466      8.1355      9.0559      10.184      12.593      17.621      26.189      52.325    
  113.36      210.15      322.09      413.08      570.39      526.64      413.08      272.26      148.31      67.308    
  30.321      18.826      13.036      10.238      8.9705      7.9449      7.2286      7.1103      7.1931      7.1103    
  7.2286      7.9449      8.9705      10.238      13.036      18.826      30.321      67.308      148.31      272.26    
  413.08      526.64      413.77      381.03      296.44      192.75      103.76      48.432      25.252      17.327    
  12.478      10.164      9.1376      8.3999      7.9239      7.8557      7.9144      7.8557      7.9239      8.3999    
  9.1376      10.164      12.478      17.327      25.252      48.432      103.76      192.75      296.44      381.03    
  381.03      350.65      272.26      176.49      94.863      44.818      24.296      16.948      12.344      10.154    
  9.1671      8.4409      7.9449      7.8261      7.8557      7.8261      7.9449      8.4409      9.1671      10.154    
  12.344      16.948      24.296      44.818      94.863      176.49      272.26      350.65      296.44      272.26    
  210.15      135.16      72.746      36.188      22.037      15.911      11.979      10.126      9.2659      8.6180    
  8.1355      7.9449      7.9239      7.9449      8.1355      8.6180      9.2659      10.126      11.979      15.911    
  22.037      36.188      72.746      135.16      210.15      272.26      192.75      176.49      135.16      86.505    
  47.979      27.311      19.394      14.479      11.480      10.086      9.4385      8.9735      8.6180      8.4409    