unknown system                          
   1.00000000000000     
     3.635000    0.000000    0.000000
     0.000000    3.635000    0.000000
     0.000000    0.000000    3.635000
   Cu
     4
Direct
  0.000000  0.000000  0.000000
  0.500000  0.500000  0.000000
  0.500000  0.000000  0.500000
  0.000000  0.500000  0.500000
 
   28   28   28
 0.84268907810E+03 0.78017032523E+03 0.61741844882E+03 0.41376993713E+03 0.23054890570E+03
 0.10488851969E+03 0.41833899768E+02 0.21150941245E+02 0.13904992261E+02 0.10421469175E+02
 0.90009488917E+01 0.79143581585E+01 0.73185289603E+01 0.75761934740E+01 0.78863471116E+01
 0.75761934740E+01 0.73185289603E+01 0.79143581585E+01 0.90009488917E+01 0.10421469175E+02
 0.13904992261E+02 0.21150941245E+02 0.41833899768E+02 0.10488851969E+03 0.23054890570E+03
 0.41376993713E+03 0.61741844882E+03 0.78017032523E+03 0.78017032523E+03 0.72193480293E+03
 0.57039281477E+03 0.38102964057E+03 0.21128739306E+03 0.95856793281E+02 0.38932509651E+02
 0.20620212221E+02 0.13716417259E+02 0.10371240914E+02 0.89621142876E+01 0.78556811329E+01
 0.71930692882E+01 0.73314159923E+01 0.75761934740E+01 0.73314159923E+01 0.71930692882E+01
 0.78556811329E+01 0.89621142876E+01 0.10371240914E+02 0.13716417259E+02 0.20620212221E+02
 0.38932509651E+02 0.95856793281E+02 0.21128739306E+03 0.38102964057E+03 0.57039281477E+03
 0.72193480293E+03 0.61741844882E+03 0.57039281477E+03 0.44824352653E+03 0.29643650681E+03
 0.16215168188E+03 0.73439283832E+02 0.32103096194E+02 0.19258024950E+02 0.13196724885E+02
 0.10259650753E+02 0.89576252412E+01 0.79238867656E+01 0.72375716772E+01 0.71930692882E+01
 0.73185289603E+01 0.71930692882E+01 0.72375716772E+01 0.79238867656E+01 0.89576252412E+01
 0.10259650753E+02 0.13196724885E+02 0.19258024950E+02 0.32103096194E+02 0.73439283832E+02
 0.16215168188E+03 0.29643650681E+03 0.44824352653E+03 0.57039281477E+03 0.41376993713E+03
 0.38102964057E+03 0.29643650681E+03 0.19275254706E+03 0.10375575017E+03 0.48431728209E+02
 0.25252368372E+02 0.17326798250E+02 0.12477866004E+02 0.10163586018E+02 0.91375707012E+01
 0.83998878033E+01 0.79238867656E+01 0.78556811329E+01 0.79143581585E+01 0.78556811329E+01
 0.79238867656E+01 0.83998878033E+01 0.91375707012E+01 0.10163586018E+02 0.12477866004E+02
 0.17326798250E+02 0.25252368372E+02 0.48431728209E+02 0.10375575017E+03 0.19275254706E+03
 0.29643650681E+03 0.38102964057E+03 0.23054890570E+03 0.21128739306E+03 0.16215168188E+03
 0.10375575017E+03 0.56621981007E+02 0.30463394670E+02 0.20611588602E+02 0.15189059022E+02
 0.11754429139E+02 0.10157655970E+02 0.94989906475E+01 0.91375707012E+01 0.89576252412E+01
 0.89621142876E+01 0.90009488917E+01 0.89621142876E+01 0.89576252412E+01 0.91375707012E+01
 0.94989906475E+01 0.10157655970E+02 0.11754429139E+02 0.15189059022E+02 0.20611588602E+02
 0.30463394670E+02 0.56621981007E+02 0.10375575017E+03 0.16215168188E+03 0.21128739306E+03
 0.10488851969E+03 0.95856793281E+02 0.73439283832E+02 0.48431728209E+02 0.30463394670E+02
 0.21786631311E+02 0.16909236584E+02 0.13303487032E+02 0.11255411455E+02 0.10395363926E+02
 0.10157655970E+02 0.10163586018E+02 0.10259650753E+02 0.10371240914E+02 0.10421469175E+02
 0.10371240914E+02 0.10259650753E+02 0.10163586018E+02 0.10157655970E+02 0.10395363926E+02
 0.11255411455E+02 0.13303487032E+02 0.16909236584E+02 0.21786631311E+02 0.30463394670E+02
 0.48431728209E+02 0.73439283832E+02 0.95856793281E+02 0.41833899768E+02 0.38932509651E+02
 0.32103096194E+02 0.25252368372E+02 0.20611588602E+02 0.16909236584E+02 0.13915757850E+02
 0.12038724036E+02 0.11245778763E+02 0.11255411455E+02 0.11754429139E+02 0.12477866004E+02
 0.13196724885E+02 0.13716417259E+02 0.13904992261E+02 0.13716417259E+02 0.13196724885E+02
 0.12477866004E+02 0.11754429139E+02 0.11255411455E+02 0.11245778763E+02 0.12038724036E+02
 0.13915757850E+02 0.16909236584E+02 0.20611588602E+02 0.25252368372E+02 0.32103096194E+02
 0.38932509651E+02 0.21150941245E+02 0.20620212221E+02 0.19258024950E+02 0.17326798250E+02
 0.15189059022E+02 0.13303487032E+02 0.12038724036E+02 0.11597693709E+02 0.12038724036E+02
 0.13303487032E+02 0.15189059022E+02 0.17326798250E+02 0.19258024950E+02 0.20620212221E+02
 0.21150941245E+02 0.20620212221E+02 0.19258024950E+02 0.17326798250E+02 0.15189059022E+02
 0.13303487032E+02 0.12038724036E+02 0.11597693709E+02 0.12038724036E+02 0.13303487032E+02
 0.15189059022E+02 0.17326798250E+02 0.19258024950E+02 0.20620212221E+02 0.13904992261E+02
 0.13716417259E+02 0.13196724885E+02 0.12477866004E+02 0.11754429139E+02 0.11255411455E+02
 0.11245778763E+02 0.12038724036E+02 0.13915757850E+02 0.16909236584E+02 0.20611588602E+02
 0.25252368372E+02 0.32103096194E+02 0.38932509651E+02 0.41833899768E+02 0.38932509651E+02
 0.32103096194E+02 0.25252368372E+02 0.20611588602E+02 0.16909236584E+02 0.13915757850E+02
 0.12038724036E+02 0.11245778763E+02 0.11255411455E+02 0.11754429139E+02 0.12477866004E+02
 0.13196724885E+02 0.13716417259E+02 0.10421469175E+02 0.10371240914E+02 0.10259650753E+02
 0.10163586018E+02 0.10157655970E+02 0.10395363926E+02 0.11255411455E+02 0.13303487032E+02
 0.16909236584E+02 0.21786631311E+02 0.30463394670E+02 0.48431728209E+02 0.73439283832E+02
 0.95856793281E+02 0.10488851969E+03 0.95856793281E+02 0.73439283832E+02 0.48431728209E+02
 0.30463394670E+02 0.21786631311E+02 0.16909236584E+02 0.13303487032E+02 0.11255411455E+02
 0.10395363926E+02 0.10157655970E+02 0.10163586018E+02 0.10259650753E+02 0.10371240914E+02
 0.90009488917E+01 0.89621142876E+01 0.89576252412E+01 0.91375707012E+01 0.94989906475E+01
 0.10157655970E+02 0.11754429139E+02 0.15189059022E+02 0.20611588602E+02 0.30463394670E+02
 0.56621981007E+02 0.10375575017E+03 0.16215168188E+03 0.21128739306E+03 0.23054890570E+03
 0.21128739306E+03 0.16215168188E+03 0.10375575017E+03 0.56621981007E+02 0.30463394670E+02
 0.20611588602E+02 0.15189059022E+02 0.11754429139E+02 0.10157655970E+02 0.94989906475E+01
 0.91375707012E+01 0.89576252412E+01 0.89621142876E+01 0.79143581585E+01 0.78556811329E+01
 0.79238867656E+01 0.83998878033E+01 0.91375707012E+01 0.10163586018E+02 0.12477866004E+02
 0.17326798250E+02 0.25252368372E+02 0.48431728209E+02 0.10375575017E+03 0.19275254706E+03
 0.29643650681E+03 0.38102964057E+03 0.41376993713E+03 0.38102964057E+03 0.29643650681E+03
 0.19275254706E+03 0.10375575017E+03 0.48431728209E+02 0.25252368372E+02 0.17326798250E+02
 0.12477866004E+02 0.10163586018E+02 0.91375707012E+01 0.83998878033E+01 0.79238867657E+01
 0.78556811329E+01 0.73185289603E+01 0.71930692882E+01 0.72375716772E+01 0.79238867656E+01
 0.89576252412E+01 0.10259650753E+02 0.13196724885E+02 0.19258024950E+02 0.32103096194E+02
 0.73439283832E+02 0.16215168188E+03 0.29643650681E+03 0.44824352653E+03 0.57039281477E+03
 0.61741844882E+03 0.57039281477E+03 0.44824352653E+03 0.29643650681E+03 0.16215168188E+03
 0.73439283832E+02 0.32103096194E+02 0.19258024950E+02 0.13196724885E+02 0.10259650753E+02
 0.89576252412E+01 0.79238867656E+01 0.72375716772E+01 0.71930692882E+01 0.75761934740E+01
 0.73314159923E+01 0.71930692882E+01 0.78556811329E+01 0.89621142876E+01 0.10371240914E+02
 0.13716417259E+02 0.20620212221E+02 0.38932509651E+02 0.95856793281E+02 0.21128739306E+03
 0.38102964057E+03 0.57039281477E+03 0.72193480293E+03 0.78017032523E+03 0.72193480293E+03
 0.57039281477E+03 0.38102964057E+03 0.21128739306E+03 0.95856793281E+02 0.38932509651E+02
 0.20620212221E+02 0.13716417259E+02 0.10371240914E+02 0.89621142876E+01 0.78556811329E+01
 0.71930692882E+01 0.73314159923E+01 0.78863471116E+01 0.75761934740E+01 0.73185289603E+01
 0.79143581585E+01 0.90009488917E+01 0.10421469175E+02 0.13904992261E+02 0.21150941245E+02
 0.41833899768E+02 0.10488851969E+03 0.23054890570E+03 0.41376993713E+03 0.61741844882E+03
 0.78017032523E+03 0.84268907810E+03 0.78017032523E+03 0.61741844882E+03 0.41376993713E+03
 0.23054890570E+03 0.10488851969E+03 0.41833899768E+02 0.21150941245E+02 0.13904992261E+02
 0.10421469175E+02 0.90009488917E+01 0.79143581585E+01 0.73185289603E+01 0.75761934740E+01
 0.75761934740E+01 0.73314159923E+01 0.71930692882E+01 0.78556811329E+01 0.89621142876E+01
 0.10371240914E+02 0.13716417259E+02 0.20620212221E+02 0.38932509651E+02 0.95856793281E+02
 0.21128739306E+03 0.38102964057E+03 0.57039281477E+03 0.72193480293E+03 0.78017032523E+03
 0.72193480293E+03 0.57039281477E+03 0.38102964057E+03 0.21128739306E+03 0.95856793281E+02
 0.38932509651E+02 0.20620212221E+02 0.13716417259E+02 0.10371240914E+02 0.89621142876E+01
 0.78556811329E+01 0.71930692882E+01 0.73314159923E+01 0.73185289603E+01 0.71930692882E+01
 0.72375716772E+01 0.79238867656E+01 0.89576252412E+01 0.10259650753E+02 0.13196724885E+02
 0.19258024950E+02 0.32103096194E+02 0.73439283832E+02 0.16215168188E+03 0.29643650681E+03
 0.44824352653E+03 0.57039281477E+03 0.61741844882E+03 0.57039281477E+03 0.44824352653E+03
 0.29643650681E+03 0.16215168188E+03 0.73439283832E+02 0.32103096194E+02 0.19258024950E+02
 0.13196724885E+02 0.10259650753E+02 0.89576252412E+01 0.79238867656E+01 0.72375716772E+01
 0.71930692882E+01 0.79143581585E+01 0.78556811329E+01 0.79238867656E+01 0.83998878033E+01
 0.91375707012E+01 0.10163586018E+02 0.12477866004E+02 0.17326798250E+02 0.25252368372E+02
 0.48431728209E+02 0.10375575017E+03 0.19275254706E+03 0.29643650681E+03 0.38102964057E+03
 0.41376993713E+03 0.38102964057E+03 0.29643650681E+03 0.19275254706E+03 0.10375575017E+03
 0.48431728209E+02 0.25252368372E+02 0.17326798250E+02 0.12477866004E+02 0.10163586018E+02
 0.91375707012E+01 0.83998878033E+01 0.79238867656E+01 0.78556811329E+01 0.90009488917E+01
 0.89621142876E+01 0.89576252412E+01 0.91375707012E+01 0.94989906475E+01 0.10157655970E+02
 0.11754429139E+02 0.15189059022E+02 0.20611588602E+02 0.30463394670E+02 0.56621981007E+02
 0.10375575017E+03 0.16215168188E+03 0.21128739306E+03 0.23054890570E+03 0.21128739306E+03
 0.16215168188E+03 0.10375575017E+03 0.56621981007E+02 0.30463394670E+02 0.20611588602E+02
 0.15189059022E+02 0.11754429139E+02 0.10157655970E+02 0.94989906475E+01 0.91375707012E+01
 0.89576252412E+01 0.89621142876E+01 0.10421469175E+02 0.10371240914E+02 0.10259650753E+02
 0.10163586018E+02 0.10157655970E+02 0.10395363926E+02 0.11255411455E+02 0.13303487032E+02
 0.16909236584E+02 0.21786631311E+02 0.30463394670E+02 0.48431728209E+02 0.73439283832E+02
 0.95856793281E+02 0.10488851969E+03 0.95856793281E+02 0.73439283832E+02 0.48431728209E+02
 0.30463394670E+02 0.21786631311E+02 0.16909236584E+02 0.13303487032E+02 0.11255411455E+02
 0.10395363926E+02 0.10157655970E+02 0.10163586018E+02 0.10259650753E+02 0.10371240914E+02
 0.13904992261E+02 0.13716417259E+02 0.13196724885E+02 0.12477866004E+02 0.11754429139E+02
 0.11255411455E+02 0.11245778763E+02 0.12038724036E+02 0.13915757850E+02 0.16909236584E+02
 0.20611588602E+02 0.25252368372E+02 0.32103096194E+02 0.38932509651E+02 0.41833899768E+02
 0.38932509651E+02 0.32103096194E+02 0.25252368372E+02 0.20611588602E+02 0.16909236584E+02
 0.13915757850E+02 0.12038724036E+02 0.11245778763E+02 0.11255411455E+02 0.11754429139E+02
 0.12477866004E+02 0.13196724885E+02 0.13716417259E+02 0.21150941245E+02 0.20620212221E+02
 0.19258024950E+02 0.17326798250E+02 0.15189059022E+02 0.13303487032E+02 0.12038724036E+02
 0.11597693709E+02 0.12038724036E+02 0.13303487032E+02 0.15189059022E+02 0.17326798250E+02
 0.19258024950E+02 0.20620212221E+02 0.21150941245E+02 0.20620212221E+02 0.19258024950E+02
 0.17326798250E+02 0.15189059022E+02 0.13303487032E+02 0.12038724036E+02 0.11597693709E+02
 0.12038724036E+02 0.13303487032E+02 0.15189059022E+02 0.17326798250E+02 0.19258024950E+02
 0.20620212221E+02 0.41833899768E+02 0.38932509651E+02 0.32103096194E+02 0.25252368372E+02
 0.20611588602E+02 0.16909236584E+02 0.13915757850E+02 0.12038724036E+02 0.11245778763E+02
 0.11255411455E+02 0.11754429139E+02 0.12477866004E+02 0.13196724885E+02 0.13716417259E+02
 0.13904992261E+02 0.13716417259E+02 0.13196724885E+02 0.12477866004E+02 0.11754429139E+02
 0.11255411455E+02 0.11245778763E+02 0.12038724036E+02 0.13915757850E+02 0.16909236584E+02
 0.20611588602E+02 0.25252368372E+02 0.32103096194E+02 0.38932509651E+02 0.10488851969E+03
 0.95856793281E+02 0.73439283832E+02 0.48431728209E+02 0.30463394670E+02 0.21786631311E+02
 0.16909236584E+02 0.13303487032E+02 0.11255411455E+02 0.10395363926E+02 0.10157655970E+02
 0.10163586018E+02 0.10259650753E+02 0.10371240914E+02 0.10421469175E+02 0.10371240914E+02
 0.10259650753E+02 0.10163586018E+02 0.10157655970E+02 0.10395363926E+02 0.11255411455E+02
 0.13303487032E+02 0.16909236584E+02 0.21786631311E+02 0.30463394670E+02 0.48431728209E+02
 0.73439283832E+02 0.95856793281E+02 0.23054890570E+03 0.21128739306E+03 0.16215168188E+03
 0.10375575017E+03 0.56621981007E+02 0.30463394670E+02 0.20611588602E+02 0.15189059022E+02
 0.11754429139E+02 0.10157655970E+02 0.94989906475E+01 0.91375707012E+01 0.89576252412E+01
 0.89621142876E+01 0.90009488917E+01 0.89621142876E+01 0.89576252412E+01 0.91375707012E+01
 0.94989906475E+01 0.10157655970E+02 0.11754429139E+02 0.15189059022E+02 0.20611588602E+02
 0.30463394670E+02 0.56621981007E+02 0.10375575017E+03 0.16215168188E+03 0.21128739306E+03
 0.41376993713E+03 0.38102964057E+03 0.29643650681E+03 0.19275254706E+03 0.10375575017E+03
 0.48431728209E+02 0.25252368372E+02 0.17326798250E+02 0.12477866004E+02 0.10163586018E+02
 0.91375707012E+01 0.83998878033E+01 0.79238867657E+01 0.78556811329E+01 0.79143581585E+01
 0.78556811329E+01 0.79238867656E+01 0.83998878033E+01 0.91375707012E+01 0.10163586018E+02
 0.12477866004E+02 0.17326798250E+02 0.25252368372E+02 0.48431728209E+02 0.10375575017E+03
 0.19275254706E+03 0.29643650681E+03 0.38102964057E+03 0.61741844882E+03 0.57039281477E+03
 0.44824352653E+03 0.29643650681E+03 0.16215168188E+03 0.73439283832E+02 0.32103096194E+02
 0.19258024950E+02 0.13196724885E+02 0.10259650753E+02 0.89576252412E+01 0.79238867656E+01
 0.72375716772E+01 0.71930692882E+01 0.73185289603E+01 0.71930692882E+01 0.72375716772E+01
 0.79238867656E+01 0.89576252412E+01 0.10259650753E+02 0.13196724885E+02 0.19258024950E+02
 0.32103096194E+02 0.73439283832E+02 0.16215168188E+03 0.29643650681E+03 0.44824352653E+03
 0.57039281477E+03 0.78017032523E+03 0.72193480293E+03 0.57039281477E+03 0.38102964057E+03
 0.21128739306E+03 0.95856793281E+02 0.38932509651E+02 0.20620212221E+02 0.13716417259E+02
 0.10371240914E+02 0.89621142876E+01 0.78556811329E+01 0.71930692882E+01 0.73314159923E+01
 0.75761934740E+01 0.73314159923E+01 0.71930692882E+01 0.78556811329E+01 0.89621142876E+01
 0.10371240914E+02 0.13716417259E+02 0.20620212221E+02 0.38932509651E+02 0.95856793281E+02
 0.21128739306E+03 0.38102964057E+03 0.57039281477E+03 0.72193480293E+03 0.78017032523E+03
 0.72193480293E+03 0.57039281477E+03 0.38102964057E+03 0.21128739306E+03 0.95856793281E+02
 0.38932509651E+02 0.20620212221E+02 0.13716417259E+02 0.10371240914E+02 0.89621142876E+01
 0.78556811329E+01 0.71930692882E+01 0.73314159923E+01 0.75761934740E+01 0.73314159923E+01
 0.71930692882E+01 0.78556811329E+01 0.89621142876E+01 0.10371240914E+02 0.13716417259E+02
 0.20620212221E+02 0.38932509651E+02 0.95856793281E+02 0.21128739306E+03 0.38102964057E+03
 0.57039281477E+03 0.72193480293E+03 0.72193480293E+03 0.66770084094E+03 0.52664031392E+03
 0.35064954108E+03 0.19352584752E+03 0.87636782759E+02 0.36356664323E+02 0.20130983879E+02
 0.13535565675E+02 0.10330439781E+02 0.89414318268E+01 0.78260683891E+01 0.71103338675E+01
 0.71446999501E+01 0.73314159923E+01 0.71446999501E+01 0.71103338675E+01 0.78260683891E+01
 0.89414318268E+01 0.10330439781E+02 0.13535565675E+02 0.20130983879E+02 0.36356664323E+02
 0.87636782759E+02 0.19352584752E+03 0.35064954108E+03 0.52664031392E+03 0.66770084094E+03
 0.57039281477E+03 0.52664031392E+03 0.41308105611E+03 0.27225683952E+03 0.14831487742E+03
 0.67307922076E+02 0.30321295869E+02 0.18825827934E+02 0.13036327053E+02 0.10237826506E+02
 0.89705407927E+01 0.79449369031E+01 0.72286409177E+01 0.71103338675E+01 0.71930692882E+01
 0.71103338675E+01 0.72286409177E+01 0.79449369031E+01 0.89705407927E+01 0.10237826506E+02
 0.13036327053E+02 0.18825827934E+02 0.30321295869E+02 0.67307922076E+02 0.14831487742E+03
 0.27225683952E+03 0.41308105611E+03 0.52664031392E+03 0.38102964057E+03 0.35064954108E+03
 0.27225683952E+03 0.17649033912E+03 0.94862799008E+02 0.44817785927E+02 0.24296409610E+02
 0.16948113303E+02 0.12344423650E+02 0.10154244883E+02 0.91671425482E+01 0.84409015998E+01
 0.79449369031E+01 0.78260683891E+01 0.78556811329E+01 0.78260683891E+01 0.79449369031E+01
 0.84409015998E+01 0.91671425482E+01 0.10154244883E+02 0.12344423650E+02 0.16948113303E+02
 0.24296409610E+02 0.44817785927E+02 0.94862799008E+02 0.17649033912E+03 0.27225683952E+03
 0.35064954108E+03 0.21128739306E+03 0.19352584752E+03 0.14831487742E+03 0.94862799008E+02
 0.52161380459E+02 0.28882112017E+02 0.20078391329E+02 0.14887585487E+02 0.11647313946E+02
 0.10147242422E+02 0.95217173553E+01 0.91671425482E+01 0.89705407927E+01 0.89414318268E+01
 0.89621142876E+01 0.89414318268E+01 0.89705407927E+01 0.91671425482E+01 0.95217173553E+01
 0.10147242422E+02 0.11647313946E+02 0.14887585487E+02 0.20078391329E+02 0.28882112017E+02
 0.52161380459E+02 0.94862799008E+02 0.14831487742E+03 0.19352584752E+03 0.95856793281E+02
 0.87636782759E+02 0.67307922076E+02 0.44817785927E+02 0.28882112017E+02 0.21183108778E+02
 0.16505864970E+02 0.13085001216E+02 0.11164488657E+02 0.10364874618E+02 0.10147242422E+02
 0.10154244883E+02 0.10237826506E+02 0.10330439781E+02 0.10371240914E+02 0.10330439781E+02
 0.10237826506E+02 0.10154244883E+02 0.10147242422E+02 0.10364874618E+02 0.11164488657E+02
 0.13085001216E+02 0.16505864970E+02 0.21183108778E+02 0.28882112017E+02 0.44817785927E+02
 0.67307922076E+02 0.87636782759E+02 0.38932509651E+02 0.36356664323E+02 0.30321295869E+02
 0.24296409610E+02 0.20078391329E+02 0.16505864970E+02 0.13653480938E+02 0.11883801302E+02
 0.11145266697E+02 0.11164488657E+02 0.11647313946E+02 0.12344423650E+02 0.13036327053E+02
 0.13535565675E+02 0.13716417259E+02 0.13535565675E+02 0.13036327053E+02 0.12344423650E+02
 0.11647313946E+02 0.11164488657E+02 0.11145266697E+02 0.11883801302E+02 0.13653480938E+02
 0.16505864970E+02 0.20078391329E+02 0.24296409610E+02 0.30321295869E+02 0.36356664323E+02
 0.20620212221E+02 0.20130983879E+02 0.18825827934E+02 0.16948113303E+02 0.14887585487E+02
 0.13085001216E+02 0.11883801302E+02 0.11466490981E+02 0.11883801302E+02 0.13085001216E+02
 0.14887585487E+02 0.16948113303E+02 0.18825827934E+02 0.20130983879E+02 0.20620212221E+02
 0.20130983879E+02 0.18825827934E+02 0.16948113303E+02 0.14887585487E+02 0.13085001216E+02
 0.11883801302E+02 0.11466490981E+02 0.11883801302E+02 0.13085001216E+02 0.14887585487E+02
 0.16948113303E+02 0.18825827934E+02 0.20130983879E+02 0.13716417259E+02 0.13535565675E+02
 0.13036327053E+02 0.12344423650E+02 0.11647313946E+02 0.11164488657E+02 0.11145266697E+02
 0.11883801302E+02 0.13653480938E+02 0.16505864970E+02 0.20078391329E+02 0.24296409610E+02
 0.30321295869E+02 0.36356664323E+02 0.38932509651E+02 0.36356664323E+02 0.30321295869E+02
 0.24296409610E+02 0.20078391329E+02 0.16505864970E+02 0.13653480938E+02 0.11883801302E+02
 0.11145266697E+02 0.11164488657E+02 0.11647313946E+02 0.12344423650E+02 0.13036327053E+02
 0.13535565675E+02 0.10371240914E+02 0.10330439781E+02 0.10237826506E+02 0.10154244883E+02
 0.10147242422E+02 0.10364874618E+02 0.11164488657E+02 0.13085001216E+02 0.16505864970E+02
 0.21183108778E+02 0.28882112017E+02 0.44817785927E+02 0.67307922076E+02 0.87636782759E+02
 0.95856793281E+02 0.87636782759E+02 0.67307922076E+02 0.44817785927E+02 0.28882112017E+02
 0.21183108778E+02 0.16505864970E+02 0.13085001216E+02 0.11164488657E+02 0.10364874618E+02
 0.10147242422E+02 0.10154244883E+02 0.10237826506E+02 0.10330439781E+02 0.89621142876E+01
 0.89414318268E+01 0.89705407927E+01 0.91671425482E+01 0.95217173553E+01 0.10147242422E+02
 0.11647313946E+02 0.14887585487E+02 0.20078391329E+02 0.28882112017E+02 0.52161380459E+02
 0.94862799008E+02 0.14831487742E+03 0.19352584752E+03 0.21128739306E+03 0.19352584752E+03
 0.14831487742E+03 0.94862799008E+02 0.52161380459E+02 0.28882112017E+02 0.20078391329E+02
 0.14887585487E+02 0.11647313946E+02 0.10147242422E+02 0.95217173553E+01 0.91671425482E+01
 0.89705407927E+01 0.89414318268E+01 0.78556811329E+01 0.78260683891E+01 0.79449369031E+01
 0.84409015998E+01 0.91671425482E+01 0.10154244883E+02 0.12344423650E+02 0.16948113303E+02
 0.24296409610E+02 0.44817785927E+02 0.94862799008E+02 0.17649033912E+03 0.27225683952E+03
 0.35064954108E+03 0.38102964057E+03 0.35064954108E+03 0.27225683952E+03 0.17649033912E+03
 0.94862799008E+02 0.44817785927E+02 0.24296409610E+02 0.16948113303E+02 0.12344423650E+02
 0.10154244883E+02 0.91671425482E+01 0.84409015998E+01 0.79449369031E+01 0.78260683891E+01
 0.71930692882E+01 0.71103338675E+01 0.72286409177E+01 0.79449369031E+01 0.89705407927E+01
 0.10237826506E+02 0.13036327053E+02 0.18825827934E+02 0.30321295869E+02 0.67307922076E+02
 0.14831487742E+03 0.27225683952E+03 0.41308105611E+03 0.52664031392E+03 0.57039281477E+03
 0.52664031392E+03 0.41308105611E+03 0.27225683952E+03 0.14831487742E+03 0.67307922076E+02
 0.30321295869E+02 0.18825827934E+02 0.13036327053E+02 0.10237826506E+02 0.89705407927E+01
 0.79449369031E+01 0.72286409177E+01 0.71103338675E+01 0.73314159923E+01 0.71446999501E+01
 0.71103338675E+01 0.78260683891E+01 0.89414318268E+01 0.10330439781E+02 0.13535565675E+02
 0.20130983879E+02 0.36356664323E+02 0.87636782759E+02 0.19352584752E+03 0.35064954108E+03
 0.52664031392E+03 0.66770084094E+03 0.72193480293E+03 0.66770084094E+03 0.52664031392E+03
 0.35064954108E+03 0.19352584752E+03 0.87636782759E+02 0.36356664323E+02 0.20130983879E+02
 0.13535565675E+02 0.10330439781E+02 0.89414318268E+01 0.78260683891E+01 0.71103338675E+01
 0.71446999501E+01 0.75761934740E+01 0.73314159923E+01 0.71930692882E+01 0.78556811329E+01
 0.89621142876E+01 0.10371240914E+02 0.13716417259E+02 0.20620212221E+02 0.38932509651E+02
 0.95856793281E+02 0.21128739306E+03 0.38102964057E+03 0.57039281477E+03 0.72193480293E+03
 0.78017032523E+03 0.72193480293E+03 0.57039281477E+03 0.38102964057E+03 0.21128739306E+03
 0.95856793281E+02 0.38932509651E+02 0.20620212221E+02 0.13716417259E+02 0.10371240914E+02
 0.89621142876E+01 0.78556811329E+01 0.71930692882E+01 0.73314159923E+01 0.73314159923E+01
 0.71446999501E+01 0.71103338675E+01 0.78260683891E+01 0.89414318268E+01 0.10330439781E+02
 0.13535565675E+02 0.20130983879E+02 0.36356664323E+02 0.87636782759E+02 0.19352584752E+03
 0.35064954108E+03 0.52664031392E+03 0.66770084094E+03 0.72193480293E+03 0.66770084094E+03
 0.52664031392E+03 0.35064954108E+03 0.19352584752E+03 0.87636782759E+02 0.36356664323E+02
 0.20130983879E+02 0.13535565675E+02 0.10330439781E+02 0.89414318268E+01 0.78260683891E+01
 0.71103338675E+01 0.71446999501E+01 0.71930692882E+01 0.71103338675E+01 0.72286409177E+01
 0.79449369031E+01 0.89705407927E+01 0.10237826506E+02 0.13036327053E+02 0.18825827934E+02
 0.30321295869E+02 0.67307922076E+02 0.14831487742E+03 0.27225683952E+03 0.41308105611E+03
 0.52664031392E+03 0.57039281477E+03 0.52664031392E+03 0.41308105611E+03 0.27225683952E+03
 0.14831487742E+03 0.67307922076E+02 0.30321295869E+02 0.18825827934E+02 0.13036327053E+02
 0.10237826506E+02 0.89705407927E+01 0.79449369031E+01 0.72286409177E+01 0.71103338675E+01
 0.78556811329E+01 0.78260683891E+01 0.79449369031E+01 0.84409015998E+01 0.91671425482E+01
 0.10154244883E+02 0.12344423650E+02 0.16948113303E+02 0.24296409610E+02 0.44817785927E+02
 0.94862799008E+02 0.17649033912E+03 0.27225683952E+03 0.35064954108E+03 0.38102964057E+03
 0.35064954108E+03 0.27225683952E+03 0.17649033912E+03 0.94862799008E+02 0.44817785927E+02
 0.24296409610E+02 0.16948113303E+02 0.12344423650E+02 0.10154244883E+02 0.91671425482E+01
 0.84409015998E+01 0.79449369031E+01 0.78260683891E+01 0.89621142876E+01 0.89414318268E+01
 0.89705407927E+01 0.91671425482E+01 0.95217173553E+01 0.10147242422E+02 0.11647313946E+02
 0.14887585487E+02 0.20078391329E+02 0.28882112017E+02 0.52161380459E+02 0.94862799008E+02
 0.14831487742E+03 0.19352584752E+03 0.21128739306E+03 0.19352584752E+03 0.14831487742E+03
 0.94862799008E+02 0.52161380459E+02 0.28882112017E+02 0.20078391329E+02 0.14887585487E+02
 0.11647313946E+02 0.10147242422E+02 0.95217173553E+01 0.91671425482E+01 0.89705407927E+01
 0.89414318268E+01 0.10371240914E+02 0.10330439781E+02 0.10237826506E+02 0.10154244883E+02
 0.10147242422E+02 0.10364874618E+02 0.11164488657E+02 0.13085001216E+02 0.16505864970E+02
 0.21183108778E+02 0.28882112017E+02 0.44817785927E+02 0.67307922076E+02 0.87636782759E+02
 0.95856793281E+02 0.87636782759E+02 0.67307922076E+02 0.44817785927E+02 0.28882112017E+02
 0.21183108778E+02 0.16505864970E+02 0.13085001216E+02 0.11164488657E+02 0.10364874618E+02
 0.10147242422E+02 0.10154244883E+02 0.10237826506E+02 0.10330439781E+02 0.13716417259E+02
 0.13535565675E+02 0.13036327053E+02 0.12344423650E+02 0.11647313946E+02 0.11164488657E+02
 0.11145266697E+02 0.11883801302E+02 0.13653480938E+02 0.16505864970E+02 0.20078391329E+02
 0.24296409610E+02 0.30321295869E+02 0.36356664323E+02 0.38932509651E+02 0.36356664323E+02
 0.30321295869E+02 0.24296409610E+02 0.20078391329E+02 0.16505864970E+02 0.13653480938E+02
 0.11883801302E+02 0.11145266697E+02 0.11164488657E+02 0.11647313946E+02 0.12344423650E+02
 0.13036327053E+02 0.13535565675E+02 0.20620212221E+02 0.20130983879E+02 0.18825827934E+02
 0.16948113303E+02 0.14887585487E+02 0.13085001216E+02 0.11883801302E+02 0.11466490981E+02
 0.11883801302E+02 0.13085001216E+02 0.14887585487E+02 0.16948113303E+02 0.18825827934E+02
 0.20130983879E+02 0.20620212221E+02 0.20130983879E+02 0.18825827934E+02 0.16948113303E+02
 0.14887585487E+02 0.13085001216E+02 0.11883801302E+02 0.11466490981E+02 0.11883801302E+02
 0.13085001216E+02 0.14887585487E+02 0.16948113303E+02 0.18825827934E+02 0.20130983879E+02
 0.38932509651E+02 0.36356664323E+02 0.30321295869E+02 0.24296409610E+02 0.20078391329E+02
 0.16505864970E+02 0.13653480938E+02 0.11883801302E+02 0.11145266697E+02 0.11164488657E+02
 0.11647313946E+02 0.12344423650E+02 0.13036327053E+02 0.13535565675E+02 0.13716417259E+02
 0.13535565675E+02 0.13036327053E+02 0.12344423650E+02 0.11647313946E+02 0.11164488657E+02
 0.11145266697E+02 0.11883801302E+02 0.13653480938E+02 0.16505864970E+02 0.20078391329E+02
 0.24296409610E+02 0.30321295869E+02 0.36356664323E+02 0.95856793281E+02 0.87636782759E+02
 0.67307922076E+02 0.44817785927E+02 0.28882112017E+02 0.21183108778E+02 0.16505864970E+02
 0.13085001216E+02 0.11164488657E+02 0.10364874618E+02 0.10147242422E+02 0.10154244883E+02
 0.10237826506E+02 0.10330439781E+02 0.10371240914E+02 0.10330439781E+02 0.10237826506E+02
 0.10154244883E+02 0.10147242422E+02 0.10364874618E+02 0.11164488657E+02 0.13085001216E+02
 0.16505864970E+02 0.21183108778E+02 0.28882112017E+02 0.44817785927E+02 0.67307922076E+02
 0.87636782759E+02 0.21128739306E+03 0.19352584752E+03 0.14831487742E+03 0.94862799008E+02
 0.52161380459E+02 0.28882112017E+02 0.20078391329E+02 0.14887585487E+02 0.11647313946E+02
 0.10147242422E+02 0.95217173553E+01 0.91671425482E+01 0.89705407927E+01 0.89414318268E+01
 0.89621142876E+01 0.89414318268E+01 0.89705407927E+01 0.91671425482E+01 0.95217173553E+01
 0.10147242422E+02 0.11647313946E+02 0.14887585487E+02 0.20078391329E+02 0.28882112017E+02
 0.52161380459E+02 0.94862799008E+02 0.14831487742E+03 0.19352584752E+03 0.38102964057E+03
 0.35064954108E+03 0.27225683952E+03 0.17649033912E+03 0.94862799008E+02 0.44817785927E+02
 0.24296409610E+02 0.16948113303E+02 0.12344423650E+02 0.10154244883E+02 0.91671425482E+01
 0.84409015998E+01 0.79449369031E+01 0.78260683891E+01 0.78556811329E+01 0.78260683891E+01
 0.79449369031E+01 0.84409015998E+01 0.91671425482E+01 0.10154244883E+02 0.12344423650E+02
 0.16948113303E+02 0.24296409610E+02 0.44817785927E+02 0.94862799008E+02 0.17649033912E+03
 0.27225683952E+03 0.35064954108E+03 0.57039281477E+03 0.52664031392E+03 0.41308105611E+03
 0.27225683952E+03 0.14831487742E+03 0.67307922076E+02 0.30321295869E+02 0.18825827934E+02
 0.13036327053E+02 0.10237826506E+02 0.89705407927E+01 0.79449369031E+01 0.72286409177E+01
 0.71103338675E+01 0.71930692882E+01 0.71103338675E+01 0.72286409177E+01 0.79449369031E+01
 0.89705407927E+01 0.10237826506E+02 0.13036327053E+02 0.18825827934E+02 0.30321295869E+02
 0.67307922076E+02 0.14831487742E+03 0.27225683952E+03 0.41308105611E+03 0.52664031392E+03
 0.72193480293E+03 0.66770084094E+03 0.52664031392E+03 0.35064954108E+03 0.19352584752E+03
 0.87636782759E+02 0.36356664323E+02 0.20130983879E+02 0.13535565675E+02 0.10330439781E+02
 0.89414318268E+01 0.78260683891E+01 0.71103338675E+01 0.71446999501E+01 0.73314159923E+01
 0.71446999501E+01 0.71103338675E+01 0.78260683891E+01 0.89414318268E+01 0.10330439781E+02
 0.13535565675E+02 0.20130983879E+02 0.36356664323E+02 0.87636782759E+02 0.19352584752E+03
 0.35064954108E+03 0.52664031392E+03 0.66770084094E+03 0.61741844882E+03 0.57039281477E+03
 0.44824352653E+03 0.29643650681E+03 0.16215168188E+03 0.73439283832E+02 0.32103096194E+02
 0.19258024950E+02 0.13196724885E+02 0.10259650753E+02 0.89576252412E+01 0.79238867656E+01
 0.72375716772E+01 0.71930692882E+01 0.73185289603E+01 0.71930692882E+01 0.72375716772E+01
 0.79238867656E+01 0.89576252412E+01 0.10259650753E+02 0.13196724885E+02 0.19258024950E+02
 0.32103096194E+02 0.73439283832E+02 0.16215168188E+03 0.29643650681E+03 0.44824352653E+03
 0.57039281477E+03 0.57039281477E+03 0.52664031392E+03 0.41308105611E+03 0.27225683952E+03
 0.14831487742E+03 0.67307922076E+02 0.30321295869E+02 0.18825827934E+02 0.13036327053E+02
 0.10237826506E+02 0.89705407927E+01 0.79449369031E+01 0.72286409177E+01 0.71103338675E+01
 0.71930692882E+01 0.71103338675E+01 0.72286409177E+01 0.79449369031E+01 0.89705407927E+01
 0.10237826506E+02 0.13036327053E+02 0.18825827934E+02 0.30321295869E+02 0.67307922076E+02
 0.14831487742E+03 0.27225683952E+03 0.41308105611E+03 0.52664031392E+03 0.44824352653E+03