    4    4    1    1
  0.1200752E+02  0.3635000E-09  0.3635000E-09  0.3635000E-09  0.5000000E-15
  1.000000000000000E-004
  CAR 
 unknown system                          
     44     10     30
 
  0.0000000E+00  0.0000000E+00  0.0000000E+00  0.8000000E-02
    1       -1.822518   1.000000
    2        2.555251   1.000000
    3        2.555251   1.000000
    4        2.555251   1.000000
    5        3.031537   1.000000
    6        3.031537   1.000000
    7        3.031537   1.000000
    8        4.342421   1.000000
    9        4.342421   1.000000
   10        4.342421   1.000000
   11        5.118781   1.000000
   12        5.118781   1.000000
   13        5.640559   1.000000
   14        5.640559   1.000000
   15        5.640559   1.000000
   16        5.817120   1.000000
   17        5.817120   1.000000
   18        5.817120   1.000000
   19        5.817120   1.000000
   20        5.817120   1.000000
   21        5.817120   1.000000
   22        8.919274  -0.000000
   23        8.919274  -0.000000
   24        8.919274  -0.000000
   25       14.341073   0.000000
   26       14.341073   0.000000
   27       14.341073   0.000000
   28       20.359170   0.000000
   29       20.359170   0.000000
   30       20.359170   0.000000
 
  0.2000000E+00  0.0000000E+00  0.0000000E+00  0.4800000E-01
    1       -1.345747   1.000000
    2        2.541660   1.000000
    3        2.777438   1.000000
    4        2.777438   1.000000
    5        3.171102   1.000000
    6        3.171102   1.000000
    7        3.237993   1.000000
    8        4.213824   1.000000
    9        4.473185   1.000000
   10        4.473185   1.000000
   11        5.042474   1.000000
   12        5.170713   1.000000
   13        5.185659   1.000000
   14        5.185659   1.000000
   15        5.511198   1.000000
   16        5.511198   1.000000
   17        5.624614   1.000000
   18        5.656949   1.000000
   19        5.656949   1.000000
   20        5.806303   1.000000
   21        5.806303   1.000000
   22        6.831359   1.012142
   23        9.976772  -0.000000
   24        9.976772  -0.000000
   25       14.530628   0.000000
   26       14.530628   0.000000
   27       17.406912   0.000000
   28       18.098201   0.000000
   29       18.098201   0.000000
   30       18.764156   0.000000
 
  0.4000000E+00  0.0000000E+00  0.0000000E+00  0.4800000E-01
    1        0.010190   1.000000
    2        1.796055   1.000000
    3        3.191532   1.000000
    4        3.191532   1.000000
    5        3.483190   1.000000
    6        3.557707   1.000000
    7        3.557707   1.000000
    8        3.882832   1.000000
    9        4.263768   1.000000
   10        4.263768   1.000000
   11        4.789404   1.000000
   12        4.838505   1.000000
   13        4.838505   1.000000
   14        4.962988   1.000000
   15        5.181580   1.000000
   16        5.181580   1.000000
   17        5.249598   1.000000
   18        5.249598   1.000000
   19        5.343837   1.000000
   20        5.493684   1.000000
   21        5.802430   1.000000
   22        5.802430   1.000000
   23       12.190250  -0.000000
   24       12.190250  -0.000000
   25       14.964879   0.000000
   26       14.964879   0.000000
   27       15.177823   0.000000
   28       15.177823   0.000000
   29       16.633707   0.000000
   30       16.633707   0.000000
 
  0.2000000E+00  0.2000000E+00  0.0000000E+00  0.9600000E-01
    1       -0.880836   1.000000
    2        2.774679   1.000000
    3        2.774679   1.000000
    4        2.967487   1.000000
    5        3.275455   1.000000
    6        3.302944   1.000000
    7        3.302944   1.000000
    8        4.194783   1.000000
    9        4.516118   1.000000
   10        4.522981   1.000000
   11        4.880232   1.000000
   12        4.888242   1.000000
   13        4.888242   1.000000
   14        5.032430   1.000000
   15        5.229737   1.000000
   16        5.398490   1.000000
   17        5.508029   1.000000
   18        5.508029   1.000000
   19        5.636787   1.000000
   20        5.636787   1.000000
   21        5.708585   1.000000
   22        7.825188  -0.000051
   23        7.825188  -0.000051
   24       10.834507  -0.000000
   25       14.496209   0.000000
   26       14.985218   0.000000
   27       17.740239   0.000000
   28       17.740239   0.000000
   29       18.683410   0.000000
   30       18.683410   0.000000
 
  0.4000000E+00  0.2000000E+00  0.0000000E+00  0.1920000E+00
    1        0.430619   1.000000
    2        2.112952   1.000000
    3        3.282208   1.000000
    4        3.388168   1.000000
    5        3.535445   1.000000
    6        3.613437   1.000000
    7        3.617635   1.000000
    8        3.948887   1.000000
    9        4.031070   1.000000
   10        4.211021   1.000000
   11        4.486515   1.000000
   12        4.541396   1.000000
   13        4.850112   1.000000
   14        4.970110   1.000000
   15        5.148094   1.000000
   16        5.184382   1.000000
   17        5.241377   1.000000
   18        5.298997   1.000000
   19        5.470342   1.000000
   20        5.622789   1.000000
   21        5.639740   1.000000
   22        6.001231   1.000000
   23        9.522895  -0.000000
   24       11.736066  -0.000000
   25       12.866175   0.000000
   26       15.542068   0.000000
   27       15.557995   0.000000
   28       17.023107   0.000000
   29       18.836933   0.000000
   30       20.286399   0.000000
 
  0.4000000E+00  0.4000000E+00  0.0000000E+00  0.9600000E-01
    1        1.566877   1.000000
    2        2.861927   1.000000
    3        2.861927   1.000000
    4        3.361355   1.000000
    5        3.754362   1.000000
    6        3.792336   1.000000
    7        3.792336   1.000000
    8        3.950419   1.000000
    9        4.031720   1.000000
   10        4.050037   1.000000
   11        4.050037   1.000000
   12        4.385808   1.000000
   13        4.858296   1.000000
   14        4.920082   1.000000
   15        4.978630   1.000000
   16        5.033366   1.000000
   17        5.033366   1.000000
   18        5.264085   1.000000
   19        5.264085   1.000000
   20        5.387996   1.000000
   21        5.992823   1.000000
   22        7.088260   0.909974
   23        7.088260   0.909974
   24        8.867548  -0.000000
   25       14.644065   0.000000
   26       16.510443   0.000000
   27       17.181683   0.000000
   28       17.181683   0.000000
   29       18.286035   0.000000
   30       18.286035   0.000000
 
  0.2000000E+00  0.2000000E+00  0.2000000E+00  0.6400000E-01
    1       -0.434233   1.000000
    2        2.960672   1.000000
    3        2.960672   1.000000
    4        2.960672   1.000000
    5        3.379197   1.000000
    6        3.379197   1.000000
    7        3.379197   1.000000
    8        4.166925   1.000000
    9        4.519986   1.000000
   10        4.519986   1.000000
   11        4.646956   1.000000
   12        4.646956   1.000000
   13        4.646956   1.000000
   14        5.172274   1.000000
   15        5.172274   1.000000
   16        5.203659   1.000000
   17        5.203659   1.000000
   18        5.203659   1.000000
   19        5.743995   1.000000
   20        5.743995   1.000000
   21        5.743995   1.000000
   22        8.453610  -0.000000
   23        8.453610  -0.000000
   24        8.453610  -0.000000
   25       15.297040   0.000000
   26       15.297040   0.000000
   27       15.297040   0.000000
   28       18.110776   0.000000
   29       18.110776   0.000000
   30       18.110776   0.000000
 
  0.4000000E+00  0.2000000E+00  0.2000000E+00  0.1920000E+00
    1        0.806896   1.000000
    2        2.339477   1.000000
    3        3.277576   1.000000
    4        3.277576   1.000000
    5        3.607434   1.000000
    6        3.607434   1.000000
    7        3.705514   1.000000
    8        3.988196   1.000000
    9        4.215922   1.000000
   10        4.215922   1.000000
   11        4.421835   1.000000
   12        4.482338   1.000000
   13        4.591892   1.000000
   14        4.897643   1.000000
   15        4.990051   1.000000
   16        4.990051   1.000000
   17        5.260913   1.000000
   18        5.426944   1.000000
   19        5.654706   1.000000
   20        5.654706   1.000000
   21        5.671097   1.000000
   22        6.206091   1.000000
   23        9.821338  -0.000000
   24        9.821338  -0.000000
   25       12.486125  -0.000000
   26       12.486125  -0.000000
   27       16.828649   0.000000
   28       19.135894   0.000000
   29       19.215137   0.000000
   30       19.215137   0.000000
 
  0.4000000E+00  0.4000000E+00  0.2000000E+00  0.1920000E+00
    1        1.762266   1.000000
    2        2.721399   1.000000
    3        2.721399   1.000000
    4        3.021794   1.000000
    5        3.938465   1.000000
    6        4.048507   1.000000
    7        4.048507   1.000000
    8        4.197287   1.000000
    9        4.268588   1.000000
   10        4.268588   1.000000
   11        4.394405   1.000000
   12        4.399899   1.000000
   13        4.555269   1.000000
   14        4.723966   1.000000
   15        4.750256   1.000000
   16        4.750256   1.000000
   17        5.303697   1.000000
   18        5.560251   1.000000
   19        5.560251   1.000000
   20        5.573370   1.000000
   21        5.875361   1.000000
   22        7.134734   0.774138
   23        7.134734   0.774138
   24        8.805190  -0.000000
   25       11.912699  -0.000000
   26       13.892018   0.000000
   27       13.892018   0.000000
   28       16.121143   0.000000
   29       20.425299   0.000000
   30       22.410600   0.000000
 
  0.4000000E+00  0.4000000E+00  0.4000000E+00  0.6400000E-01
    1        2.140871   1.000000
    2        2.545709   1.000000
    3        2.545709   1.000000
    4        2.545709   1.000000
    5        4.247176   1.000000
    6        4.247176   1.000000
    7        4.247176   1.000000
    8        4.417324   1.000000
    9        4.417324   1.000000
   10        4.489655   1.000000
   11        4.489655   1.000000
   12        4.489655   1.000000
   13        4.932432   1.000000
   14        4.932432   1.000000
   15        4.932432   1.000000
   16        5.174574   1.000000
   17        5.616539   1.000000
   18        5.616539   1.000000
   19        5.702228   1.000000
   20        5.702228   1.000000
   21        5.702228   1.000000
   22        7.267010   0.247099
   23        7.267010   0.247099
   24        7.267010   0.247099
   25       11.451243  -0.000000
   26       11.451243  -0.000000
   27       11.451243  -0.000000
   28       13.225233   0.000000
   29       25.692581   0.000000
   30       25.692581   0.000000
