 vasp.6.2.0 18Jan21 (build Mar 17 2021 09:06:54) complex                        
  
 executed on             LinuxIFC date 2021.08.03  10:19:45
 serial version


--------------------------------------------------------------------------------------------------------


 INCAR:
   ENCUT = 240.000000
   SIGMA = 0.200000
   EDIFF = 1.00e-06
   GGA = PE
   PREC = normal
   IBRION = -1
   ICHARG = 1
   ISMEAR = 1
   KPAR = 1
   NBANDS = 30
   NSW = 0
   NCORE = 1
   LCHARG = .TRUE.

 POTCAR:    PAW_PBE Cu 22Jun2005                  
 POTCAR:    PAW_PBE Cu 22Jun2005                  
   SHA256 =  0e71e558f37a4e8407882b4609ceaae59938afaad9ced71dfe8490308a0ab630 Cu/POTCAR             
   COPYR  = (c) Copyright 22Jun2005 Georg Kresse                                                    
   COPYR  = This file is part of the software VASP. Any use, copying, and all other rights are regul
   COPYR  = If you do not have a valid VASP license, you may not use, copy or distribute this file. 
   VRHFIN =Cu: d10 p1                                                                               
   LEXCH  = PE                                                                                      
   EATOM  =  1390.9808 eV,  102.2342 Ry                                                             
                                                                                                    
   TITEL  = PAW_PBE Cu 22Jun2005                                                                    
   LULTRA =        F    use ultrasoft PP ?                                                          
   IUNSCR =        1    unscreen: 0-lin 1-nonlin 2-no                                               
   RPACOR =    2.000    partial core radius                                                         
   POMASS =   63.546; ZVAL   =   11.000    mass and valenz                                          
   RCORE  =    2.300    outmost cutoff radius                                                       
   RWIGS  =    2.200; RWIGS  =    1.164    wigner-seitz radius (au A)                               
   ENMAX  =  295.446; ENMIN  =  221.585 eV                                                          
   ICORE  =        3    local potential                                                             
   LCOR   =        T    correct aug charges                                                         
   LPAW   =        T    paw PP                                                                      
   EAUG   =  586.980                                                                                
   DEXC   =    0.000                                                                                
   RMAX   =    2.344    core radius for proj-oper                                                   
   RAUG   =    1.300    factor for augmentation sphere                                              
   RDEP   =    2.302    radius for radial grids                                                     
   RDEPT  =    1.771    core radius for aug-charge                                                  
                                                                                                    
   Atomic configuration                                                                             
    9 entries                                                                                       
     n  l   j            E        occ.                                                              
     1  0  0.50     -8850.2468   2.0000                                                             
     2  0  0.50     -1062.3498   2.0000                                                             
     2  1  1.50      -916.8226   6.0000                                                             
     3  0  0.50      -114.6929   2.0000                                                             
     3  1  1.50       -72.1325   6.0000                                                             
     3  2  2.50        -5.0394  10.0000                                                             
     4  0  0.50        -4.6097   1.0000                                                             
     4  1  0.50        -4.0817   0.0000                                                             
     4  3  2.50        -1.3606   0.0000                                                             
   Description                                                                                      
     l       E           TYP  RCUT    TYP  RCUT                                                     
     2     -5.0393973     23  2.200                                                                 
     2     10.8846608     23  2.200                                                                 
     0     -4.6097109     23  2.200                                                                 
     0      8.2520465     23  2.200                                                                 
     1     -2.7211652     23  2.200                                                                 
     1     21.7055443     23  2.200                                                                 
     3      2.7211652     23  2.300                                                                 
  local pseudopotential read in
  partial core-charges read in
  partial kinetic energy density read in
  atomic valenz-charges read in
  non local Contribution for L=           2  read in
    real space projection operators read in
  non local Contribution for L=           2  read in
    real space projection operators read in
  non local Contribution for L=           0  read in
    real space projection operators read in
  non local Contribution for L=           0  read in
    real space projection operators read in
  non local Contribution for L=           1  read in
    real space projection operators read in
  non local Contribution for L=           1  read in
    real space projection operators read in
    PAW grid and wavefunctions read in
 
   number of l-projection  operators is LMAX  =           6
   number of lm-projection operators is LMMAX =          18
 
  PAW_PBE Cu 22Jun2005                  :
 energy of atom  1       EATOM=-1390.9808
 kinetic energy error for atom=    0.4163 (will be added to EATOM!!)
 
 
 POSCAR: Cu
  positions in cartesian coordinates
  No initial velocities read in
 exchange correlation table for  LEXCH =        8
   RHO(1)=    0.500       N(1)  =     2000
   RHO(2)=  100.500       N(2)  =     4000
 


--------------------------------------------------------------------------------------------------------


 ion  position               nearest neighbor table
   1  0.000  0.000  0.000-   2 2.57   3 2.57   4 2.57   3 2.57   4 2.57   2 2.57   4 2.57   4 2.57
                             2 2.57   3 2.57   3 2.57   2 2.57
   2  0.500  0.500  0.000-   1 2.57   3 2.57   4 2.57   3 2.57   4 2.57   1 2.57   3 2.57   3 2.57
                             1 2.57   4 2.57   4 2.57   1 2.57
   3  0.500  0.000  0.500-   1 2.57   2 2.57   4 2.57   1 2.57   2 2.57   2 2.57   4 2.57   2 2.57
                             1 2.57   4 2.57   1 2.57   4 2.57
   4  0.000  0.500  0.500-   1 2.57   2 2.57   3 2.57   1 2.57   2 2.57   1 2.57   3 2.57   1 2.57
                             2 2.57   3 2.57   2 2.57   3 2.57
 
  LATTYP: Found a simple cubic cell.
 ALAT       =     3.6350000000
  
  Lattice vectors:
  
 A1 = (   3.6350000000,   0.0000000000,   0.0000000000)
 A2 = (   0.0000000000,   3.6350000000,   0.0000000000)
 A3 = (   0.0000000000,   0.0000000000,   3.6350000000)


Analysis of symmetry for initial positions (statically):
=====================================================================
 Subroutine PRICEL returns following result:
 
  LATTYP: Found a face centered cubic cell.
 ALAT       =     3.6350000000
  
  Lattice vectors:
  
 A1 = (   1.8175000000,  -1.8175000000,   0.0000000000)
 A2 = (   1.8175000000,   0.0000000000,   1.8175000000)
 A3 = (   0.0000000000,  -1.8175000000,   1.8175000000)
 
   4 primitive cells build up your supercell.
 

 Routine SETGRP: Setting up the symmetry group for a 
 simple cubic supercell.


 Subroutine GETGRP returns: Found 48 space group operations
 (whereof 48 operations were pure point group operations)
 out of a pool of 48 trial point group operations.


The static configuration has the point symmetry O_h .


Analysis of symmetry for dynamics (positions and initial velocities):
=====================================================================
 Subroutine PRICEL returns following result:
 
  LATTYP: Found a face centered cubic cell.
 ALAT       =     3.6350000000
  
  Lattice vectors:
  
 A1 = (   1.8175000000,  -1.8175000000,   0.0000000000)
 A2 = (   1.8175000000,   0.0000000000,   1.8175000000)
 A3 = (   0.0000000000,  -1.8175000000,   1.8175000000)
 
   4 primitive cells build up your supercell.
 

 Routine SETGRP: Setting up the symmetry group for a 
 simple cubic supercell.


 Subroutine GETGRP returns: Found 48 space group operations
 (whereof 48 operations were pure point group operations)
 out of a pool of 48 trial point group operations.


The dynamic configuration has the point symmetry O_h .


 Subroutine INISYM returns: Found 48 space group operations
 (whereof 48 operations are pure point group operations),
 and found     4 'primitive' translations


----------------------------------------------------------------------------------------

                                     Primitive cell                                     

  volume of cell :      12.0075

  direct lattice vectors                    reciprocal lattice vectors
     1.817500000 -1.817500000  0.000000000     0.275103164 -0.275103164 -0.275103164
     1.817500000  0.000000000  1.817500000     0.275103164  0.275103164  0.275103164
     0.000000000 -1.817500000  1.817500000    -0.275103164 -0.275103164  0.275103164

  length of vectors
     2.570333150  2.570333150  2.570333150     0.476492657  0.476492657  0.476492657

  position of ions in fractional coordinates (direct lattice)
     0.000000000  0.000000000  0.000000000

  ion indices of the primitive-cell ions
   primitive index   ion index
                 1           1

----------------------------------------------------------------------------------------

 
 
 KPOINTS: KPOINTS created by Atomic Simulation Env

Automatic generation of k-mesh.
 Grid dimensions read from file:
 generate k-points for:    5    5    5

 Generating k-lattice:

  Cartesian coordinates                     Fractional coordinates (reciprocal lattice)
     0.055020633  0.000000000  0.000000000     0.200000000  0.000000000  0.000000000
     0.000000000  0.055020633  0.000000000     0.000000000  0.200000000  0.000000000
     0.000000000  0.000000000  0.055020633     0.000000000  0.000000000  0.200000000

  Length of vectors
     0.055020633  0.055020633  0.055020633

  Shift w.r.t. Gamma in fractional coordinates (k-lattice)
     0.000000000  0.000000000  0.000000000

 
 Subroutine IBZKPT returns following result:
 ===========================================
 
 Found     10 irreducible k-points:
 
 Following reciprocal coordinates:
            Coordinates               Weight
  0.000000  0.000000  0.000000      1.000000
  0.200000  0.000000  0.000000      6.000000
  0.400000  0.000000  0.000000      6.000000
  0.200000  0.200000  0.000000     12.000000
  0.400000  0.200000  0.000000     24.000000
  0.400000  0.400000  0.000000     12.000000
  0.200000  0.200000  0.200000      8.000000
  0.400000  0.200000  0.200000     24.000000
  0.400000  0.400000  0.200000     24.000000
  0.400000  0.400000  0.400000      8.000000
 
 Following cartesian coordinates:
            Coordinates               Weight
  0.000000  0.000000  0.000000      1.000000
  0.055021  0.000000  0.000000      6.000000
  0.110041  0.000000  0.000000      6.000000
  0.055021  0.055021  0.000000     12.000000
  0.110041  0.055021  0.000000     24.000000
  0.110041  0.110041  0.000000     12.000000
  0.055021  0.055021  0.055021      8.000000
  0.110041  0.055021  0.055021     24.000000
  0.110041  0.110041  0.055021     24.000000
  0.110041  0.110041  0.110041      8.000000
 


--------------------------------------------------------------------------------------------------------




 Dimension of arrays:
   k-points           NKPTS =     10   k-points in BZ     NKDIM =     10   number of bands    NBANDS=     30
   number of dos      NEDOS =    301   number of ions     NIONS =      4
   non local maximal  LDIM  =      6   non local SUM 2l+1 LMDIM =     18
   total plane-waves  NPLWV =   2744
   max r-space proj   IRMAX =      1   max aug-charges    IRDMAX=   1854
   dimension x,y,z NGX =    14 NGY =   14 NGZ =   14
   dimension x,y,z NGXF=    28 NGYF=   28 NGZF=   28
   support grid    NGXF=    28 NGYF=   28 NGZF=   28
   ions per type =               4
   NGX,Y,Z   is equivalent  to a cutoff of   6.40,  6.40,  6.40 a.u.
   NGXF,Y,Z  is equivalent  to a cutoff of  12.81, 12.81, 12.81 a.u.

 SYSTEM =  unknown system                          
 POSCAR =  Cu                                      

 Startparameter for this run:
   NWRITE =      2    write-flag & timer
   PREC   = normal    normal or accurate (medium, high low for compatibility)
   ISTART =      0    job   : 0-new  1-cont  2-samecut
   ICHARG =      1    charge: 1-file 2-atom 10-const
   ISPIN  =      1    spin polarized calculation?
   LNONCOLLINEAR =      F non collinear calculations
   LSORBIT =      F    spin-orbit coupling
   INIWAV =      1    electr: 0-lowe 1-rand  2-diag
   LASPH  =      F    aspherical Exc in radial PAW
   METAGGA=      F    non-selfconsistent MetaGGA calc.

 Electronic Relaxation 1
   ENCUT  =  240.0 eV  17.64 Ry    4.20 a.u.   4.59  4.59  4.59*2*pi/ulx,y,z
   ENINI  =  240.0     initial cutoff
   ENAUG  =  587.0 eV  augmentation charge cutoff
   NELM   =     60;   NELMIN=  2; NELMDL= -5     # of ELM steps 
   EDIFF  = 0.1E-05   stopping-criterion for ELM
   LREAL  =      F    real-space projection
   NLSPLINE    = F    spline interpolate recip. space projectors
   LCOMPAT=      F    compatible to vasp.4.4
   GGA_COMPAT  = T    GGA compatible to vasp.4.4-vasp.4.6
   LMAXPAW     = -100 max onsite density
   LMAXMIX     =    2 max onsite mixed and CHGCAR
   VOSKOWN=      0    Vosko Wilk Nusair interpolation
   ROPT   =    0.00000
 Ionic relaxation
   EDIFFG = 0.1E-04   stopping-criterion for IOM
   NSW    =      0    number of steps for IOM
   NBLOCK =      1;   KBLOCK =      1    inner block; outer block 
   IBRION =     -1    ionic relax: 0-MD 1-quasi-New 2-CG
   NFREE  =      0    steps in history (QN), initial steepest desc. (CG)
   ISIF   =      2    stress and relaxation
   IWAVPR =      0    prediction:  0-non 1-charg 2-wave 3-comb
   ISYM   =      2    0-nonsym 1-usesym 2-fastsym
   LCORR  =      T    Harris-Foulkes like correction to forces

   POTIM  = 0.5000    time-step for ionic-motion
   TEIN   =    0.0    initial temperature
   TEBEG  =    0.0;   TEEND  =   0.0 temperature during run
   SMASS  =  -3.00    Nose mass-parameter (am)
   estimated Nose-frequenzy (Omega)   =  0.10E-29 period in steps = 0.13E+47 mass=  -0.302E-27a.u.
   SCALEE = 1.0000    scale energy and forces
   NPACO  =    256;   APACO  = 16.0  distance and # of slots for P.C.
   PSTRESS=    0.0 pullay stress

  Mass of Ions in am
   POMASS =  63.55
  Ionic Valenz
   ZVAL   =  11.00
  Atomic Wigner-Seitz radii
   RWIGS  =  -1.00
  virtual crystal weights 
   VCA    =   1.00
   NELECT =      44.0000    total number of electrons
   NUPDOWN=      -1.0000    fix difference up-down

 DOS related values:
   EMIN   =  10.00;   EMAX   =-10.00  energy-range for DOS
   EFERMI =   0.00
   ISMEAR =     1;   SIGMA  =   0.20  broadening in eV -4-tet -1-fermi 0-gaus

 Electronic relaxation 2 (details)
   IALGO  =     38    algorithm
   LDIAG  =      T    sub-space diagonalisation (order eigenvalues)
   LSUBROT=      F    optimize rotation matrix (better conditioning)
   TURBO    =      0    0=normal 1=particle mesh
   IRESTART =      0    0=no restart 2=restart with 2 vectors
   NREBOOT  =      0    no. of reboots
   NMIN     =      0    reboot dimension
   EREF     =   0.00    reference energy to select bands
   IMIX   =      4    mixing-type and parameters
     AMIX     =   0.40;   BMIX     =  1.00
     AMIX_MAG =   1.60;   BMIX_MAG =  1.00
     AMIN     =   0.10
     WC   =   100.;   INIMIX=   1;  MIXPRE=   1;  MAXMIX= -45

 Intra band minimization:
   WEIMIN = 0.0000     energy-eigenvalue tresh-hold
   EBREAK =  0.83E-08  absolut break condition
   DEPER  =   0.30     relativ break condition  

   TIME   =   0.40     timestep for ELM

  volume/ion in A,a.u.               =      12.01        81.03
  Fermi-wavevector in a.u.,A,eV,Ry     =   1.589967  3.004601 34.395439  2.527993
  Thomas-Fermi vector in A             =   2.688734
 
 Write flags
   LWAVE        =      T    write WAVECAR
   LDOWNSAMPLE  =      F    k-point downsampling of WAVECAR
   LCHARG       =      T    write CHGCAR
   LVTOT        =      F    write LOCPOT, total local potential
   LVHAR        =      F    write LOCPOT, Hartree potential only
   LELF         =      F    write electronic localiz. function (ELF)
   LORBIT       =      0    0 simple, 1 ext, 2 COOP (PROOUT), +10 PAW based schemes


 Dipole corrections
   LMONO  =      F    monopole corrections only (constant potential shift)
   LDIPOL =      F    correct potential (dipole corrections)
   IDIPOL =      0    1-x, 2-y, 3-z, 4-all directions 
   EPSILON=  1.0000000 bulk dielectric constant

 Exchange correlation treatment:
   GGA     =    PE    GGA type
   LEXCH   =     8    internal setting for exchange type
   VOSKOWN=      0    Vosko Wilk Nusair interpolation
   LHFCALC =     F    Hartree Fock is set to
   LHFONE  =     F    Hartree Fock one center treatment
   AEXX    =    0.0000 exact exchange contribution

 Linear response parameters
   LEPSILON=     F    determine dielectric tensor
   LRPA    =     F    only Hartree local field effects (RPA)
   LNABLA  =     F    use nabla operator in PAW spheres
   LVEL    =     F    velocity operator in full k-point grid
   LINTERFAST=   F  fast interpolation
   KINTER  =     0    interpolate to denser k-point grid
   CSHIFT  =0.1000    complex shift for real part using Kramers Kronig
   OMEGAMAX=  -1.0    maximum frequency
   DEG_THRESHOLD= 0.2000000E-02 threshold for treating states as degnerate
   RTIME   =   -0.100 relaxation time in fs
  (WPLASMAI=    0.000 imaginary part of plasma frequency in eV, 0.658/RTIME)
   DFIELD  = 0.0000000 0.0000000 0.0000000 field for delta impulse in time
 
 Orbital magnetization related:
   ORBITALMAG=     F  switch on orbital magnetization
   LCHIMAG   =     F  perturbation theory with respect to B field
   DQ        =  0.001000  dq finite difference perturbation B field
   LLRAUG    =     F  two centre corrections for induced B field



--------------------------------------------------------------------------------------------------------


 Static calculation
 charge density and potential will be updated during run
 non-spin polarized calculation
 Variant of blocked Davidson
 Davidson routine will perform the subspace rotation
 perform sub-space diagonalisation
    after iterative eigenvector-optimisation
 modified Broyden-mixing scheme, WC =      100.0
 initial mixing is a Kerker type mixing with AMIX =  0.4000 and BMIX =      1.0000
 Hartree-type preconditioning will be used
 using additional bands            8
 reciprocal scheme for non local part
 use partial core corrections
 calculate Harris-corrections to forces 
   (improved forces if not selfconsistent)
 use gradient corrections 
 use of overlap-Matrix (Vanderbilt PP)
 Methfessel and Paxton  Order N= 1 SIGMA  =   0.20


--------------------------------------------------------------------------------------------------------


  energy-cutoff  :      240.00
  volume of cell :       48.03
      direct lattice vectors                 reciprocal lattice vectors
     3.635000000  0.000000000  0.000000000     0.275103164  0.000000000  0.000000000
     0.000000000  3.635000000  0.000000000     0.000000000  0.275103164  0.000000000
     0.000000000  0.000000000  3.635000000     0.000000000  0.000000000  0.275103164

  length of vectors
     3.635000000  3.635000000  3.635000000     0.275103164  0.275103164  0.275103164


 
 k-points in units of 2pi/SCALE and weight: KPOINTS created by Atomic Simulation Env
   0.00000000  0.00000000  0.00000000       0.008
   0.05502063  0.00000000  0.00000000       0.048
   0.11004127  0.00000000  0.00000000       0.048
   0.05502063  0.05502063  0.00000000       0.096
   0.11004127  0.05502063  0.00000000       0.192
   0.11004127  0.11004127  0.00000000       0.096
   0.05502063  0.05502063  0.05502063       0.064
   0.11004127  0.05502063  0.05502063       0.192
   0.11004127  0.11004127  0.05502063       0.192
   0.11004127  0.11004127  0.11004127       0.064
 
 k-points in reciprocal lattice and weights: KPOINTS created by Atomic Simulation Env
   0.00000000  0.00000000  0.00000000       0.008
   0.20000000  0.00000000  0.00000000       0.048
   0.40000000  0.00000000  0.00000000       0.048
   0.20000000  0.20000000  0.00000000       0.096
   0.40000000  0.20000000  0.00000000       0.192
   0.40000000  0.40000000  0.00000000       0.096
   0.20000000  0.20000000  0.20000000       0.064
   0.40000000  0.20000000  0.20000000       0.192
   0.40000000  0.40000000  0.20000000       0.192
   0.40000000  0.40000000  0.40000000       0.064
 
 position of ions in fractional coordinates (direct lattice) 
   0.00000000  0.00000000  0.00000000
   0.50000000  0.50000000  0.00000000
   0.50000000  0.00000000  0.50000000
   0.00000000  0.50000000  0.50000000
 
 position of ions in cartesian coordinates  (Angst):
   0.00000000  0.00000000  0.00000000
   1.81750000  1.81750000  0.00000000
   1.81750000  0.00000000  1.81750000
   0.00000000  1.81750000  1.81750000
 


--------------------------------------------------------------------------------------------------------


 k-point   1 :   0.0000 0.0000 0.0000  plane waves:     437
 k-point   2 :   0.2000 0.0000 0.0000  plane waves:     417
 k-point   3 :   0.4000 0.0000 0.0000  plane waves:     409
 k-point   4 :   0.2000 0.2000 0.0000  plane waves:     411
 k-point   5 :   0.4000 0.2000 0.0000  plane waves:     404
 k-point   6 :   0.4000 0.4000 0.0000  plane waves:     400
 k-point   7 :   0.2000 0.2000 0.2000  plane waves:     410
 k-point   8 :   0.4000 0.2000 0.2000  plane waves:     408
 k-point   9 :   0.4000 0.4000 0.2000  plane waves:     399
 k-point  10 :   0.4000 0.4000 0.4000  plane waves:     402

 maximum number of plane-waves:       437
 maximum index in each direction: 
   IXMAX=    4   IYMAX=    4   IZMAX=    4
   IXMIN=   -4   IYMIN=   -4   IZMIN=   -4


 total amount of memory used by VASP MPI-rank0    34378. kBytes
=======================================================================

   base      :      30000. kBytes
   nonl-proj :        657. kBytes
   grid      :       1216. kBytes
   one-center:         62. kBytes
   wavefun   :       2443. kBytes
 
     INWAV:  cpu time    0.0000: real time    0.0000
 Broyden mixing: mesh for mixing (old mesh)
   NGX =  9   NGY =  9   NGZ =  9
  (NGX  = 28   NGY  = 28   NGZ  = 28)
  gives a total of    729 points

 initial charge density was supplied:
 charge density of overlapping atoms calculated
 number of electron      44.0000000 magnetization 
 keeping initial charge density in first step


--------------------------------------------------------------------------------------------------------


 Maximum index for augmentation-charges         1575 (set IRDMAX)


--------------------------------------------------------------------------------------------------------


 First call to EWALD:  gamma=   0.488
 Maximum number of real-space cells 3x 3x 3
 Maximum number of reciprocal cells 3x 3x 3

    FEWALD:  cpu time    0.0009: real time    0.0009


--------------------------------------- Iteration      1(   1)  ---------------------------------------


    POTLOK:  cpu time    0.0050: real time    0.0050
    SETDIJ:  cpu time    0.0035: real time    0.0035
     EDDAV:  cpu time    0.1117: real time    0.1314
       DOS:  cpu time    0.0008: real time    0.0008
    --------------------------------------------
      LOOP:  cpu time    0.1210: real time    0.1429

 eigenvalue-minimisations  :   600
 total energy-change (2. order) : 0.2526785E+03  (-0.1264239E+04)
 number of electron      44.0000000 magnetization 
 augmentation part       44.0000000 magnetization 

 Free energy of the ion-electron system (eV)
  ---------------------------------------------------
  alpha Z        PSCENC =       243.62337785
  Ewald energy   TEWEN  =     -4395.34838493
  -Hartree energ DENC   =     -1460.68397360
  -exchange      EXHF   =         0.00000000
  -V(xc)+E(xc)   XCENC  =       182.95482720
  PAW double counting   =      4912.82663951    -5336.19386850
  entropy T*S    EENTRO =         0.00844768
  eigenvalues    EBANDS =       543.23359425
  atomic energy  EATOM  =      5562.25782034
  Solvation  Ediel_sol  =         0.00000000
  ---------------------------------------------------
  free energy    TOTEN  =       252.67847979 eV

  energy without entropy =      252.67003211  energy(sigma->0) =      252.67566390


--------------------------------------------------------------------------------------------------------




--------------------------------------- Iteration      1(   2)  ---------------------------------------


     EDDAV:  cpu time    0.0940: real time    0.0961
       DOS:  cpu time    0.0008: real time    0.0008
    --------------------------------------------
      LOOP:  cpu time    0.0947: real time    0.0947

 eigenvalue-minimisations  :   606
 total energy-change (2. order) :-0.2548589E+03  (-0.2443826E+03)
 number of electron      44.0000000 magnetization 
 augmentation part       44.0000000 magnetization 

 Free energy of the ion-electron system (eV)
  ---------------------------------------------------
  alpha Z        PSCENC =       243.62337785
  Ewald energy   TEWEN  =     -4395.34838493
  -Hartree energ DENC   =     -1460.68397360
  -exchange      EXHF   =         0.00000000
  -V(xc)+E(xc)   XCENC  =       182.95482720
  PAW double counting   =      4912.82663951    -5336.19386850
  entropy T*S    EENTRO =        -0.00242136
  eigenvalues    EBANDS =       288.38558996
  atomic energy  EATOM  =      5562.25782034
  Solvation  Ediel_sol  =         0.00000000
  ---------------------------------------------------
  free energy    TOTEN  =        -2.18039354 eV

  energy without entropy =       -2.17797218  energy(sigma->0) =       -2.17958642


--------------------------------------------------------------------------------------------------------




--------------------------------------- Iteration      1(   3)  ---------------------------------------


     EDDAV:  cpu time    0.0826: real time    0.0826
       DOS:  cpu time    0.0009: real time    0.0009
    --------------------------------------------
      LOOP:  cpu time    0.0835: real time    0.0835

 eigenvalue-minimisations  :   654
 total energy-change (2. order) :-0.1566011E+02  (-0.1520031E+02)
 number of electron      44.0000000 magnetization 
 augmentation part       44.0000000 magnetization 

 Free energy of the ion-electron system (eV)
  ---------------------------------------------------
  alpha Z        PSCENC =       243.62337785
  Ewald energy   TEWEN  =     -4395.34838493
  -Hartree energ DENC   =     -1460.68397360
  -exchange      EXHF   =         0.00000000
  -V(xc)+E(xc)   XCENC  =       182.95482720
  PAW double counting   =      4912.82663951    -5336.19386850
  entropy T*S    EENTRO =        -0.01964230
  eigenvalues    EBANDS =       272.74269937
  atomic energy  EATOM  =      5562.25782034
  Solvation  Ediel_sol  =         0.00000000
  ---------------------------------------------------
  free energy    TOTEN  =       -17.84050506 eV

  energy without entropy =      -17.82086277  energy(sigma->0) =      -17.83395763


--------------------------------------------------------------------------------------------------------




--------------------------------------- Iteration      1(   4)  ---------------------------------------


     EDDAV:  cpu time    0.0841: real time    0.0841
       DOS:  cpu time    0.0009: real time    0.0009
    --------------------------------------------
      LOOP:  cpu time    0.0850: real time    0.0850

 eigenvalue-minimisations  :   660
 total energy-change (2. order) :-0.1840787E+00  (-0.1839852E+00)
 number of electron      44.0000000 magnetization 
 augmentation part       44.0000000 magnetization 

 Free energy of the ion-electron system (eV)
  ---------------------------------------------------
  alpha Z        PSCENC =       243.62337785
  Ewald energy   TEWEN  =     -4395.34838493
  -Hartree energ DENC   =     -1460.68397360
  -exchange      EXHF   =         0.00000000
  -V(xc)+E(xc)   XCENC  =       182.95482720
  PAW double counting   =      4912.82663951    -5336.19386850
  entropy T*S    EENTRO =        -0.01947881
  eigenvalues    EBANDS =       272.55845717
  atomic energy  EATOM  =      5562.25782034
  Solvation  Ediel_sol  =         0.00000000
  ---------------------------------------------------
  free energy    TOTEN  =       -18.02458378 eV

  energy without entropy =      -18.00510497  energy(sigma->0) =      -18.01809084


--------------------------------------------------------------------------------------------------------




--------------------------------------- Iteration      1(   5)  ---------------------------------------


     EDDAV:  cpu time    0.0851: real time    0.0851
       DOS:  cpu time    0.0009: real time    0.0009
    CHARGE:  cpu time    0.0071: real time    0.0071
    MIXING:  cpu time    0.0002: real time    0.0002
    --------------------------------------------
      LOOP:  cpu time    0.0932: real time    0.0932

 eigenvalue-minimisations  :   676
 total energy-change (2. order) :-0.1547668E-02  (-0.1547639E-02)
 number of electron      44.0004248 magnetization 
 augmentation part       25.7659126 magnetization 

 Broyden mixing:
  rms(total) = 0.16135E+01    rms(broyden)= 0.16131E+01
  rms(prec ) = 0.37365E+01
  weight for this iteration     100.00

 Free energy of the ion-electron system (eV)
  ---------------------------------------------------
  alpha Z        PSCENC =       243.62337785
  Ewald energy   TEWEN  =     -4395.34838493
  -Hartree energ DENC   =     -1460.68397360
  -exchange      EXHF   =         0.00000000
  -V(xc)+E(xc)   XCENC  =       182.95482720
  PAW double counting   =      4912.82663951    -5336.19386850
  entropy T*S    EENTRO =        -0.01947836
  eigenvalues    EBANDS =       272.55690904
  atomic energy  EATOM  =      5562.25782034
  Solvation  Ediel_sol  =         0.00000000
  ---------------------------------------------------
  free energy    TOTEN  =       -18.02613145 eV

  energy without entropy =      -18.00665309  energy(sigma->0) =      -18.01963866


--------------------------------------------------------------------------------------------------------




--------------------------------------- Iteration      1(   6)  ---------------------------------------


    POTLOK:  cpu time    0.0048: real time    0.0048
    SETDIJ:  cpu time    0.0036: real time    0.0036
     EDDAV:  cpu time    0.0808: real time    0.0808
       DOS:  cpu time    0.0008: real time    0.0008
    CHARGE:  cpu time    0.0070: real time    0.0070
    MIXING:  cpu time    0.0002: real time    0.0002
    --------------------------------------------
      LOOP:  cpu time    0.0972: real time    0.0972

 eigenvalue-minimisations  :   648
 total energy-change (2. order) : 0.2408917E+01  (-0.3315127E+01)
 number of electron      44.0004703 magnetization 
 augmentation part       29.2869933 magnetization 

 Broyden mixing:
  rms(total) = 0.84234E+00    rms(broyden)= 0.84166E+00
  rms(prec ) = 0.18512E+01
  weight for this iteration     100.00

 eigenvalues of (default mixing * dielectric matrix)
  average eigenvalue GAMMA=   0.6572
  0.6572

 Free energy of the ion-electron system (eV)
  ---------------------------------------------------
  alpha Z        PSCENC =       243.62337785
  Ewald energy   TEWEN  =     -4395.34838493
  -Hartree energ DENC   =     -1344.07726491
  -exchange      EXHF   =         0.00000000
  -V(xc)+E(xc)   XCENC  =       177.11227080
  PAW double counting   =      4990.05446556    -5387.53803508
  entropy T*S    EENTRO =         0.00051689
  eigenvalues    EBANDS =       138.29801894
  atomic energy  EATOM  =      5562.25782034
  Solvation  Ediel_sol  =         0.00000000
  ---------------------------------------------------
  free energy    TOTEN  =       -15.61721456 eV

  energy without entropy =      -15.61773145  energy(sigma->0) =      -15.61738685


--------------------------------------------------------------------------------------------------------




--------------------------------------- Iteration      1(   7)  ---------------------------------------


    POTLOK:  cpu time    0.0047: real time    0.0047
    SETDIJ:  cpu time    0.0035: real time    0.0035
     EDDAV:  cpu time    0.0831: real time    0.0831
       DOS:  cpu time    0.0008: real time    0.0008
    CHARGE:  cpu time    0.0069: real time    0.0069
    MIXING:  cpu time    0.0002: real time    0.0002
    --------------------------------------------
      LOOP:  cpu time    0.0993: real time    0.0993

 eigenvalue-minimisations  :   672
 total energy-change (2. order) : 0.1624630E+01  (-0.5821552E+00)
 number of electron      44.0004526 magnetization 
 augmentation part       27.9769616 magnetization 

 Broyden mixing:
  rms(total) = 0.68929E-01    rms(broyden)= 0.68529E-01
  rms(prec ) = 0.16762E+00
  weight for this iteration     100.00

 eigenvalues of (default mixing * dielectric matrix)
  average eigenvalue GAMMA=   1.2017
  1.7624  0.6410

 Free energy of the ion-electron system (eV)
  ---------------------------------------------------
  alpha Z        PSCENC =       243.62337785
  Ewald energy   TEWEN  =     -4395.34838493
  -Hartree energ DENC   =     -1381.50666756
  -exchange      EXHF   =         0.00000000
  -V(xc)+E(xc)   XCENC  =       179.02945068
  PAW double counting   =      5096.75721410    -5512.82108621
  entropy T*S    EENTRO =        -0.02668270
  eigenvalues    EBANDS =       194.04237391
  atomic energy  EATOM  =      5562.25782034
  Solvation  Ediel_sol  =         0.00000000
  ---------------------------------------------------
  free energy    TOTEN  =       -13.99258454 eV

  energy without entropy =      -13.96590183  energy(sigma->0) =      -13.98369030


--------------------------------------------------------------------------------------------------------




--------------------------------------- Iteration      1(   8)  ---------------------------------------


    POTLOK:  cpu time    0.0047: real time    0.0047
    SETDIJ:  cpu time    0.0035: real time    0.0035
     EDDAV:  cpu time    0.0830: real time    0.0830
       DOS:  cpu time    0.0008: real time    0.0008
    CHARGE:  cpu time    0.0071: real time    0.0071
    MIXING:  cpu time    0.0002: real time    0.0002
    --------------------------------------------
      LOOP:  cpu time    0.0993: real time    0.0993

 eigenvalue-minimisations  :   674
 total energy-change (2. order) : 0.1982608E-01  (-0.5886890E-02)
 number of electron      44.0004515 magnetization 
 augmentation part       27.9097605 magnetization 

 Broyden mixing:
  rms(total) = 0.71771E-01    rms(broyden)= 0.71741E-01
  rms(prec ) = 0.17083E+00
  weight for this iteration     100.00

 eigenvalues of (default mixing * dielectric matrix)
  average eigenvalue GAMMA=   1.3090
  0.6737  0.8929  2.3604

 Free energy of the ion-electron system (eV)
  ---------------------------------------------------
  alpha Z        PSCENC =       243.62337785
  Ewald energy   TEWEN  =     -4395.34838493
  -Hartree energ DENC   =     -1375.96148038
  -exchange      EXHF   =         0.00000000
  -V(xc)+E(xc)   XCENC  =       178.78490508
  PAW double counting   =      5231.31785192    -5654.35200527
  entropy T*S    EENTRO =        -0.02840377
  eigenvalues    EBANDS =       195.73356071
  atomic energy  EATOM  =      5562.25782034
  Solvation  Ediel_sol  =         0.00000000
  ---------------------------------------------------
  free energy    TOTEN  =       -13.97275846 eV

  energy without entropy =      -13.94435469  energy(sigma->0) =      -13.96329054


--------------------------------------------------------------------------------------------------------




--------------------------------------- Iteration      1(   9)  ---------------------------------------


    POTLOK:  cpu time    0.0047: real time    0.0047
    SETDIJ:  cpu time    0.0035: real time    0.0035
     EDDAV:  cpu time    0.0835: real time    0.0835
       DOS:  cpu time    0.0008: real time    0.0008
    CHARGE:  cpu time    0.0070: real time    0.0070
    MIXING:  cpu time    0.0002: real time    0.0002
    --------------------------------------------
      LOOP:  cpu time    0.0998: real time    0.0998

 eigenvalue-minimisations  :   678
 total energy-change (2. order) : 0.8968213E-02  (-0.1732942E-02)
 number of electron      44.0004528 magnetization 
 augmentation part       28.0029229 magnetization 

 Broyden mixing:
  rms(total) = 0.68904E-02    rms(broyden)= 0.68644E-02
  rms(prec ) = 0.15324E-01
  weight for this iteration     100.00

 eigenvalues of (default mixing * dielectric matrix)
  average eigenvalue GAMMA=   1.4209
  2.5246  0.6724  0.9065  1.5802

 Free energy of the ion-electron system (eV)
  ---------------------------------------------------
  alpha Z        PSCENC =       243.62337785
  Ewald energy   TEWEN  =     -4395.34838493
  -Hartree energ DENC   =     -1369.70034290
  -exchange      EXHF   =         0.00000000
  -V(xc)+E(xc)   XCENC  =       178.48735279
  PAW double counting   =      5290.83269575    -5716.08224910
  entropy T*S    EENTRO =        -0.02414897
  eigenvalues    EBANDS =       191.99008894
  atomic energy  EATOM  =      5562.25782034
  Solvation  Ediel_sol  =         0.00000000
  ---------------------------------------------------
  free energy    TOTEN  =       -13.96379025 eV

  energy without entropy =      -13.93964128  energy(sigma->0) =      -13.95574059


--------------------------------------------------------------------------------------------------------




--------------------------------------- Iteration      1(  10)  ---------------------------------------


    POTLOK:  cpu time    0.0047: real time    0.0047
    SETDIJ:  cpu time    0.0035: real time    0.0035
     EDDAV:  cpu time    0.0904: real time    0.0904
       DOS:  cpu time    0.0008: real time    0.0008
    CHARGE:  cpu time    0.0069: real time    0.0069
    MIXING:  cpu time    0.0002: real time    0.0002
    --------------------------------------------
      LOOP:  cpu time    0.1065: real time    0.1065

 eigenvalue-minimisations  :   728
 total energy-change (2. order) : 0.4139633E-05  (-0.6347122E-04)
 number of electron      44.0004526 magnetization 
 augmentation part       27.9937105 magnetization 

 Broyden mixing:
  rms(total) = 0.11614E-02    rms(broyden)= 0.11606E-02
  rms(prec ) = 0.17364E-02
  weight for this iteration     100.00

 eigenvalues of (default mixing * dielectric matrix)
  average eigenvalue GAMMA=   1.5072
  2.5222  2.5222  0.6720  0.9097  0.9097

 Free energy of the ion-electron system (eV)
  ---------------------------------------------------
  alpha Z        PSCENC =       243.62337785
  Ewald energy   TEWEN  =     -4395.34838493
  -Hartree energ DENC   =     -1370.16935396
  -exchange      EXHF   =         0.00000000
  -V(xc)+E(xc)   XCENC  =       178.50997317
  PAW double counting   =      5286.99469350    -5712.16758017
  entropy T*S    EENTRO =        -0.02458825
  eigenvalues    EBANDS =       192.36025635
  atomic energy  EATOM  =      5562.25782034
  Solvation  Ediel_sol  =         0.00000000
  ---------------------------------------------------
  free energy    TOTEN  =       -13.96378611 eV

  energy without entropy =      -13.93919786  energy(sigma->0) =      -13.95559003


--------------------------------------------------------------------------------------------------------




--------------------------------------- Iteration      1(  11)  ---------------------------------------


    POTLOK:  cpu time    0.0047: real time    0.0047
    SETDIJ:  cpu time    0.0036: real time    0.0036
     EDDAV:  cpu time    0.0836: real time    0.0836
       DOS:  cpu time    0.0008: real time    0.0008
    CHARGE:  cpu time    0.0070: real time    0.0070
    MIXING:  cpu time    0.0002: real time    0.0002
    --------------------------------------------
      LOOP:  cpu time    0.1000: real time    0.1000

 eigenvalue-minimisations  :   670
 total energy-change (2. order) : 0.4904359E-07  (-0.1138568E-05)
 number of electron      44.0004527 magnetization 
 augmentation part       27.9944357 magnetization 

 Broyden mixing:
  rms(total) = 0.33641E-03    rms(broyden)= 0.33614E-03
  rms(prec ) = 0.79577E-03
  weight for this iteration     100.00

 eigenvalues of (default mixing * dielectric matrix)
  average eigenvalue GAMMA=   1.4867
  2.6237  2.5192  0.6723  0.9246  0.9776  1.2027

 Free energy of the ion-electron system (eV)
  ---------------------------------------------------
  alpha Z        PSCENC =       243.62337785
  Ewald energy   TEWEN  =     -4395.34838493
  -Hartree energ DENC   =     -1370.21946449
  -exchange      EXHF   =         0.00000000
  -V(xc)+E(xc)   XCENC  =       178.51197372
  PAW double counting   =      5284.84771073    -5709.94775295
  entropy T*S    EENTRO =        -0.02455114
  eigenvalues    EBANDS =       192.33548483
  atomic energy  EATOM  =      5562.25782034
  Solvation  Ediel_sol  =         0.00000000
  ---------------------------------------------------
  free energy    TOTEN  =       -13.96378606 eV

  energy without entropy =      -13.93923491  energy(sigma->0) =      -13.95560234


--------------------------------------------------------------------------------------------------------




--------------------------------------- Iteration      1(  12)  ---------------------------------------


    POTLOK:  cpu time    0.0047: real time    0.0047
    SETDIJ:  cpu time    0.0036: real time    0.0036
     EDDAV:  cpu time    0.0571: real time    0.0571
       DOS:  cpu time    0.0008: real time    0.0008
    CHARGE:  cpu time    0.0069: real time    0.0069
    MIXING:  cpu time    0.0003: real time    0.0003
    --------------------------------------------
      LOOP:  cpu time    0.0733: real time    0.0733

 eigenvalue-minimisations  :   382
 total energy-change (2. order) :-0.2003276E-05  (-0.4356260E-07)
 number of electron      44.0004527 magnetization 
 augmentation part       27.9946974 magnetization 

 Broyden mixing:
  rms(total) = 0.38122E-04    rms(broyden)= 0.37780E-04
  rms(prec ) = 0.82681E-04
  weight for this iteration     100.00

 eigenvalues of (default mixing * dielectric matrix)
  average eigenvalue GAMMA=   1.5821
  2.7226  2.3996  2.3996  0.6723  0.9709  0.9709  0.9385

 Free energy of the ion-electron system (eV)
  ---------------------------------------------------
  alpha Z        PSCENC =       243.62337785
  Ewald energy   TEWEN  =     -4395.34838493
  -Hartree energ DENC   =     -1370.17481421
  -exchange      EXHF   =         0.00000000
  -V(xc)+E(xc)   XCENC  =       178.50986578
  PAW double counting   =      5285.43484188    -5710.56480004
  entropy T*S    EENTRO =        -0.02453498
  eigenvalues    EBANDS =       192.32284025
  atomic energy  EATOM  =      5562.25782034
  Solvation  Ediel_sol  =         0.00000000
  ---------------------------------------------------
  free energy    TOTEN  =       -13.96378806 eV

  energy without entropy =      -13.93925309  energy(sigma->0) =      -13.95560974


--------------------------------------------------------------------------------------------------------




--------------------------------------- Iteration      1(  13)  ---------------------------------------


    POTLOK:  cpu time    0.0047: real time    0.0047
    SETDIJ:  cpu time    0.0035: real time    0.0035
     EDDAV:  cpu time    0.0539: real time    0.0539
       DOS:  cpu time    0.0008: real time    0.0008
    --------------------------------------------
      LOOP:  cpu time    0.0629: real time    0.0629

 eigenvalue-minimisations  :   342
 total energy-change (2. order) :-0.2916058E-06  (-0.8380814E-08)
 number of electron      44.0004527 magnetization 
 augmentation part       27.9946974 magnetization 

 Free energy of the ion-electron system (eV)
  ---------------------------------------------------
  alpha Z        PSCENC =       243.62337785
  Ewald energy   TEWEN  =     -4395.34838493
  -Hartree energ DENC   =     -1370.17434651
  -exchange      EXHF   =         0.00000000
  -V(xc)+E(xc)   XCENC  =       178.50980897
  PAW double counting   =      5285.42388446    -5710.55476371
  entropy T*S    EENTRO =        -0.02453539
  eigenvalues    EBANDS =       192.32335057
  atomic energy  EATOM  =      5562.25782034
  Solvation  Ediel_sol  =         0.00000000
  ---------------------------------------------------
  free energy    TOTEN  =       -13.96378835 eV

  energy without entropy =      -13.93925297  energy(sigma->0) =      -13.95560989


--------------------------------------------------------------------------------------------------------




 average (electrostatic) potential at core
  the test charge radii are     0.9430
  (the norm of the test charge is              1.0000)
       1 -63.9539       2 -63.9539       3 -63.9539       4 -63.9539
 
 
 
 E-fermi :   7.2039     XC(G=0): -12.5920     alpha+bet :-13.2037

 Fermi energy:         7.2038920259

 k-point     1 :       0.0000    0.0000    0.0000
  band No.  band energies     occupation 
      1      -1.8225      2.00000
      2       2.5553      2.00000
      3       2.5553      2.00000
      4       2.5553      2.00000
      5       3.0315      2.00000
      6       3.0315      2.00000
      7       3.0315      2.00000
      8       4.3424      2.00000
      9       4.3424      2.00000
     10       4.3424      2.00000
     11       5.1188      2.00000
     12       5.1188      2.00000
     13       5.6406      2.00000
     14       5.6406      2.00000
     15       5.6406      2.00000
     16       5.8171      2.00000
     17       5.8171      2.00000
     18       5.8171      2.00000
     19       5.8171      2.00000
     20       5.8171      2.00000
     21       5.8171      2.00000
     22       8.9193     -0.00000
     23       8.9193     -0.00000
     24       8.9193     -0.00000
     25      14.3411      0.00000
     26      14.3411      0.00000
     27      14.3411      0.00000
     28      20.3592      0.00000
     29      20.3592      0.00000
     30      20.3592      0.00000

 k-point     2 :       0.2000    0.0000    0.0000
  band No.  band energies     occupation 
      1      -1.3457      2.00000
      2       2.5417      2.00000
      3       2.7774      2.00000
      4       2.7774      2.00000
      5       3.1711      2.00000
      6       3.1711      2.00000
      7       3.2380      2.00000
      8       4.2138      2.00000
      9       4.4732      2.00000
     10       4.4732      2.00000
     11       5.0425      2.00000
     12       5.1707      2.00000
     13       5.1857      2.00000
     14       5.1857      2.00000
     15       5.5112      2.00000
     16       5.5112      2.00000
     17       5.6246      2.00000
     18       5.6569      2.00000
     19       5.6569      2.00000
     20       5.8063      2.00000
     21       5.8063      2.00000
     22       6.8314      2.02428
     23       9.9768     -0.00000
     24       9.9768     -0.00000
     25      14.5306      0.00000
     26      14.5306      0.00000
     27      17.4069      0.00000
     28      18.0982      0.00000
     29      18.0982      0.00000
     30      18.7642      0.00000

 k-point     3 :       0.4000    0.0000    0.0000
  band No.  band energies     occupation 
      1       0.0102      2.00000
      2       1.7961      2.00000
      3       3.1915      2.00000
      4       3.1915      2.00000
      5       3.4832      2.00000
      6       3.5577      2.00000
      7       3.5577      2.00000
      8       3.8828      2.00000
      9       4.2638      2.00000
     10       4.2638      2.00000
     11       4.7894      2.00000
     12       4.8385      2.00000
     13       4.8385      2.00000
     14       4.9630      2.00000
     15       5.1816      2.00000
     16       5.1816      2.00000
     17       5.2496      2.00000
     18       5.2496      2.00000
     19       5.3438      2.00000
     20       5.4937      2.00000
     21       5.8024      2.00000
     22       5.8024      2.00000
     23      12.1903     -0.00000
     24      12.1903     -0.00000
     25      14.9649      0.00000
     26      14.9649      0.00000
     27      15.1778      0.00000
     28      15.1778      0.00000
     29      16.6337      0.00000
     30      16.6337      0.00000

 k-point     4 :       0.2000    0.2000    0.0000
  band No.  band energies     occupation 
      1      -0.8808      2.00000
      2       2.7747      2.00000
      3       2.7747      2.00000
      4       2.9675      2.00000
      5       3.2755      2.00000
      6       3.3029      2.00000
      7       3.3029      2.00000
      8       4.1948      2.00000
      9       4.5161      2.00000
     10       4.5230      2.00000
     11       4.8802      2.00000
     12       4.8882      2.00000
     13       4.8882      2.00000
     14       5.0324      2.00000
     15       5.2297      2.00000
     16       5.3985      2.00000
     17       5.5080      2.00000
     18       5.5080      2.00000
     19       5.6368      2.00000
     20       5.6368      2.00000
     21       5.7086      2.00000
     22       7.8252     -0.00010
     23       7.8252     -0.00010
     24      10.8345     -0.00000
     25      14.4962      0.00000
     26      14.9852      0.00000
     27      17.7402      0.00000
     28      17.7402      0.00000
     29      18.6834      0.00000
     30      18.6834      0.00000

 k-point     5 :       0.4000    0.2000    0.0000
  band No.  band energies     occupation 
      1       0.4306      2.00000
      2       2.1130      2.00000
      3       3.2822      2.00000
      4       3.3882      2.00000
      5       3.5354      2.00000
      6       3.6134      2.00000
      7       3.6176      2.00000
      8       3.9489      2.00000
      9       4.0311      2.00000
     10       4.2110      2.00000
     11       4.4865      2.00000
     12       4.5414      2.00000
     13       4.8501      2.00000
     14       4.9701      2.00000
     15       5.1481      2.00000
     16       5.1844      2.00000
     17       5.2414      2.00000
     18       5.2990      2.00000
     19       5.4703      2.00000
     20       5.6228      2.00000
     21       5.6397      2.00000
     22       6.0012      2.00000
     23       9.5229     -0.00000
     24      11.7361     -0.00000
     25      12.8662      0.00000
     26      15.5421      0.00000
     27      15.5580      0.00000
     28      17.0231      0.00000
     29      18.8369      0.00000
     30      20.2864      0.00000

 k-point     6 :       0.4000    0.4000    0.0000
  band No.  band energies     occupation 
      1       1.5669      2.00000
      2       2.8619      2.00000
      3       2.8619      2.00000
      4       3.3614      2.00000
      5       3.7544      2.00000
      6       3.7923      2.00000
      7       3.7923      2.00000
      8       3.9504      2.00000
      9       4.0317      2.00000
     10       4.0500      2.00000
     11       4.0500      2.00000
     12       4.3858      2.00000
     13       4.8583      2.00000
     14       4.9201      2.00000
     15       4.9786      2.00000
     16       5.0334      2.00000
     17       5.0334      2.00000
     18       5.2641      2.00000
     19       5.2641      2.00000
     20       5.3880      2.00000
     21       5.9928      2.00000
     22       7.0883      1.81995
     23       7.0883      1.81995
     24       8.8675     -0.00000
     25      14.6441      0.00000
     26      16.5104      0.00000
     27      17.1817      0.00000
     28      17.1817      0.00000
     29      18.2860      0.00000
     30      18.2860      0.00000

 k-point     7 :       0.2000    0.2000    0.2000
  band No.  band energies     occupation 
      1      -0.4342      2.00000
      2       2.9607      2.00000
      3       2.9607      2.00000
      4       2.9607      2.00000
      5       3.3792      2.00000
      6       3.3792      2.00000
      7       3.3792      2.00000
      8       4.1669      2.00000
      9       4.5200      2.00000
     10       4.5200      2.00000
     11       4.6470      2.00000
     12       4.6470      2.00000
     13       4.6470      2.00000
     14       5.1723      2.00000
     15       5.1723      2.00000
     16       5.2037      2.00000
     17       5.2037      2.00000
     18       5.2037      2.00000
     19       5.7440      2.00000
     20       5.7440      2.00000
     21       5.7440      2.00000
     22       8.4536     -0.00000
     23       8.4536     -0.00000
     24       8.4536     -0.00000
     25      15.2970      0.00000
     26      15.2970      0.00000
     27      15.2970      0.00000
     28      18.1108      0.00000
     29      18.1108      0.00000
     30      18.1108      0.00000

 k-point     8 :       0.4000    0.2000    0.2000
  band No.  band energies     occupation 
      1       0.8069      2.00000
      2       2.3395      2.00000
      3       3.2776      2.00000
      4       3.2776      2.00000
      5       3.6074      2.00000
      6       3.6074      2.00000
      7       3.7055      2.00000
      8       3.9882      2.00000
      9       4.2159      2.00000
     10       4.2159      2.00000
     11       4.4218      2.00000
     12       4.4823      2.00000
     13       4.5919      2.00000
     14       4.8976      2.00000
     15       4.9901      2.00000
     16       4.9901      2.00000
     17       5.2609      2.00000
     18       5.4269      2.00000
     19       5.6547      2.00000
     20       5.6547      2.00000
     21       5.6711      2.00000
     22       6.2061      2.00000
     23       9.8213     -0.00000
     24       9.8213     -0.00000
     25      12.4861     -0.00000
     26      12.4861     -0.00000
     27      16.8286      0.00000
     28      19.1359      0.00000
     29      19.2151      0.00000
     30      19.2151      0.00000

 k-point     9 :       0.4000    0.4000    0.2000
  band No.  band energies     occupation 
      1       1.7623      2.00000
      2       2.7214      2.00000
      3       2.7214      2.00000
      4       3.0218      2.00000
      5       3.9385      2.00000
      6       4.0485      2.00000
      7       4.0485      2.00000
      8       4.1973      2.00000
      9       4.2686      2.00000
     10       4.2686      2.00000
     11       4.3944      2.00000
     12       4.3999      2.00000
     13       4.5553      2.00000
     14       4.7240      2.00000
     15       4.7503      2.00000
     16       4.7503      2.00000
     17       5.3037      2.00000
     18       5.5603      2.00000
     19       5.5603      2.00000
     20       5.5734      2.00000
     21       5.8754      2.00000
     22       7.1347      1.54828
     23       7.1347      1.54828
     24       8.8052     -0.00000
     25      11.9127     -0.00000
     26      13.8920      0.00000
     27      13.8920      0.00000
     28      16.1211      0.00000
     29      20.4253      0.00000
     30      22.4106      0.00000

 k-point    10 :       0.4000    0.4000    0.4000
  band No.  band energies     occupation 
      1       2.1409      2.00000
      2       2.5457      2.00000
      3       2.5457      2.00000
      4       2.5457      2.00000
      5       4.2472      2.00000
      6       4.2472      2.00000
      7       4.2472      2.00000
      8       4.4173      2.00000
      9       4.4173      2.00000
     10       4.4897      2.00000
     11       4.4897      2.00000
     12       4.4897      2.00000
     13       4.9324      2.00000
     14       4.9324      2.00000
     15       4.9324      2.00000
     16       5.1746      2.00000
     17       5.6165      2.00000
     18       5.6165      2.00000
     19       5.7022      2.00000
     20       5.7022      2.00000
     21       5.7022      2.00000
     22       7.2670      0.49420
     23       7.2670      0.49420
     24       7.2670      0.49420
     25      11.4512     -0.00000
     26      11.4512     -0.00000
     27      11.4512     -0.00000
     28      13.2252      0.00000
     29      25.6926      0.00000
     30      25.6926      0.00000


--------------------------------------------------------------------------------------------------------


 soft charge-density along one line, spin component           1
         0         1         2         3         4         5         6         7         8         9
x    16.0058    0.0000    0.0000    0.0000    0.8052    0.0000    0.0000   -0.0000   -0.4493   -0.0000
x    -0.0000   -0.0000    0.0680   -0.0000    0.0000    0.0000
y    16.0058    0.0000    0.0000    0.0000    0.8052    0.0000    0.0000   -0.0000   -0.4493   -0.0000
y    -0.0000   -0.0000    0.0680   -0.0000    0.0000    0.0000
z    16.0058    0.0000    0.0000    0.0000    0.8052    0.0000    0.0000   -0.0000   -0.4493   -0.0000
z    -0.0000   -0.0000    0.0680   -0.0000    0.0000    0.0000
 total charge-density along one line
x    44.0005    0.0000    0.0000    0.0000   18.8810    0.0000    0.0000    0.0000    3.5329   -0.0000
x     0.0000    0.0000    0.0070    0.0000   -0.0000    0.0000    0.0233    0.0000   -0.0000   -0.0000
x    -0.0077   -0.0000   -0.0000   -0.0000    0.0038    0.0000   -0.0000   -0.0000   -0.0028    0.0000
y    44.0005    0.0000    0.0000    0.0000   18.8810    0.0000   -0.0000    0.0000    3.5329   -0.0000
y    -0.0000    0.0000    0.0070   -0.0000    0.0000   -0.0000    0.0233   -0.0000   -0.0000    0.0000
y    -0.0077    0.0000    0.0000   -0.0000    0.0038    0.0000   -0.0000   -0.0000   -0.0028    0.0000
z    44.0005    0.0000   -0.0000    0.0000   18.8810    0.0000   -0.0000    0.0000    3.5329   -0.0000
z     0.0000    0.0000    0.0070   -0.0000   -0.0000   -0.0000    0.0233    0.0000   -0.0000   -0.0000
z    -0.0077   -0.0000    0.0000    0.0000    0.0038   -0.0000    0.0000    0.0000   -0.0028    0.0000
 
 pseudopotential strength for first ion, spin component:           1
 -3.130  -0.000  -0.000   0.000   0.000  -4.539   0.000  -0.000
 -0.000  -3.130  -0.000  -0.000  -0.000   0.000  -4.539   0.000
 -0.000  -0.000  -3.116   0.000  -0.000  -0.000   0.000  -4.549
  0.000  -0.000   0.000  -3.130  -0.000  -0.000   0.000  -0.000
  0.000  -0.000  -0.000  -0.000  -3.116  -0.000   0.000   0.000
 -4.539   0.000  -0.000  -0.000  -0.000  10.146  -0.000   0.000
  0.000  -4.539   0.000   0.000   0.000  -0.000  10.146   0.000
 -0.000   0.000  -4.549  -0.000   0.000   0.000   0.000  10.154
 -0.000   0.000  -0.000  -4.539   0.000   0.000  -0.000   0.000
 -0.000   0.000   0.000   0.000  -4.549   0.000  -0.000  -0.000
  0.000  -0.000   0.000   0.000  -0.000   0.000  -0.000  -0.000
  0.000  -0.000   0.000   0.000  -0.000   0.000  -0.000  -0.000
  0.000  -0.000  -0.000   0.000  -0.000  -0.000  -0.000   0.000
  0.000   0.000  -0.000   0.000   0.000   0.000   0.000   0.000
  0.000   0.000  -0.000  -0.000   0.000  -0.000   0.000   0.000
  0.000  -0.000  -0.000  -0.000  -0.000   0.000  -0.000   0.000
 -0.000   0.000  -0.000   0.000  -0.000   0.000   0.000   0.000
  0.000  -0.000  -0.000  -0.000   0.000  -0.000   0.000  -0.000
 total augmentation occupancy for first ion, spin component:           1
  1.949   0.000   0.000   0.000  -0.000   0.014  -0.000  -0.000  -0.000  -0.000  -0.000  -0.000   0.000   0.000   0.000   0.000
 -0.000   1.949   0.000  -0.000   0.000   0.000   0.014  -0.000   0.000  -0.000  -0.000   0.000   0.000  -0.000   0.000  -0.000
  0.000  -0.000   1.967  -0.000  -0.000   0.000  -0.000  -0.004   0.000   0.000   0.000   0.000   0.000   0.000  -0.000   0.000
 -0.000  -0.000   0.000   1.949   0.000   0.000  -0.000  -0.000   0.014  -0.000  -0.000  -0.000  -0.000  -0.000  -0.000   0.000
 -0.000   0.000   0.000   0.000   1.967   0.000  -0.000   0.000   0.000  -0.004   0.000   0.000   0.000  -0.000  -0.000  -0.000
  0.014   0.000   0.000   0.000   0.000   0.017  -0.000  -0.000  -0.000   0.000   0.000   0.000  -0.000  -0.000   0.000   0.000
 -0.000   0.014  -0.000  -0.000  -0.000  -0.000   0.017   0.000  -0.000   0.000   0.000   0.000   0.000   0.000   0.000   0.000
 -0.000  -0.000  -0.004  -0.000   0.000  -0.000   0.000   0.015   0.000   0.000   0.000  -0.000  -0.000   0.000  -0.000  -0.000
 -0.000   0.000  -0.000   0.014   0.000  -0.000  -0.000   0.000   0.017  -0.000  -0.000   0.000  -0.000  -0.000  -0.000  -0.000
 -0.000  -0.000   0.000  -0.000  -0.004   0.000  -0.000  -0.000   0.000   0.015   0.000  -0.000   0.000  -0.000  -0.000   0.000
 -0.000  -0.000  -0.000   0.000  -0.000   0.000   0.000   0.000   0.000  -0.000   1.730  -0.156   0.000   0.000   0.000   0.000
  0.000   0.000   0.000   0.000  -0.000   0.000   0.000  -0.000   0.000  -0.000  -0.156   0.020   0.000   0.000   0.000   0.000
  0.000   0.000   0.000  -0.000   0.000  -0.000   0.000   0.000  -0.000   0.000   0.000   0.000   0.214  -0.000   0.000  -0.011
  0.000  -0.000  -0.000  -0.000   0.000  -0.000   0.000  -0.000  -0.000  -0.000   0.000   0.000  -0.000   0.214   0.000   0.000
  0.000   0.000  -0.000  -0.000  -0.000   0.000   0.000  -0.000  -0.000  -0.000   0.000   0.000   0.000   0.000   0.214  -0.000
 -0.000   0.000   0.000  -0.000   0.000   0.000   0.000   0.000  -0.000   0.000   0.000   0.000  -0.011  -0.000  -0.000   0.002
  0.000  -0.000   0.000  -0.000   0.000  -0.000   0.000  -0.000  -0.000   0.000   0.000   0.000   0.000  -0.011   0.000  -0.000
  0.000   0.000  -0.000   0.000   0.000   0.000   0.000   0.000   0.000   0.000   0.000   0.000   0.000  -0.000  -0.011  -0.000


------------------------ aborting loop because EDIFF is reached ----------------------------------------


    CHARGE:  cpu time    0.0069: real time    0.0069
    FORLOC:  cpu time    0.0004: real time    0.0004
    FORNL :  cpu time    0.0286: real time    0.0286
    STRESS:  cpu time    0.0381: real time    0.0381
    FORCOR:  cpu time    0.0050: real time    0.0050
    FORHAR:  cpu time    0.0011: real time    0.0011
    MIXING:  cpu time    0.0003: real time    0.0003

  FORCE on cell =-STRESS in cart. coord.  units (eV):
  Direction    XX          YY          ZZ          XY          YZ          ZX
  --------------------------------------------------------------------------------------
  Alpha Z   243.62338   243.62338   243.62338
  Ewald   -1465.11677 -1465.11677 -1465.11677     0.00000     0.00000     0.00000
  Hartree   456.72630   456.72631   456.72631    -0.00000    -0.00000    -0.00000
  E(xc)    -257.47375  -257.47375  -257.47375     0.00000    -0.00000    -0.00000
  Local     365.09117   365.09117   365.09117     0.00000     0.00000    -0.00000
  n-local  -105.64220  -111.20547  -113.10259    -0.06624     1.70226     0.94113
  augment   378.89683   378.89683   378.89683     0.00000     0.00000    -0.00000
  Kinetic   376.81902   369.95870   363.43919    -3.94788    -0.22105    -0.79055
  Fock        0.00000     0.00000     0.00000     0.00000     0.00000     0.00000
  -------------------------------------------------------------------------------------
  Total     -18.16396   -18.16396   -18.16396     0.00000     0.00000     0.00000
  in kB    -605.90978  -605.90978  -605.90978     0.00000     0.00000     0.00000
  external pressure =     -605.91 kB  Pullay stress =        0.00 kB


 VOLUME and BASIS-vectors are now :
 -----------------------------------------------------------------------------
  energy-cutoff  :      240.00
  volume of cell :       48.03
      direct lattice vectors                 reciprocal lattice vectors
     3.635000000  0.000000000  0.000000000     0.275103164  0.000000000  0.000000000
     0.000000000  3.635000000  0.000000000     0.000000000  0.275103164  0.000000000
     0.000000000  0.000000000  3.635000000     0.000000000  0.000000000  0.275103164

  length of vectors
     3.635000000  3.635000000  3.635000000     0.275103164  0.275103164  0.275103164


 FORCES acting on ions
    electron-ion (+dipol)            ewald-force                    non-local-force                 convergence-correction
 -----------------------------------------------------------------------------------------------
   -.116E-12 -.953E-14 -.360E-13   0.103E-13 0.597E-14 -.166E-13   0.200E-22 0.238E-23 -.136E-22   -.129E-12 -.115E-13 0.509E-13
   0.507E-12 0.700E-12 -.376E-13   0.175E-13 0.141E-13 -.168E-13   -.639E-23 0.936E-24 -.281E-25   -.118E-12 -.232E-13 0.501E-13
   0.523E-12 -.963E-14 0.643E-12   -.529E-14 -.138E-13 0.159E-13   0.482E-23 0.440E-24 -.664E-23   -.116E-12 -.111E-13 -.309E-14
   -.146E-12 0.685E-12 0.646E-12   -.204E-13 -.566E-14 0.157E-13   0.432E-23 0.401E-23 -.142E-22   -.128E-12 0.223E-14 -.111E-13
 -----------------------------------------------------------------------------------------------
   0.768E-12 0.137E-11 0.122E-11   0.207E-14 0.619E-15 -.180E-14   0.228E-22 0.777E-23 -.345E-22   -.490E-12 -.436E-13 0.868E-13
 
 
 POSITION                                       TOTAL-FORCE (eV/Angst)
 -----------------------------------------------------------------------------------
      0.00000      0.00000      0.00000         0.000000      0.000000      0.000000
      1.81750      1.81750      0.00000        -0.000000     -0.000000     -0.000000
      1.81750      0.00000      1.81750        -0.000000      0.000000     -0.000000
      0.00000      1.81750      1.81750        -0.000000     -0.000000     -0.000000
 -----------------------------------------------------------------------------------
    total drift:                                0.000000      0.000000      0.000000


--------------------------------------------------------------------------------------------------------



  FREE ENERGIE OF THE ION-ELECTRON SYSTEM (eV)
  ---------------------------------------------------
  free  energy   TOTEN  =       -13.96378835 eV

  energy  without entropy=      -13.93925297  energy(sigma->0) =      -13.95560989
 


--------------------------------------------------------------------------------------------------------


    POTLOK:  cpu time    0.0084: real time    0.0084


--------------------------------------------------------------------------------------------------------


 writing wavefunctions
     LOOP+:  cpu time    1.3246: real time    1.3465
    4ORBIT:  cpu time    0.0000: real time    0.0000

 total amount of memory used by VASP MPI-rank0    34378. kBytes
=======================================================================

   base      :      30000. kBytes
   nonl-proj :        657. kBytes
   grid      :       1216. kBytes
   one-center:         62. kBytes
   wavefun   :       2443. kBytes
 
  
  
 General timing and accounting informations for this job:
 ========================================================
  
                  Total CPU time used (sec):        1.438
                            User time (sec):        1.415
                          System time (sec):        0.023
                         Elapsed time (sec):        1.449
  
                   Maximum memory used (kb):       39648.
                   Average memory used (kb):          N/A
  
                          Minor page faults:         3411
                          Major page faults:            0
                 Voluntary context switches:           27
