unknown system                          
   1.00000000000000     
     2.385000    0.000000    0.000000
    -1.192500    2.065471    0.000000
     0.000000    0.000000    3.983000
   Fe
     2
Direct
  0.000000  0.000000  0.000000
  0.333333  0.666667  0.500000
 
   20   20   36
  164.81      155.78      131.56      99.284      66.857      40.202      22.169      12.667      9.2500      8.2688    
  7.9461      8.2693      9.2505      12.667      22.168      40.202      66.857      99.285      131.56      155.78    
  155.79      155.78      139.20      111.16      79.255      50.382      28.826      15.883      10.199      8.5464    
  7.9218      7.9210      8.5456      10.199      15.883      28.824      50.380      79.261      111.17      139.22    
  131.58      139.17      131.56      111.16      83.864      56.408      33.942      18.994      11.400      8.7972    
  7.9213      7.6212      7.9194      8.7968      11.401      18.993      33.936      56.403      83.869      111.17    
  99.279      111.07      111.07      99.285      79.255      56.407      35.861      20.909      12.434      9.0518    
  7.9390      7.4013      7.4008      7.9386      9.0529      12.436      20.908      35.856      56.398      79.245    
  66.838      79.133      83.704      79.148      66.857      50.381      33.941      20.909      12.843      9.2321    
  7.9613      7.2672      7.0390      7.2676      7.9616      9.2332      12.847      20.914      33.942      50.371    
  40.200      50.295      56.252      56.257      50.304      40.201      28.826      18.994      12.434      9.2319    
  7.9713      7.2067      6.8348      6.8354      7.2067      7.9693      9.2312      12.440      19.006      28.835    
  22.182      28.823      33.889      35.781      33.884      28.812      22.169      15.883      11.400      9.0514    
  7.9613      7.2067      6.7698      6.6328      6.7708      7.2052      7.9559      9.0463      11.401      15.893    
  12.666      15.934      19.057      20.960      20.954      19.044      15.925      12.667      10.199      8.7968    
  7.9390      7.2674      6.8346      6.6328      6.6339      6.8367      7.2670      7.9331      8.7861      10.189    
  9.2354      10.255      11.515      12.580      12.995      12.576      11.515      10.265      9.2502      8.5462    
  7.9210      7.4016      7.0390      6.8353      6.7711      6.8368      7.0434      7.4069      7.9207      8.5363    
  8.2687      8.6072      8.9201      9.2279      9.4390      9.4411      9.2347      8.9307      8.6160      8.2689    
  7.9216      7.6215      7.4010      7.2674      7.2068      7.2053      7.2665      7.4068      7.6331      7.9309    
  7.9598      8.0030      8.0609      8.1298      8.1914      8.2187      8.1968      8.1352      8.0599      7.9934    
  7.9461      7.9210      7.9197      7.9383      7.9613      7.9694      7.9556      7.9329      7.9213      7.9311    
  8.2682      8.0028      7.7758      7.6128      7.5209      7.4857      7.4870      7.5212      7.6067      7.7643    
  7.9940      8.2690      8.5456      8.7968      9.0525      9.2333      9.2315      9.0462      8.7865      8.5366    
  9.2350      8.6069      8.0614      7.6129      7.3042      7.1347      7.0825      7.1337      7.3000      7.6073    
  8.0611      8.6166      9.2502      10.199      11.401      12.436      12.847      12.440      11.401      10.189    
  12.667      10.255      8.9205      8.1300      7.5204      7.1347      6.9569      6.9560      7.1330      7.5211    
  8.1358      8.9306      10.264      12.667      15.883      18.993      20.908      20.914      19.006      15.893    
  22.183      15.934      11.515      9.2278      8.1911      7.4858      7.0828      6.9559      7.0813      7.4869    
  8.1968      9.2336      11.514      15.924      22.169      28.824      33.936      35.855      33.942      28.835    
  40.200      28.823      19.057      12.580      9.4392      8.2188      7.4872      7.1334      7.1328      7.4871    
  8.2206      9.4399      12.574      19.045      28.815      40.201      50.379      56.403      56.398      50.371    
  66.838      50.295      33.889      20.960      12.995      9.4411      8.1966      7.5211      7.2999      7.5214    
  8.1969      9.4397      12.990      20.955      33.889      50.306      66.857      79.261      83.870      79.246    
  99.278      79.132      56.253      35.782      20.954      12.575      9.2343      8.1354      7.6068      7.6073    
  8.1359      9.2333      12.574      20.955      35.787      56.262      79.142      99.286      111.17      111.17    
  131.58      111.07      83.704      56.258      33.883      19.044      11.515      8.9311      8.0602      7.7639    
  8.0609      8.9307      11.514      19.045      33.889      56.262      83.698      111.06      131.56      139.22    
  155.79      139.17      111.07      79.148      50.304      28.812      15.925      10.265      8.6161      7.9930    
  7.9938      8.6170      10.264      15.924      28.815      50.307      79.142      111.06      139.15      155.78    
  156.94      148.36      125.34      94.598      63.686      38.295      21.193      12.272      9.1121      8.1674    
  7.8521      8.1680      9.1125      12.272      21.192      38.295      63.686      94.599      125.34      148.36    
  148.37      148.36      132.59      105.90      75.496      47.972      27.478      15.263      9.9733      8.4317    
  7.8208      7.8200      8.4308      9.9739      15.263      27.476      47.970      75.501      105.92      132.61    
  125.35      132.58      125.34      105.90      79.886      53.705      32.321      18.173      11.069      8.6653    
  7.8145      7.5225      7.8127      8.6649      11.071      18.173      32.316      53.701      79.891      105.92    
  94.593      105.84      105.84      94.600      75.496      53.705      34.140      19.971      12.019      8.8915    
  7.8278      7.3052      7.3047      7.8274      8.8926      12.021      19.970      34.135      53.696      75.487    
  63.668      75.401      79.763      75.416      63.686      47.971      32.321      19.971      12.396      9.0512    
  7.8472      7.1729      6.9522      7.1733      7.8475      9.0521      12.400      19.976      32.321      47.961    
  38.293      47.917      53.601      53.605      47.925      38.295      27.478      18.174      12.019      9.0510    
  7.8562      7.1131      6.7538      6.7543      7.1132      7.8543      9.0503      12.025      18.185      27.486    
  21.205      27.503      32.321      34.122      32.315      27.492      21.192      15.263      11.070      8.8912    
  7.8472      7.1132      6.6907      6.5586      6.6916      7.1118      7.8422      8.8864      11.071      15.272    
  12.272      15.337      18.282      20.081      20.076      18.270      15.328      12.273      9.9735      8.6648    
  7.8278      7.1730      6.7536      6.5585      6.5596      6.7555      7.1727      7.8223      8.6549      9.9647    
  9.0984      10.049      11.223      12.217      12.606      12.214      11.223      10.058      9.1122      8.4314    
  7.8143      7.3056      6.9522      6.7542      6.6920      6.7556      6.9562      7.3104      7.8140      8.4221    
  8.1674      8.5094      8.8210      9.1130      9.3104      9.3123      9.1193      8.8308      8.5176      8.1676    
  7.8206      7.5228      7.3050      7.1731      7.1134      7.1119      7.1723      7.3103      7.5337      7.8293    
  7.8649      7.9164      7.9831      8.0592      8.1251      8.1537      8.1301      8.0642      7.9821      7.9075    
  7.8521      7.8200      7.8130      7.8271      7.8472      7.8544      7.8419      7.8221      7.8145      7.8295    
  8.1668      7.9163      7.7041      7.5537      7.4704      7.4394      7.4406      7.4707      7.5480      7.6934    
  7.9081      8.1676      8.4308      8.6648      8.8922      9.0523      9.0506      8.8864      8.6553      8.4224    
  9.0980      8.5091      7.9836      7.5538      7.2594      7.0986      7.0492      7.0977      7.2556      7.5486    
  7.9833      8.5182      9.1123      9.9742      11.071      12.021      12.400      12.025      11.071      9.9646    
  12.272      10.049      8.8213      8.0593      7.4700      7.0986      6.9279      6.9270      7.0971      7.4707    
  8.0647      8.8308      10.058      12.273      15.263      18.173      19.970      19.976      18.184      15.272    
  21.206      15.337      11.222      9.1129      8.1248      7.4395      7.0495      6.9269      7.0480      7.4404    
  8.1301      9.1183      11.221      15.328      21.192      27.476      32.315      34.135      32.321      27.486    
  38.294      27.503      18.281      12.217      9.3106      8.1538      7.4408      7.0975      7.0969      7.4406    
  8.1555      9.3112      12.212      18.271      27.495      38.295      47.970      53.701      53.696      47.962    
  63.668      47.916      32.320      20.082      12.606      9.3123      8.1299      7.4706      7.2555      7.4710    
  8.1302      9.3110      12.602      20.076      32.320      47.927      63.686      75.502      79.891      75.487    
  94.593      75.401      53.601      34.123      20.076      12.213      9.1189      8.0643      7.5482      7.5486    
  8.0648      9.1180      12.212      20.076      34.127      53.609      75.410      94.600      105.92      105.92    
  125.35      105.84      79.763      53.606      32.315      18.269      11.222      8.8312      7.9824      7.6930    
  7.9831      8.8308      11.221      18.271      32.321      53.609      79.758      105.82      125.34      132.61    
  148.37      132.58      105.84      75.415      47.925      27.492      15.328      10.059      8.5177      7.9071    
  7.9078      8.5186      10.058      15.328      27.495      47.927      75.410      105.82      132.56      148.36    
  135.56      128.19      108.36      81.792      55.022      33.118      18.584      11.247      8.7498      7.8896    
  7.5963      7.8901      8.7501      11.246      18.584      33.118      55.022      81.792      108.36      128.19    
  128.19      128.19      114.61      91.553      65.218      41.405      23.844      13.628      9.3916      8.1136    
  7.5441      7.5435      8.1128      9.3922      13.629      23.842      41.403      65.222      91.566      114.62    
  108.37      114.61      108.36      91.553      69.009      46.330      27.934      15.991      10.212      8.3083    
  7.5202      7.2518      7.5186      8.3078      10.213      15.991      27.930      46.326      69.013      91.565    
  81.788      91.535      91.537      81.793      65.218      46.330      29.477      17.466      10.937      8.4686    
  7.5193      7.0404      7.0400      7.5189      8.4693      10.939      17.465      29.472      46.323      65.210    
  55.008      65.200      68.990      65.211      55.022      41.404      27.934      17.466      11.228      8.5772    
  7.5290      6.9116      6.7121      6.9121      7.5293      8.5778      11.231      17.470      27.934      41.396    
  33.117      41.435      46.365      46.369      41.441      33.118      23.844      15.992      10.937      8.5771    
  7.5345      6.8532      6.5287      6.5293      6.8534      7.5330      8.5765      10.942      16.001      23.851    
  18.594      23.945      28.076      29.628      28.072      23.937      18.584      13.628      10.212      8.4683    
  7.5291      6.8532      6.4706      6.3518      6.4715      6.8522      7.5251      8.4646      10.213      13.636    
  11.246      13.765      16.224      17.741      17.736      16.215      13.758      11.247      9.3918      8.3079    
  7.5193      6.9118      6.5286      6.3518      6.3526      6.5300      6.9115      7.5149      8.2999      9.3846    
  8.7386      9.5228      10.471      11.281      11.598      11.278      10.471      9.5302      8.7499      8.1134    
  7.5200      7.0407      6.7120      6.5292      6.4717      6.5301      6.7151      7.0446      7.5197      8.1058    
  7.8896      8.2399      8.5577      8.8192      8.9853      8.9868      8.8242      8.5655      8.2466      7.8897    
  7.5440      7.2521      7.0402      6.9118      6.8535      6.8523      6.9111      7.0445      7.2609      7.5510    
  7.6067      7.6820      7.7727      7.8685      7.9463      7.9783      7.9502      7.8724      7.7718      7.6747    
  7.5963      7.5435      7.5188      7.5186      7.5291      7.5332      7.5249      7.5147      7.5202      7.5512    
  7.8891      7.6818      7.5123      7.3979      7.3393      7.3201      7.3211      7.3396      7.3933      7.5036    
  7.6752      7.8897      8.1129      8.3078      8.4690      8.5780      8.5767      8.4645      8.3002      8.1061    
  8.7382      8.2397      7.7731      7.3980      7.1452      7.0093      6.9681      7.0087      7.1424      7.3938    
  7.7729      8.2471      8.7499      9.3924      10.213      10.939      11.231      10.942      10.213      9.3846    
  11.246      9.5228      8.5580      7.8686      7.3389      7.0093      6.8590      6.8584      7.0081      7.3395    
  7.8729      8.5656      9.5296      11.247      13.629      15.991      17.465      17.470      16.000      13.636    
  18.595      13.766      10.471      8.8191      7.9460      7.3201      6.9683      6.8583      6.9670      7.3208    
  7.9502      8.8235      10.470      13.758      18.584      23.842      27.930      29.472      27.934      23.851    
  33.117      23.945      16.224      11.281      8.9855      7.9784      7.3213      7.0085      7.0080      7.3209    
  7.9797      8.9860      11.276      16.215      23.938      33.118      41.403      46.326      46.323      41.396    
  55.008      41.434      28.076      17.741      11.599      8.9868      7.9501      7.3395      7.1423      7.3398    
  7.9504      8.9858      11.595      17.737      28.076      41.443      55.022      65.222      69.013      65.211    
  81.787      65.199      46.366      29.628      17.736      11.277      8.8238      7.8725      7.3935      7.3939    
  7.8730      8.8232      11.276      17.737      29.632      46.372      65.207      81.793      91.566      91.564    
  108.37      91.535      68.990      46.370      28.072      16.214      10.471      8.5659      7.7720      7.5033    
  7.7727      8.5656      10.470      16.215      28.076      46.373      68.986      91.523      108.36      114.62    
  128.19      114.61      91.537      65.211      41.441      23.937      13.758      9.5304      8.2467      7.6743    
  7.6750      8.2475      9.5298      13.758      23.938      41.443      65.207      91.523      114.59      128.18    
  106.22      100.47      84.954      64.094      43.089      26.099      15.172      9.9782      8.2672      7.5012    
  7.2435      7.5016      8.2675      9.9780      15.172      26.099      43.090      64.095      84.954      100.47    
  100.47      100.47      89.839      71.733      51.027      32.424      19.001      11.550      8.6706      7.6609    
  7.1592      7.1586      7.6602      8.6712      11.551      19.000      32.423      51.030      71.742      89.850    
  84.962      89.860      84.954      71.733      53.985      36.211      22.032      13.167      9.1519      7.8033    
  7.1057      6.8739      7.1044      7.8028      9.1530      13.167      22.029      36.208      53.987      71.741    
  64.092      71.781      71.783      64.095      51.027      36.211      23.184      14.196      9.5884      7.9060    
  7.0797      6.6676      6.6673      7.0792      7.9064      9.5891      14.196      23.181      36.206      51.022    
  43.080      51.114      54.108      51.122      43.089      32.423      22.032      14.196      9.7670      7.9624    
  7.0716      6.5403      6.3716      6.5408      7.0719      7.9626      9.7684      14.199      22.032      32.418    
  26.098      32.571      36.438      36.440      32.576      26.099      19.001      13.167      9.5884      7.9623    
  7.0707      6.4815      6.2071      6.2076      6.4819      7.0697      7.9618      9.5914      13.174      19.006    
  15.179      19.206      22.369      23.566      22.366      19.200      15.172      11.550      9.1520      7.9058    
  7.0717      6.4815      6.1549      6.0544      6.1556      6.4810      7.0691      7.9033      9.1530      11.556    
  9.9774      11.775      13.572      14.698      14.695      13.566      11.771      9.9783      8.6708      7.8029    
  7.0796      6.5404      6.2069      6.0544      6.0549      6.2078      6.5402      7.0767      7.7975      8.6658    
  8.2593      8.8803      9.5615      10.136      10.363      10.134      9.5615      8.8855      8.2673      7.6607    
  7.1055      6.6679      6.3716      6.2075      6.1559      6.2079      6.3734      6.6704      7.1053      7.6553    
  7.5012      7.8584      8.1897      8.4449      8.5871      8.5880      8.4481      8.1949      7.8630      7.5013    
  7.1591      6.8742      6.6674      6.5406      6.4820      6.4811      6.5399      6.6703      6.8803      7.1640    
  7.2508      7.3601      7.4836      7.6050      7.6979      7.7342      7.7005      7.6075      7.4828      7.3550    
  7.2436      7.1586      7.1046      7.0790      7.0717      7.0699      7.0689      7.0765      7.1057      7.1641    
  7.5008      7.3600      7.2536      7.1911      7.1676      7.1651      7.1659      7.1679      7.1880      7.2476    
  7.3555      7.5013      7.6603      7.8028      7.9061      7.9627      7.9620      7.9033      7.7978      7.6556    
  8.2590      7.8582      7.4839      7.1912      7.0000      6.9005      6.8711      6.9004      6.9983      7.1884    
  7.4837      7.8634      8.2673      8.6714      9.1529      9.5892      9.7688      9.5915      9.1528      8.6657    
  9.9776      8.8803      8.1900      7.6051      7.1673      6.9004      6.7808      6.7804      6.8998      7.1677    
  7.6080      8.1951      8.8849      9.9783      11.551      13.167      14.196      14.199      13.173      11.556    
  15.179      11.775      9.5613      8.4448      7.6977      7.1651      6.8714      6.7803      6.8702      7.1654    
  7.7005      8.4478      9.5606      11.770      15.172      19.000      22.029      23.181      22.032      19.006    
  26.099      19.206      13.572      10.136      8.5873      7.7343      7.1660      6.9002      6.8997      7.1655    
  7.7350      8.5877      10.133      13.566      19.201      26.099      32.423      36.208      36.206      32.418    
  43.079      32.570      22.369      14.698      10.363      8.5880      7.7004      7.1678      6.9982      7.1680    
  7.7006      8.5875      10.361      14.695      22.369      32.576      43.089      51.030      53.987      51.022    
  64.091      51.114      36.438      23.567      14.695      10.134      8.4478      7.6076      7.1881      7.1884    
  7.6081      8.4476      10.133      14.695      23.569      36.443      51.119      64.095      71.742      71.741    
  84.961      71.782      54.108      36.441      22.366      13.565      9.5613      8.1953      7.4830      7.2473    
  7.4836      8.1951      9.5606      13.566      22.369      36.443      54.105      71.774      84.954      89.849    
  100.47      89.861      71.783      51.122      32.575      19.200      11.771      8.8857      7.8631      7.3547    
  7.3553      7.8637      8.8851      11.770      19.201      32.577      51.119      71.773      89.850      100.47    
  75.427      71.340      60.304      45.478      30.684      19.032      11.947      8.8656      7.7302      7.0805    
  6.8683      7.0808      7.7304      8.8655      11.946      19.032      30.684      45.478      60.304      71.340    
  71.343      71.340      63.764      50.860      36.181      23.233      14.274      9.6727      7.9893      7.1600    
  6.7458      6.7453      7.1595      7.9898      9.6736      14.274      23.232      36.183      50.866      63.771    
  60.309      63.811      60.304      50.861      38.240      25.784      16.176      10.545      8.2059      7.2334    
  6.6540      6.4667      6.6530      7.2330      8.2068      10.545      16.174      25.782      38.241      50.865    
  45.477      50.976      50.977      45.479      36.181      25.784      16.909      11.120      8.3898      7.2863    
  6.5935      6.2614      6.2611      6.5932      7.2864      8.3901      11.119      16.907      25.781      36.178    
  30.679      36.373      38.507      36.378      30.684      23.232      16.176      11.120      8.4662      7.3130    
  6.5606      6.1306      5.9968      6.1310      6.5608      7.3128      8.4666      11.121      16.176      23.229    
  19.032      23.496      26.201      26.202      23.498      19.032      14.274      10.545      8.3899      7.3129    
  6.5504      6.0682      5.8488      5.8493      6.0687      6.5500      7.3125      8.3915      10.549      14.277    
  11.950      14.583      16.707      17.521      16.706      14.580      11.946      9.6730      8.2060      7.2861    
  6.5606      6.0682      5.8017      5.7202      5.8022      6.0681      6.5593      7.2849      8.2068      9.6761    
  8.8650      9.9880      11.126      11.850      11.849      11.122      9.9856      8.8657      7.9894      7.2332    
  6.5935      6.1307      5.8487      5.7202      5.7204      5.8491      6.1306      6.5919      7.2301      7.9865    
  7.7255      8.2829      8.7746      9.1530      9.2988      9.1517      8.7746      8.2861      7.7302      7.1598    
  6.6539      6.2616      5.9968      5.8492      5.8024      5.8492      5.9975      6.2629      6.6537      7.1567    
  7.0805      7.4363      7.7709      8.0322      8.1754      8.1758      8.0337      7.7737      7.4388      7.0806    
  6.7456      6.4669      6.2613      6.1309      6.0688      6.0681      6.1303      6.2628      6.4704      6.7485    
  6.8724      7.0182      7.1735      7.3179      7.4232      7.4627      7.4245      7.3191      7.1729      7.0152    
  6.8683      6.7453      6.6532      6.5930      6.5606      6.5501      6.5592      6.5918      6.6540      6.7486    
  7.0802      7.0181      6.9826      6.9761      6.9890      7.0035      7.0040      6.9893      6.9744      6.9792    
  7.0156      7.0806      7.1595      7.2330      7.2861      7.3129      7.3127      7.2849      7.2304      7.1569    
  7.7253      7.4361      7.1738      6.9761      6.8534      6.7934      6.7768      6.7937      6.8528      6.9747    
  7.1736      7.4391      7.7303      7.9899      8.2067      8.3902      8.4670      8.3916      8.2066      7.9865    
  8.8652      8.2830      7.7711      7.3180      6.9888      6.7934      6.7078      6.7076      6.7932      6.9891    
  7.3196      7.7738      8.2856      8.8657      9.6738      10.545      11.119      11.121      10.549      9.6760    
  11.951      9.9882      8.7744      8.0321      7.4231      7.0035      6.7770      6.7076      6.7761      7.0034    
  7.4245      8.0337      8.7739      9.9848      11.946      14.274      16.174      16.907      16.176      14.277    
  19.032      14.583      11.125      9.1529      8.1755      7.4628      7.0041      6.7936      6.7931      7.0035    
  7.4630      8.1758      9.1514      11.122      14.580      19.032      23.232      25.782      25.781      23.230    
  30.679      23.495      16.707      11.850      9.2991      8.1758      7.4244      6.9892      6.8527      6.9893    
  7.4246      8.1757      9.2981      11.849      16.707      23.499      30.684      36.183      38.241      36.179    
  45.476      36.373      26.201      17.522      11.849      9.1515      8.0335      7.3192      6.9745      6.9747    
  7.3196      8.0336      9.1513      11.849      17.523      26.204      36.376      45.479      50.866      50.865    
  60.308      50.976      38.507      26.203      16.706      11.122      8.7744      7.7739      7.1731      6.9790    
  7.1735      7.7739      8.7738      11.122      16.707      26.204      38.505      50.972      60.304      63.771    
  71.343      63.811      50.977      36.377      23.498      14.580      9.9857      8.2862      7.4389      7.0150    
  7.0154      7.4394      8.2857      9.9847      14.580      23.499      36.376      50.972      63.805      71.340    
  48.459      45.837      38.779      29.395      20.264      13.433      9.6326      8.0701      7.2082      6.6950    
  6.5316      6.6952      7.2084      8.0700      9.6323      13.433      20.265      29.395      38.779      45.837    
  45.838      45.836      40.970      32.737      23.542      15.740      10.718      8.3828      7.3583      6.6897    
  6.3702      6.3699      6.6894      7.3587      8.3836      10.718      15.740      23.543      32.740      40.973    
  38.781      41.034      38.779      32.738      24.783      17.178      11.652      8.7054      7.4645      6.6874    
  6.2372      6.0953      6.2365      6.6870      7.4651      8.7060      11.652      17.177      24.783      32.739    
  29.394      32.903      32.903      29.395      23.542      17.178      12.022      8.9267      7.5212      6.6836    
  6.1383      5.8861      5.8860      6.1380      6.6835      7.5212      8.9264      12.021      17.176      23.541    
  20.262      23.812      25.156      23.814      20.265      15.739      11.652      8.9268      7.5392      6.6800    
  6.0774      5.7471      5.6460      5.7475      6.0775      6.6797      7.5390      8.9271      11.652      15.738    
  13.433      16.090      17.737      17.738      16.091      13.433      10.718      8.7056      7.5213      6.6799    
  6.0568      5.6781      5.5089      5.5092      5.6786      6.0567      6.6797      7.5219      8.7074      10.719    
  9.6341      11.108      12.332      12.809      12.332      11.107      9.6325      8.3830      7.4646      6.6834    
  6.0774      5.6781      5.4645      5.3992      5.4648      5.6783      6.0770      6.6831      7.4651      8.3845    
  8.0696      8.7729      9.4278      9.8408      9.8401      9.4264      8.7721      8.0701      7.3585      6.6872    
  6.1382      5.7472      5.5088      5.3992      5.3993      5.5089      5.7471      6.1377      6.6860      7.3571    
  7.2061      7.7277      8.1734      8.4712      8.5763      8.4706      8.1734      7.7292      7.2083      6.6896    
  6.2371      5.8863      5.6460      5.5092      5.4650      5.5089      5.6461      5.8867      6.2369      6.6882    
  6.6950      7.0407      7.3666      7.6227      7.7638      7.7639      7.6231      7.3676      7.0417      6.6950    
  6.3701      6.0954      5.8861      5.7473      5.6787      5.6783      5.7469      5.8866      6.0969      6.3713    
  6.5334      6.7132      6.8954      7.0573      7.1711      7.2125      7.1715      7.0576      6.8950      6.7119    
  6.5316      6.3699      6.2366      6.1379      6.0774      6.0568      6.0769      6.1376      6.2372      6.3714    
  6.6948      6.7131      6.7472      6.7934      6.8396      6.8693      6.8695      6.8398      6.7927      6.7458    
  6.7121      6.6950      6.6894      6.6870      6.6833      6.6798      6.6798      6.6831      6.6861      6.6883    
  7.2059      7.0405      6.8956      6.7935      6.7371      6.7144      6.7096      6.7149      6.7372      6.7929    
  6.8955      7.0419      7.2083      7.3588      7.4650      7.5213      7.5393      7.5219      7.4649      7.3571    
  8.0697      7.7277      7.3668      7.0574      6.8395      6.7144      6.6614      6.6615      6.7145      6.8397    
  7.0580      7.3678      7.7288      8.0701      8.3837      8.7060      8.9265      8.9270      8.7071      8.3844    
  9.6344      8.7730      8.1733      7.6227      7.1710      6.8693      6.7097      6.6614      6.7092      6.8690    
  7.1715      7.6233      8.1729      8.7714      9.6325      10.718      11.652      12.021      11.652      10.719    
  13.433      11.108      9.4276      8.4711      7.7639      7.2125      6.8696      6.7148      6.7145      6.8690    
  7.2125      7.7641      8.4706      9.4261      11.106      13.433      15.739      17.177      17.177      15.739    
  20.262      16.089      12.332      9.8409      8.5765      7.7638      7.1714      6.8398      6.7371      6.8398    
  7.1715      7.7640      8.5763      9.8404      12.332      16.091      20.265      23.543      24.784      23.541    
  29.394      23.811      17.737      12.809      9.8402      8.4704      7.6230      7.0577      6.7928      6.7929    
  7.0580      7.6232      8.4705      9.8405      12.810      17.739      23.813      29.395      32.740      32.739    
  38.781      32.903      25.157      17.738      12.332      9.4262      8.1733      7.3678      6.8951      6.7456    
  6.8954      7.3678      8.1729      9.4261      12.332      17.739      25.156      32.901      38.779      40.972    
  45.838      41.035      32.903      23.813      16.091      11.107      8.7721      7.7293      7.0417      6.7117    
  6.7120      7.0421      7.7289      8.7713      11.106      16.091      23.813      32.901      41.032      45.836    
  28.405      26.933      23.013      17.937      13.241      10.011      8.3587      7.4376      6.7706      6.3930    
  6.2751      6.3931      6.7707      7.4375      8.3585      10.011      13.241      17.937      23.013      26.933    
  26.933      26.933      24.204      19.673      14.805      10.946      8.6926      7.5858      6.8075      6.3061    
  6.0742      6.0740      6.3058      6.8077      7.5864      8.6930      10.946      14.805      19.674      24.205    
  23.014      24.277      23.013      19.674      15.410      11.558      8.9909      7.6735      6.8290      6.2315    