unknown system                          
   1.00000000000000     
     2.385000    0.000000    0.000000
    -1.192500    2.065471    0.000000
     0.000000    0.000000    3.983000
   Fe
     2
Direct
  0.000000  0.000000  0.000000
  0.333333  0.666667  0.500000
 
   20   20   36
 0.16481102439E+03 0.15577667012E+03 0.13156477507E+03 0.99284335255E+02 0.66856839897E+02
 0.40201891685E+02 0.22168804936E+02 0.12667124938E+02 0.92500121049E+01 0.82687568910E+01
 0.79460620791E+01 0.82693494206E+01 0.92504518451E+01 0.12666873446E+02 0.22168193849E+02
 0.40201663830E+02 0.66857218676E+02 0.99284836982E+02 0.13156491933E+03 0.15577655568E+03
 0.15578583057E+03 0.15577609159E+03 0.13919521037E+03 0.11115570016E+03 0.79255122418E+02
 0.50382206398E+02 0.28826148559E+02 0.15882770541E+02 0.10198559260E+02 0.85464333145E+01
 0.79218168339E+01 0.79210286795E+01 0.85455572184E+01 0.10199213655E+02 0.15883127308E+02
 0.28823644447E+02 0.50379777473E+02 0.79260901965E+02 0.11117350944E+03 0.13921666869E+03
 0.13157865987E+03 0.13916967046E+03 0.13156481501E+03 0.11115626155E+03 0.83864367908E+02
 0.56407651744E+02 0.33941508545E+02 0.18993794867E+02 0.11399791547E+02 0.87972437361E+01
 0.79212730914E+01 0.76211903063E+01 0.79194496966E+01 0.87968305346E+01 0.11401310310E+02
 0.18993058645E+02 0.33936117315E+02 0.56403121884E+02 0.83869479404E+02 0.11117146917E+03
 0.99278708793E+02 0.11107237897E+03 0.11107470594E+03 0.99285430069E+02 0.79255139327E+02
 0.56407202604E+02 0.35861023058E+02 0.20908775592E+02 0.12433818129E+02 0.90517565256E+01
 0.79390172568E+01 0.74012838334E+01 0.74007832609E+01 0.79385820469E+01 0.90528950700E+01
 0.12435705146E+02 0.20908244025E+02 0.35855656098E+02 0.56397934922E+02 0.79245498889E+02
 0.66837831854E+02 0.79132866305E+02 0.83703567295E+02 0.79148284866E+02 0.66857032600E+02
 0.50381291310E+02 0.33941458683E+02 0.20909060752E+02 0.12842836122E+02 0.92320647804E+01
 0.79612852411E+01 0.72671828520E+01 0.70390325980E+01 0.72676147481E+01 0.79615843987E+01
 0.92331782830E+01 0.12846698134E+02 0.20914372214E+02 0.33941763595E+02 0.50370502586E+02
 0.40199702808E+02 0.50295384128E+02 0.56252385893E+02 0.56257427920E+02 0.50304322113E+02
 0.40201336140E+02 0.28825951733E+02 0.18994430447E+02 0.12433843613E+02 0.92319318226E+01
 0.79713294867E+01 0.72066625096E+01 0.68348142529E+01 0.68353756197E+01 0.72066548540E+01
 0.79692555768E+01 0.92312172614E+01 0.12439872314E+02 0.19006334817E+02 0.28834880355E+02
 0.22181934392E+02 0.28823314688E+02 0.33889316389E+02 0.35781335478E+02 0.33883643137E+02
 0.28812204583E+02 0.22168509140E+02 0.15883286528E+02 0.11399941082E+02 0.90513912237E+01
 0.79613405399E+01 0.72067017354E+01 0.67698157395E+01 0.66328196337E+01 0.67707961169E+01
 0.72051944429E+01 0.79559381188E+01 0.90462662702E+01 0.11401310310E+02 0.15892902806E+02
 0.12666251653E+02 0.15934199916E+02 0.19057218181E+02 0.20960023895E+02 0.20953914083E+02
 0.19044038636E+02 0.15924654614E+02 0.12667191385E+02 0.10198814438E+02 0.87967958359E+01
 0.79389592245E+01 0.72673663722E+01 0.68346403403E+01 0.66328011879E+01 0.66339420369E+01
 0.68367148485E+01 0.72669929553E+01 0.79330756504E+01 0.87861371765E+01 0.10189316975E+02
 0.92354179086E+01 0.10255073885E+02 0.11515055433E+02 0.12579840843E+02 0.12994678049E+02
 0.12575816525E+02 0.11515058869E+02 0.10264698625E+02 0.92501579851E+01 0.85461800146E+01
 0.79210426447E+01 0.74016468706E+01 0.70389762902E+01 0.68352621330E+01 0.67711091335E+01
 0.68367752745E+01 0.70433854839E+01 0.74069114502E+01 0.79207430906E+01 0.85362823317E+01
 0.82687144590E+01 0.86071567071E+01 0.89200817540E+01 0.92278869103E+01 0.94390493012E+01
 0.94411220406E+01 0.92346672490E+01 0.89306513607E+01 0.86159943756E+01 0.82689088459E+01
 0.79216106317E+01 0.76215229686E+01 0.74010119090E+01 0.72673532034E+01 0.72068360865E+01
 0.72053364496E+01 0.72665478904E+01 0.74067770611E+01 0.76331404187E+01 0.79309385278E+01
 0.79598026215E+01 0.80029766779E+01 0.80609233037E+01 0.81298333281E+01 0.81913616141E+01
 0.82186859464E+01 0.81967641263E+01 0.81352192732E+01 0.80598580225E+01 0.79934045212E+01
 0.79461095361E+01 0.79210146357E+01 0.79197492507E+01 0.79382984662E+01 0.79613405399E+01
 0.79694074307E+01 0.79556389612E+01 0.79328501019E+01 0.79212730914E+01 0.79311306862E+01
 0.82681699308E+01 0.80027854960E+01 0.77757557973E+01 0.76127650753E+01 0.75208546320E+01
 0.74857357141E+01 0.74870041740E+01 0.75211618536E+01 0.76066657675E+01 0.77642873254E+01
 0.79940304469E+01 0.82689568473E+01 0.85455930544E+01 0.87967610033E+01 0.90524787944E+01
 0.92333058840E+01 0.92314778202E+01 0.90462152965E+01 0.87865155455E+01 0.85365714676E+01
 0.92350181404E+01 0.86068922306E+01 0.80614215734E+01 0.76128872338E+01 0.73041531928E+01
 0.71347376912E+01 0.70825238704E+01 0.71336596814E+01 0.72999830954E+01 0.76072527277E+01
 0.80611114446E+01 0.86166293372E+01 0.92501979571E+01 0.10199436230E+02 0.11401194504E+02
 0.12435804635E+02 0.12847228980E+02 0.12439946318E+02 0.11401044969E+02 0.10189284374E+02
 0.12666503423E+02 0.10255170713E+02 0.89204538435E+01 0.81299731797E+01 0.75204418897E+01
 0.71347278928E+01 0.69569369870E+01 0.69559626350E+01 0.71330381662E+01 0.75211272986E+01
 0.81358018228E+01 0.89306379143E+01 0.10264077110E+02 0.12667191663E+02 0.15883407433E+02
 0.18993090941E+02 0.20908439237E+02 0.20914282266E+02 0.19005731533E+02 0.15892666943E+02
 0.22182545478E+02 0.15934485739E+02 0.11514833699E+02 0.92277543094E+01 0.81910519577E+01
 0.74857771149E+01 0.70828302772E+01 0.69558569011E+01 0.70812704483E+01 0.74868757846E+01
 0.81967641263E+01 0.92335737167E+01 0.11513765475E+02 0.15924491392E+02 0.22168509140E+02
 0.28823532141E+02 0.33935812403E+02 0.35855353440E+02 0.33941508545E+02 0.28834964875E+02
 0.40199985691E+02 0.28823186769E+02 0.19056652752E+02 0.12579638646E+02 0.94392365425E+01
 0.82188172337E+01 0.74872245384E+01 0.71334434138E+01 0.71328316970E+01 0.74870547481E+01
 0.82206309061E+01 0.94398510080E+01 0.12573910531E+02 0.19045322837E+02 0.28814611188E+02
 0.40201391167E+02 0.50379385316E+02 0.56402980409E+02 0.56398242588E+02 0.50371025517E+02
 0.66837551908E+02 0.50294736235E+02 0.33889028232E+02 0.20960245441E+02 0.12995166894E+02
 0.94411425367E+01 0.81965994041E+01 0.75210634049E+01 0.72998591685E+01 0.75214415922E+01
 0.81969090604E+01 0.94396842628E+01 0.12990423996E+02 0.20954535875E+02 0.33889190584E+02
 0.50306283135E+02 0.66857131434E+02 0.79261267517E+02 0.83869915355E+02 0.79245847531E+02
 0.99278277866E+02 0.79132435625E+02 0.56252610015E+02 0.35781983269E+02 0.20954188053E+02
 0.12575487252E+02 0.92342702684E+01 0.81354090528E+01 0.76068298455E+01 0.76072946471E+01
 0.81358517509E+01 0.92333093370E+01 0.12573783455E+02 0.20954588299E+02 0.35786892255E+02
 0.56261524286E+02 0.79142227478E+02 0.99285500870E+02 0.11117363408E+03 0.11117103243E+03
 0.13157851561E+03 0.11107287986E+03 0.83703959224E+02 0.56257786772E+02 0.33883480786E+02
 0.19043512612E+02 0.11514833699E+02 0.89310664738E+01 0.80601681514E+01 0.77639346916E+01
 0.80609233037E+01 0.89306809380E+01 0.11513762039E+02 0.19045362243E+02 0.33889316389E+02
 0.56261659017E+02 0.83697921015E+02 0.11105734360E+03 0.13156481501E+03 0.13921571940E+03
 0.15578591306E+03 0.13917077628E+03 0.11107487107E+03 0.79147735950E+02 0.50303979172E+02
 0.28812037838E+02 0.15924784231E+02 0.10265035164E+02 0.86161351670E+01 0.79929555994E+01
 0.79937727070E+01 0.86170346052E+01 0.10264316822E+02 0.15924335187E+02 0.28814572362E+02
 0.50306588086E+02 0.79142109242E+02 0.11105700785E+03 0.13914911238E+03 0.15577605964E+03
 0.15694378522E+03 0.14836114008E+03 0.12533829496E+03 0.94598488578E+02 0.63685852848E+02
 0.38295264932E+02 0.21192668050E+02 0.12272447346E+02 0.91120781867E+01 0.81674099108E+01
 0.78520748424E+01 0.81679831353E+01 0.91125035144E+01 0.12272203394E+02 0.21192074988E+02
 0.38295041430E+02 0.63686216263E+02 0.94598972524E+02 0.12533843496E+03 0.14836103035E+03
 0.14836969487E+03 0.14836057859E+03 0.13259487443E+03 0.10590204479E+03 0.75495776926E+02
 0.47972227277E+02 0.27477881977E+02 0.15262696768E+02 0.99732909720E+01 0.84316521761E+01
 0.78207707841E+01 0.78200108812E+01 0.84308063993E+01 0.99739417571E+01 0.15263134729E+02
 0.27475633840E+02 0.47969975155E+02 0.75501144500E+02 0.10591866909E+03 0.13261494474E+03
 0.12535127518E+03 0.13257543942E+03 0.12533833442E+03 0.10590259036E+03 0.79886224997E+02
 0.53704975445E+02 0.32320714304E+02 0.18173228861E+02 0.11069392047E+02 0.86652829751E+01
 0.78144999039E+01 0.75225185772E+01 0.78127347884E+01 0.86648612433E+01 0.11070863322E+02
 0.18172638969E+02 0.32315727473E+02 0.53700712432E+02 0.79890942555E+02 0.10591677373E+03
 0.94593265606E+02 0.10583603493E+03 0.10583821126E+03 0.94599552713E+02 0.75495793872E+02
 0.53704538732E+02 0.34140124099E+02 0.19970591448E+02 0.12019243196E+02 0.88915352378E+01
 0.78278359297E+01 0.73052089528E+01 0.73047293892E+01 0.78273982573E+01 0.88925591818E+01
 0.12020967258E+02 0.19970061379E+02 0.34135082792E+02 0.53695859473E+02 0.75486773065E+02
 0.63668142105E+02 0.75401294887E+02 0.79763096810E+02 0.75415685947E+02 0.63686039790E+02
 0.47971337110E+02 0.32320663511E+02 0.19970868039E+02 0.12396250820E+02 0.90511630179E+01
 0.78471762400E+01 0.71728689845E+01 0.69522073524E+01 0.71733099890E+01 0.78474654944E+01
 0.90521396716E+01 0.12399757080E+02 0.19975768298E+02 0.32320961416E+02 0.47961310637E+02
 0.38293246756E+02 0.47916616524E+02 0.53600655573E+02 0.53605367610E+02 0.47924953542E+02
 0.38294723386E+02 0.27477688527E+02 0.18173845713E+02 0.12019270345E+02 0.90510349091E+01
 0.78561693205E+01 0.71131143123E+01 0.67537769927E+01 0.67543382803E+01 0.71131770374E+01
 0.78542633441E+01 0.90503449973E+01 0.12024879502E+02 0.18184993521E+02 0.27486093031E+02
 0.21204915203E+02 0.27502796787E+02 0.32320508254E+02 0.34122069849E+02 0.32315242452E+02
 0.27492454251E+02 0.21192380586E+02 0.15263198541E+02 0.11069539890E+02 0.88911824278E+01
 0.78472287885E+01 0.71131516728E+01 0.66906993043E+01 0.65585652869E+01 0.66916474894E+01
 0.71117919503E+01 0.78422315515E+01 0.88864426762E+01 0.11070863322E+02 0.15272208833E+02
 0.12271583768E+02 0.15336954589E+02 0.18281871534E+02 0.20081464171E+02 0.20075771959E+02
 0.18269605063E+02 0.15328101738E+02 0.12272513767E+02 0.99735397916E+01 0.86648488791E+01
 0.78277784222E+01 0.71730458340E+01 0.67536088340E+01 0.65585476905E+01 0.65595945001E+01
 0.67555133285E+01 0.71726903630E+01 0.78223109649E+01 0.86549209912E+01 0.99646576140E+01
 0.90984122898E+01 0.10049402876E+02 0.11222599106E+02 0.12217320759E+02 0.12605663732E+02
 0.12213547476E+02 0.11222603728E+02 0.10058425116E+02 0.91122195662E+01 0.84314052427E+01
 0.78142757716E+01 0.73055608812E+01 0.69521532152E+01 0.67542284601E+01 0.66919503143E+01
 0.67555716670E+01 0.69561902854E+01 0.73104363077E+01 0.78139857984E+01 0.84221418823E+01
 0.81673733321E+01 0.85093716336E+01 0.88209583314E+01 0.91129876719E+01 0.93104057904E+01
 0.93123119182E+01 0.91192572272E+01 0.88307820192E+01 0.85176118101E+01 0.81675558382E+01
 0.78205705072E+01 0.75228419562E+01 0.73049510780E+01 0.71730556568E+01 0.71133518889E+01
 0.71119294413E+01 0.71722591812E+01 0.73103060680E+01 0.75336882585E+01 0.78292852015E+01
 0.78649150570E+01 0.79164478904E+01 0.79830861119E+01 0.80591860604E+01 0.81251062196E+01
 0.81536999501E+01 0.81301083647E+01 0.80641600776E+01 0.79820549615E+01 0.79074975761E+01
 0.78521202573E+01 0.78199974140E+01 0.78130247617E+01 0.78271220861E+01 0.78472287885E+01
 0.78544113562E+01 0.78419422971E+01 0.78220923013E+01 0.78144999039E+01 0.78294720111E+01
 0.81668453931E+01 0.79162617830E+01 0.77040705677E+01 0.75536875621E+01 0.74704203250E+01
 0.74394346299E+01 0.74406335669E+01 0.74707341840E+01 0.75480062104E+01 0.76933641418E+01
 0.79080988037E+01 0.81676011238E+01 0.84308407251E+01 0.86647937708E+01 0.88921565327E+01
 0.90522650657E+01 0.90505985002E+01 0.88863928370E+01 0.86552876147E+01 0.84224231414E+01
 0.90980249538E+01 0.85091138428E+01 0.79835686067E+01 0.75538064521E+01 0.72594485671E+01
 0.70986239609E+01 0.70492317477E+01 0.70976985820E+01 0.72556389130E+01 0.75485707281E+01
 0.79832679798E+01 0.85182216133E+01 0.91122575579E+01 0.99741594177E+01 0.11070752908E+02
 0.12021065019E+02 0.12400271744E+02 0.12024950115E+02 0.11070605065E+02 0.99646264550E+01
 0.12271828458E+02 0.10049496193E+02 0.88213184913E+01 0.80593225142E+01 0.74700207088E+01
 0.70986142500E+01 0.69278577002E+01 0.69269701983E+01 0.70970796945E+01 0.74706798141E+01
 0.80647422551E+01 0.88307911035E+01 0.10057806228E+02 0.12272514505E+02 0.15263407841E+02
 0.18172669926E+02 0.19970249152E+02 0.19975679478E+02 0.18184407626E+02 0.15271980172E+02
 0.21205508265E+02 0.15337232050E+02 0.11222384030E+02 0.91128596429E+01 0.81248063940E+01
 0.74394742305E+01 0.70495284278E+01 0.69268678049E+01 0.70480187295E+01 0.74404400569E+01
 0.81301083647E+01 0.91182764163E+01 0.11221352718E+02 0.15327853119E+02 0.21192380586E+02
 0.27475522845E+02 0.32315429568E+02 0.34134788189E+02 0.32320714304E+02 0.27486175486E+02
 0.38293521181E+02 0.27502672748E+02 0.18281323551E+02 0.12217124998E+02 0.93105872302E+01
 0.81538265102E+01 0.74408469733E+01 0.70974893871E+01 0.70968802103E+01 0.74406138628E+01
 0.81554804106E+01 0.93111779709E+01 0.12211803725E+02 0.18270729188E+02 0.27494607589E+02
 0.38294774310E+02 0.47969593359E+02 0.53700575564E+02 0.53696159318E+02 0.47961819009E+02
 0.63667870389E+02 0.47915987221E+02 0.32320228783E+02 0.20081679623E+02 0.12606137710E+02
 0.93123309807E+01 0.81299486376E+01 0.74706395964E+01 0.72555193417E+01 0.74709848426E+01
 0.81302484632E+01 0.93110155936E+01 0.12601772498E+02 0.20076391585E+02 0.32320384696E+02
 0.47926748217E+02 0.63686131489E+02 0.75501500790E+02 0.79891367241E+02 0.75487112409E+02
 0.94592847426E+02 0.75400875942E+02 0.53600872055E+02 0.34122698820E+02 0.20076038471E+02
 0.12213227597E+02 0.91188718026E+01 0.80643447787E+01 0.75481653001E+01 0.75486109277E+01
 0.80647905025E+01 0.91180190207E+01 0.12211679607E+02 0.20076442645E+02 0.34127301414E+02
 0.53609214088E+02 0.75410044795E+02 0.94599618480E+02 0.10591879139E+03 0.10591635046E+03
 0.12535113517E+03 0.10583652031E+03 0.79763475472E+02 0.53605715491E+02 0.32315086539E+02
 0.18269095212E+02 0.11222384030E+02 0.88311841924E+01 0.79823555885E+01 0.76930214615E+01
 0.79830861119E+01 0.88308331167E+01 0.11221348096E+02 0.18270767320E+02 0.32320508254E+02
 0.53609345488E+02 0.79757862867E+02 0.10582201975E+03 0.12533833442E+03 0.13261402353E+03
 0.14836977489E+03 0.13257651243E+03 0.10583837008E+03 0.75415151907E+02 0.47924622033E+02
 0.27492294185E+02 0.15328226230E+02 0.10058749893E+02 0.85177486554E+01 0.79070624527E+01
 0.79078497878E+01 0.85186162495E+01 0.10058037689E+02 0.15327700150E+02 0.27494571561E+02
 0.47927046011E+02 0.75409929700E+02 0.10582169320E+03 0.13255624473E+03 0.14836054889E+03
 0.13555834351E+03 0.12818553501E+03 0.10835937744E+03 0.81792014467E+02 0.55022049504E+02
 0.33118282563E+02 0.18584228255E+02 0.11246673242E+02 0.87497619779E+01 0.78895741598E+01
 0.75962804833E+01 0.78900928709E+01 0.87501463351E+01 0.11246450326E+02 0.18583686816E+02
 0.33118073575E+02 0.55022372332E+02 0.81792449848E+02 0.10835950526E+03 0.12818543775E+03
 0.12819247099E+03 0.12818502211E+03 0.11460855669E+03 0.91552823147E+02 0.65217706439E+02
 0.41404814796E+02 0.23844062267E+02 0.13627935081E+02 0.93915982503E+01 0.81135844223E+01
 0.75441467780E+01 0.75434674217E+01 0.81128251876E+01 0.93922297488E+01 0.13628565500E+02
 0.23842476394E+02 0.41403030133E+02 0.65221979907E+02 0.91566284727E+02 0.11462491394E+03
 0.10836993795E+03 0.11460617234E+03 0.10835941506E+03 0.91553323323E+02 0.69009300561E+02
 0.46330012405E+02 0.27933951441E+02 0.15991038093E+02 0.10212043393E+02 0.83082502740E+01
 0.75201810405E+01 0.72518221866E+01 0.75185848190E+01 0.83078133516E+01 0.10213376418E+02
 0.15990817767E+02 0.27930033526E+02 0.46326467634E+02 0.69012976323E+02 0.91564773771E+02
 0.81787864141E+02 0.91534728913E+02 0.91536502752E+02 0.81792990533E+02 0.65217723747E+02
 0.46329611479E+02 0.29476569019E+02 0.17465700634E+02 0.10937368734E+02 0.84686065524E+01
 0.75193246263E+01 0.70404171920E+01 0.70399969109E+01 0.75188884673E+01 0.84693343598E+01
 0.10938667027E+02 0.17465182826E+02 0.29472404501E+02 0.46322509145E+02 0.65210360961E+02
 0.55007797353E+02 0.65199608382E+02 0.68989943611E+02 0.65211255771E+02 0.55022220346E+02
 0.41403996521E+02 0.27933898340E+02 0.17465952755E+02 0.11228416158E+02 0.85772070773E+01
 0.75290077394E+01 0.69116203787E+01 0.67120757268E+01 0.69120778016E+01 0.75292688628E+01
 0.85778325011E+01 0.11230994644E+02 0.17469768533E+02 0.27934175818E+02 0.41395996894E+02
 0.33116714171E+02 0.41434764615E+02 0.46365497393E+02 0.46369326375E+02 0.41441496806E+02
 0.33117781758E+02 0.23843878977E+02 0.15991601395E+02 0.10937400309E+02 0.85770925922E+01
 0.75345023619E+01 0.68531570182E+01 0.65287332503E+01 0.65292853082E+01 0.68533905348E+01
 0.75330368377E+01 0.85764730977E+01 0.10941893331E+02 0.16000721366E+02 0.23850869036E+02
 0.18594119503E+02 0.23945140749E+02 0.28076324254E+02 0.29627533452E+02 0.28072139642E+02
 0.23936841947E+02 0.18583964952E+02 0.13628396015E+02 0.10212185862E+02 0.84682889277E+01
 0.75290523530E+01 0.68531891341E+01 0.64706027191E+01 0.63517657080E+01 0.64714563657E+01
 0.68522117168E+01 0.75251265710E+01 0.84645680671E+01 0.10213376418E+02 0.13635779325E+02
 0.11245845860E+02 0.13765360771E+02 0.16224402192E+02 0.17740819739E+02 0.17736240493E+02
 0.16214566682E+02 0.13758345297E+02 0.11246739196E+02 0.93918283285E+01 0.83078552136E+01
 0.75192686072E+01 0.69117783856E+01 0.65285816030E+01 0.63517505963E+01 0.63525507598E+01
 0.65300402454E+01 0.69114733354E+01 0.75149072263E+01 0.82998736222E+01 0.93845920431E+01
 0.87385860462E+01 0.95227525111E+01 0.10471409063E+02 0.11280738409E+02 0.11598382929E+02
 0.11277640032E+02 0.10471416713E+02 0.95301561370E+01 0.87498901035E+01 0.81133556340E+01
 0.75199751639E+01 0.70407376832E+01 0.67120279535E+01 0.65291860692E+01 0.64717303206E+01
 0.65300926538E+01 0.67150904171E+01 0.70445826181E+01 0.75197124206E+01 0.81057919482E+01
 0.78895541059E+01 0.82399162093E+01 0.85576615169E+01 0.88192331197E+01 0.89853043872E+01
 0.89867724099E+01 0.88241524170E+01 0.85655019909E+01 0.82465609943E+01 0.78897031235E+01
 0.75439638629E+01 0.72521193966E+01 0.70401989182E+01 0.69118440869E+01 0.68535473135E+01
 0.68523363797E+01 0.69110816137E+01 0.70444641342E+01 0.72609051472E+01 0.75510394261E+01
 0.76067131707E+01 0.76819802893E+01 0.77727068741E+01 0.78684648866E+01 0.79462995511E+01
 0.79783304950E+01 0.79502410251E+01 0.78723506491E+01 0.77717760257E+01 0.76746952522E+01
 0.75963205616E+01 0.75434560036E+01 0.75188475624E+01 0.75186332352E+01 0.75290523530E+01
 0.75331738642E+01 0.75248654476E+01 0.75147080134E+01 0.75201810405E+01 0.75512109231E+01
 0.78890736415E+01 0.76818087560E+01 0.75123037013E+01 0.73979002488E+01 0.73392696407E+01
 0.73201012680E+01 0.73211104517E+01 0.73395941001E+01 0.73933329595E+01 0.75036348598E+01
 0.76752266761E+01 0.78897413702E+01 0.81128551158E+01 0.83077512657E+01 0.84689700315E+01
 0.85779514774E+01 0.85767065591E+01 0.84645213634E+01 0.83002065966E+01 0.81060506646E+01
 0.87382343184E+01 0.82396776438E+01 0.77731443470E+01 0.73980098537E+01 0.71452356813E+01
 0.70092732295E+01 0.69680524032E+01 0.70087372849E+01 0.71423699248E+01 0.73938334778E+01
 0.77728709977E+01 0.82470997592E+01 0.87499227330E+01 0.93924327947E+01 0.10213280834E+02
 0.10938759713E+02 0.11231463477E+02 0.10941954442E+02 0.10213138365E+02 0.93845650108E+01
 0.11246070319E+02 0.95228358353E+01 0.85579876640E+01 0.78685917600E+01 0.73389076502E+01
 0.70092636786E+01 0.68590188950E+01 0.68583587327E+01 0.70081343622E+01 0.73394916956E+01
 0.78729226661E+01 0.85655661486E+01 0.95295532143E+01 0.11246740740E+02 0.13628818352E+02
 0.15990844914E+02 0.17465349832E+02 0.17469683418E+02 0.16000185211E+02 0.13635571243E+02
 0.18594660943E+02 0.13765614288E+02 0.10471213051E+02 0.88191182378E+01 0.79460278881E+01
 0.73201355306E+01 0.69683209967E+01 0.68582658823E+01 0.69669574312E+01 0.73207600235E+01
 0.79502410251E+01 0.88234635620E+01 0.10470289111E+02 0.13757890921E+02 0.18583964952E+02
 0.23842369484E+02 0.27929756048E+02 0.29472133401E+02 0.27933951441E+02 0.23850945416E+02
 0.33116964257E+02 0.23945027798E+02 0.16223904070E+02 0.11280560970E+02 0.89854691476E+01
 0.79784434550E+01 0.73213037465E+01 0.70085482953E+01 0.70079549235E+01 0.73209190557E+01
 0.79796797067E+01 0.89859928689E+01 0.11276321726E+02 0.16215280521E+02 0.23938340838E+02
 0.33117822855E+02 0.41402678215E+02 0.46326344078E+02 0.46322786516E+02 0.41396463250E+02
 0.55007548995E+02 0.41434188652E+02 0.28076069665E+02 0.17741017560E+02 0.11598814182E+02
 0.89867874535E+01 0.79500957102E+01 0.73395105729E+01 0.71422628313E+01 0.73397701590E+01
 0.79503673732E+01 0.89858431521E+01 0.11595442709E+02 0.17736844959E+02 0.28076207465E+02
 0.41442856210E+02 0.55022294815E+02 0.65222309454E+02 0.69013368383E+02 0.65210673200E+02
 0.81787482319E+02 0.65199223413E+02 0.46365692311E+02 0.29628108466E+02 0.17736485411E+02
 0.11277347127E+02 0.88238004761E+01 0.78725209857E+01 0.73934777053E+01 0.73938686187E+01
 0.78729661292E+01 0.88232265030E+01 0.11276206261E+02 0.17736892057E+02 0.29631885015E+02
 0.46372499120E+02 0.65206723623E+02 0.81793044092E+02 0.91566399667E+02 0.91564388535E+02
 0.10836981013E+03 0.91535170473E+02 0.68990284924E+02 0.46369642957E+02 0.28072001843E+02
 0.16214102970E+02 0.10471213051E+02 0.85658675357E+01 0.77720493749E+01 0.75033203887E+01
 0.77727068741E+01 0.85656055463E+01 0.10470281461E+02 0.16215314931E+02 0.28076324254E+02
 0.46372620784E+02 0.68985801319E+02 0.91523434250E+02 0.10835941506E+03 0.11462407272E+03
 0.12819254401E+03 0.11460715192E+03 0.91536644270E+02 0.65210764559E+02 0.41441197649E+02
 0.23936700494E+02 0.13758455200E+02 0.95304477556E+01 0.82466866414E+01 0.76742992401E+01
 0.76750021974E+01 0.82474639719E+01 0.95297615087E+01 0.13757747307E+02 0.23938312337E+02
 0.41443133016E+02 0.65206617379E+02 0.91523134209E+02 0.11459061915E+03 0.12818499787E+03
 0.10622097593E+03 0.10046817334E+03 0.84954210066E+02 0.64094285724E+02 0.43089234378E+02
 0.26099446323E+02 0.15171993597E+02 0.99781907541E+01 0.82672117950E+01 0.75012076356E+01
 0.72435393273E+01 0.75016455340E+01 0.82675345941E+01 0.99779980853E+01 0.15171530406E+02
 0.26099264858E+02 0.43089504774E+02 0.64094653735E+02 0.84954319410E+02 0.10046809225E+03
 0.10047297861E+03 0.10046773350E+03 0.89838723844E+02 0.71733018366E+02 0.51027280281E+02
 0.32424113195E+02 0.19000720266E+02 0.11550060825E+02 0.86706319772E+01 0.76608635377E+01
 0.71592058434E+01 0.71586468361E+01 0.76602338798E+01 0.86712106951E+01 0.11550874985E+02
 0.18999944372E+02 0.32422929987E+02 0.51030133787E+02 0.71742329257E+02 0.89850183812E+02
 0.84961579950E+02 0.89860348982E+02 0.84954243483E+02 0.71733449465E+02 0.53984649367E+02
 0.36210889658E+02 0.22031932270E+02 0.13166750477E+02 0.91518630626E+01 0.78032585112E+01
 0.71056874135E+01 0.68739197871E+01 0.71043512499E+01 0.78028236671E+01 0.91529820144E+01
 0.13166955213E+02 0.22029387313E+02 0.36208304800E+02 0.53986985792E+02 0.71741316140E+02
 0.64091530431E+02 0.71781448493E+02 0.71782692575E+02 0.64095127621E+02 0.51027298811E+02
 0.36210543574E+02 0.23184359830E+02 0.14196275211E+02 0.95883574932E+01 0.79060243037E+01
 0.70796515342E+01 0.66675931353E+01 0.66672597335E+01 0.70792402761E+01 0.79063911795E+01
 0.95891230486E+01 0.14195796689E+02 0.23181367117E+02 0.36205528633E+02 0.51022124129E+02
 0.43079509387E+02 0.51114115029E+02 0.54108209750E+02 0.51122158409E+02 0.43089381861E+02
 0.32423405463E+02 0.22031876681E+02 0.14196490417E+02 0.97669595358E+01 0.79623781268E+01
 0.70716390842E+01 0.65402969781E+01 0.63716085494E+01 0.65407532739E+01 0.70718582270E+01
 0.79625824412E+01 0.97683823373E+01 0.14198919994E+02 0.22032122161E+02 0.32418043633E+02
 0.26098451999E+02 0.32570931352E+02 0.36437667600E+02 0.36440331444E+02 0.32575555625E+02
 0.26099009152E+02 0.19000553750E+02 0.13167232814E+02 0.95883947868E+01 0.79622835613E+01
 0.70706503250E+01 0.64814559871E+01 0.62070709965E+01 0.62075854063E+01 0.64818653505E+01
 0.70697407635E+01 0.79617695827E+01 0.95914334944E+01 0.13173667543E+02 0.19005643585E+02
 0.15178790946E+02 0.19206043543E+02 0.22369195215E+02 0.23566313548E+02 0.22366411702E+02
 0.19200412713E+02 0.15171767763E+02 0.11550459462E+02 0.91519958196E+01 0.79057584076E+01
 0.70716715474E+01 0.64814804476E+01 0.61549292875E+01 0.60544270174E+01 0.61556346435E+01
 0.64809720521E+01 0.70691233796E+01 0.79033483150E+01 0.91529820144E+01 0.11555680899E+02
 0.99774401137E+01 0.11775216210E+02 0.13572322560E+02 0.14697667586E+02 0.14694544307E+02
 0.13565660035E+02 0.11770581225E+02 0.99782548485E+01 0.86708321383E+01 0.78029213195E+01
 0.70795977736E+01 0.65404271822E+01 0.62069444458E+01 0.60544157961E+01 0.60549045492E+01
 0.62078402931E+01 0.65401953023E+01 0.70766749433E+01 0.77974821674E+01 0.86657663691E+01
 0.82593376523E+01 0.88802538308E+01 0.95614906221E+01 0.10136472433E+02 0.10362835617E+02
 0.10134273327E+02 0.95615017824E+01 0.88855039059E+01 0.82673188548E+01 0.76606620712E+01
 0.71055096760E+01 0.66678669819E+01 0.63715708031E+01 0.62075024175E+01 0.61558656896E+01
 0.62078838550E+01 0.63734069947E+01 0.66703830378E+01 0.71052876520E+01 0.76553475254E+01
 0.75012111382E+01 0.78584064092E+01 0.81896796715E+01 0.84449060839E+01 0.85871135662E+01
 0.85880250853E+01 0.84480899636E+01 0.81949392438E+01 0.78629561333E+01 0.75013117058E+01
 0.71590502923E+01 0.68741784305E+01 0.66674325860E+01 0.65405507579E+01 0.64819952834E+01
 0.64810775245E+01 0.65398625822E+01 0.66702820438E+01 0.68802536542E+01 0.71639675863E+01
 0.72507998670E+01 0.73601223600E+01 0.74835652209E+01 0.76049977551E+01 0.76979140003E+01
 0.77341836508E+01 0.77004861490E+01 0.76074870714E+01 0.74827916392E+01 0.73550379428E+01
 0.72435727018E+01 0.71586395735E+01 0.71045732739E+01 0.70790161249E+01 0.70716715474E+01
 0.70698611436E+01 0.70689042368E+01 0.70765045528E+01 0.71056874135E+01 0.71641158748E+01
 0.75008025461E+01 0.73599730465E+01 0.72535785213E+01 0.71911156904E+01 0.71675624226E+01
 0.71651110996E+01 0.71658596689E+01 0.71678811262E+01 0.71880062691E+01 0.72475934179E+01
 0.73554667094E+01 0.75013410121E+01 0.76602569817E+01 0.78027684374E+01 0.79060830573E+01
 0.79626913302E+01 0.79619730373E+01 0.79033060889E+01 0.77977641295E+01 0.76555720939E+01
 0.82590398787E+01 0.78581972488E+01 0.74839348198E+01 0.71912114123E+01 0.69999618846E+01
 0.69004522290E+01 0.68711464930E+01 0.69003765162E+01 0.69982835730E+01 0.71884113586E+01
 0.74837030158E+01 0.78633905292E+01 0.82673438804E+01 0.86713901099E+01 0.91529071962E+01
 0.95892076453E+01 0.97687830066E+01 0.95914807975E+01 0.91527744392E+01 0.86657456228E+01
 0.99776340049E+01 0.88803221514E+01 0.81899546122E+01 0.76051104687E+01 0.71672575782E+01
 0.69004426906E+01 0.67807739774E+01 0.67803994119E+01 0.68998197669E+01 0.71677294665E+01
 0.76080201436E+01 0.81950615972E+01 0.88849471566E+01 0.99782560708E+01 0.11551096651E+02
 0.13166976704E+02 0.14195933668E+02 0.14198841766E+02 0.13173206697E+02 0.11555503928E+02
 0.15179254137E+02 0.11775433346E+02 0.95613234999E+01 0.84448112343E+01 0.76976850999E+01
 0.71651368459E+01 0.68713719333E+01 0.67803209450E+01 0.68702351164E+01 0.71653508624E+01
 0.77004861490E+01 0.84477592847E+01 0.95605653803E+01 0.11769919537E+02 0.15171767763E+02
 0.18999844609E+02 0.22029141834E+02 0.23181132809E+02 0.22031932270E+02 0.19005710338E+02
 0.26098664872E+02 0.19205947335E+02 0.13571899741E+02 0.10136322440E+02 0.85872528964E+01
 0.77342758882E+01 0.71660220129E+01 0.69002179898E+01 0.68996707789E+01 0.71654874602E+01
 0.77349887779E+01 0.85876780311E+01 0.10133491876E+02 0.13565883513E+02 0.19201113723E+02
 0.26099040560E+02 0.32422624013E+02 0.36208201720E+02 0.36205771637E+02 0.32418445391E+02
 0.43079295925E+02 0.32570436611E+02 0.22368978358E+02 0.14697838171E+02 0.10363201683E+02
 0.85880343465E+01 0.77003630136E+01 0.71678143275E+01 0.69981953475E+01 0.71679675121E+01
 0.77005919139E+01 0.85875479621E+01 0.10361094105E+02 0.14695102279E+02 0.22369089616E+02
 0.32576368484E+02 0.43089438795E+02 0.51030422115E+02 0.53987327280E+02 0.51022393927E+02
 0.64091203373E+02 0.51113782632E+02 0.36437830711E+02 0.23566806532E+02 0.14694755820E+02
 0.10134021540E+02 0.84477898680E+01 0.76076360701E+01 0.71881290616E+01 0.71884384293E+01
 0.76080564287E+01 0.84475540387E+01 0.10133390083E+02 0.14695143207E+02 0.23569476339E+02
 0.36442600936E+02 0.51119076059E+02 0.64095168574E+02 0.71742431287E+02 0.71740987071E+02
 0.84961470605E+02 0.71781825215E+02 0.54108496229E+02 0.36440600878E+02 0.22366300444E+02
 0.13565265774E+02 0.95613234999E+01 0.81952503799E+01 0.74830234433E+01 0.72473209147E+01
 0.74835652209E+01 0.81950977926E+01 0.95605542200E+01 0.13565912071E+02 0.22369195215E+02
 0.36442707258E+02 0.54105474903E+02 0.71773716754E+02 0.84954243483E+02 0.89849462715E+02
 0.10047304116E+03 0.89861188378E+02 0.71782809916E+02 0.51121732798E+02 0.32575304427E+02
 0.19200298069E+02 0.11770669248E+02 0.88857467163E+01 0.78630650644E+01 0.73547001414E+01
 0.73552782215E+01 0.78637086206E+01 0.88851216463E+01 0.11769790423E+02 0.19201095288E+02
 0.32576612026E+02 0.51118982844E+02 0.71773457373E+02 0.89849581695E+02 0.10046771496E+03
 0.75427171130E+02 0.71339909357E+02 0.60304262795E+02 0.45477993667E+02 0.30684212253E+02
 0.19032269783E+02 0.11946655270E+02 0.88656493097E+01 0.77301566405E+01 0.70804921748E+01
 0.68682656229E+01 0.70808338765E+01 0.77304044018E+01 0.88654900638E+01 0.11946286697E+02
 0.19032129900E+02 0.30684432603E+02 0.45478289278E+02 0.60304349804E+02 0.71339843902E+02
 0.71342650794E+02 0.71339557072E+02 0.63764488090E+02 0.50860441076E+02 0.36181452991E+02
 0.23232643942E+02 0.14273805545E+02 0.96727140964E+01 0.79892767387E+01 0.71599616196E+01