   2   2   0   0
  0.9810422E+01  0.2385000E-09  0.2385000E-09  0.3983000E-09  0.5000000E-15
  1.000000000000000E-004
  CAR 
 unknown system                          
     73.65172262     -5.38419272  301      7.38705132      1.00000000
     -5.384  0.0000E+00  0.0000E+00
     -5.121  0.0000E+00  0.0000E+00
     -4.857  0.0000E+00  0.0000E+00
     -4.594  0.0000E+00  0.0000E+00
     -4.330  0.0000E+00  0.0000E+00
     -4.067  0.0000E+00  0.0000E+00
     -3.803  0.0000E+00  0.0000E+00
     -3.540 -0.9697E-34 -0.2555E-34
     -3.277 -0.1460E-24 -0.3845E-25
     -3.013 -0.6618E-17 -0.1744E-17
     -2.750 -0.8521E-11 -0.2245E-11
     -2.486 -0.3167E-06 -0.8344E-07
     -2.223 -0.2842E-03 -0.7496E-04
     -1.959  0.3185E-03  0.8956E-05
     -1.696  0.4950E-01  0.1305E-01
     -1.432  0.4182E-01  0.2407E-01
     -1.169  0.9389E-01  0.4880E-01
     -0.905 -0.2750E-02  0.4807E-01
     -0.642 -0.6723E-02  0.4630E-01
     -0.379  0.6395E-01  0.6315E-01
     -0.115  0.4014E+00  0.1689E+00
      0.148  0.6218E+00  0.3327E+00
      0.412  0.1468E+00  0.3714E+00
      0.675 -0.2102E-01  0.3659E+00
      0.939  0.7212E-01  0.3849E+00
      1.202  0.6837E+00  0.5650E+00
      1.466  0.1112E+00  0.5943E+00
      1.729 -0.2256E-01  0.5883E+00
      1.992  0.2625E-01  0.5952E+00
      2.256  0.2359E+01  0.1217E+01
      2.519  0.1897E+01  0.1716E+01
      2.783  0.1400E+01  0.2085E+01
      3.046  0.3273E+01  0.2948E+01
      3.310  0.2462E+01  0.3596E+01
      3.573  0.2416E+01  0.4233E+01
      3.837  0.1175E+01  0.4542E+01
      4.100  0.3462E+01  0.5454E+01
      4.364  0.3937E+01  0.6492E+01
      4.627  0.2392E+01  0.7122E+01
      4.890  0.2152E+01  0.7689E+01
      5.154  0.3049E+01  0.8492E+01
      5.417  0.3501E+01  0.9414E+01
      5.681  0.3578E+01  0.1036E+02
      5.944  0.4026E+01  0.1142E+02
      6.208  0.3457E+01  0.1233E+02
      6.471  0.4436E+01  0.1350E+02
      6.735  0.2826E+01  0.1424E+02
      6.998  0.3971E+01  0.1529E+02
      7.262  0.2109E+01  0.1584E+02
      7.525  0.1436E+01  0.1622E+02
      7.788  0.2089E+01  0.1677E+02
      8.052  0.4402E+01  0.1793E+02
      8.315  0.6786E+01  0.1972E+02
      8.579  0.4881E+01  0.2101E+02
      8.842  0.1431E+01  0.2138E+02
      9.106  0.1297E+01  0.2172E+02
      9.369  0.2811E+00  0.2180E+02
      9.633 -0.2415E-01  0.2179E+02
      9.896 -0.3204E-02  0.2179E+02
     10.160 -0.6832E-01  0.2177E+02
     10.423  0.1418E+01  0.2215E+02
     10.686  0.9029E+00  0.2238E+02
     10.950 -0.6203E-01  0.2237E+02
     11.213 -0.8238E-03  0.2237E+02
     11.477 -0.6190E-02  0.2237E+02
     11.740  0.1948E-01  0.2237E+02
     12.004  0.9581E+00  0.2262E+02
     12.267  0.5113E+00  0.2276E+02
     12.531  0.5426E+00  0.2290E+02
     12.794  0.5743E+00  0.2305E+02
     13.058  0.1469E+01  0.2344E+02
     13.321  0.3216E+00  0.2352E+02
     13.584  0.7303E+00  0.2372E+02
     13.848  0.3684E+00  0.2381E+02
     14.111 -0.2252E-01  0.2381E+02
     14.375 -0.1076E-01  0.2381E+02
     14.638  0.1407E+00  0.2384E+02
     14.902  0.2465E+00  0.2391E+02
     15.165 -0.1289E-01  0.2390E+02
     15.429 -0.1306E-01  0.2390E+02
     15.692  0.3019E+00  0.2398E+02
     15.956  0.4624E+00  0.2410E+02
     16.219  0.3726E-01  0.2411E+02
     16.482  0.6677E-01  0.2413E+02
     16.746  0.3666E+00  0.2423E+02
     17.009  0.2803E+00  0.2430E+02
     17.273  0.1728E+00  0.2435E+02
     17.536  0.1851E+01  0.2483E+02
     17.800  0.3166E+00  0.2492E+02
     18.063  0.3921E-01  0.2493E+02
     18.327  0.1914E+01  0.2543E+02
     18.590  0.2352E+00  0.2549E+02
     18.853  0.8973E+00  0.2573E+02
     19.117  0.5526E+00  0.2587E+02
     19.380  0.3730E+00  0.2597E+02
     19.644  0.3793E+00  0.2607E+02
     19.907  0.7582E+00  0.2627E+02
     20.171  0.1647E+01  0.2671E+02
     20.434  0.3290E+00  0.2679E+02
     20.698  0.5518E+00  0.2694E+02
     20.961  0.7040E+00  0.2712E+02
     21.225  0.7249E+00  0.2732E+02
     21.488  0.4032E+00  0.2742E+02
     21.751  0.3904E+00  0.2752E+02
     22.015  0.1133E+01  0.2782E+02
     22.278  0.3959E+00  0.2793E+02
     22.542  0.8798E+00  0.2816E+02
     22.805  0.1025E+01  0.2843E+02
     23.069  0.1334E+01  0.2878E+02
     23.332  0.4074E+00  0.2889E+02
     23.596 -0.1058E-02  0.2889E+02
     23.859  0.3227E+00  0.2897E+02
     24.123 -0.1837E-02  0.2897E+02
     24.386  0.1718E+00  0.2902E+02
     24.649  0.1376E+01  0.2938E+02
     24.913  0.1037E+01  0.2965E+02
     25.176  0.1228E+01  0.2998E+02
     25.440  0.1193E+01  0.3029E+02
     25.703  0.1492E+01  0.3068E+02
     25.967  0.1666E+01  0.3112E+02
     26.230 -0.3568E-01  0.3111E+02
     26.494  0.4099E+00  0.3122E+02
     26.757  0.1756E+01  0.3168E+02
     27.021  0.5055E+00  0.3182E+02
     27.284  0.3599E+00  0.3191E+02
     27.547  0.1197E+01  0.3223E+02
     27.811  0.9481E+00  0.3248E+02
     28.074 -0.9782E-01  0.3245E+02
     28.338  0.8853E+00  0.3268E+02
     28.601  0.9535E+00  0.3294E+02
     28.865  0.4984E+00  0.3307E+02
     29.128  0.2414E+00  0.3313E+02
     29.392  0.1038E+01  0.3340E+02
     29.655  0.1120E+01  0.3370E+02
     29.919  0.6494E+00  0.3387E+02
     30.182  0.7914E+00  0.3408E+02
     30.445  0.8601E+00  0.3430E+02
     30.709  0.1291E+00  0.3434E+02
     30.972  0.5802E+00  0.3449E+02
     31.236  0.2528E+01  0.3516E+02
     31.499  0.1292E+01  0.3550E+02
     31.763  0.6896E+00  0.3568E+02
     32.026  0.9614E+00  0.3593E+02
     32.290  0.1157E+01  0.3624E+02
     32.553  0.1100E+01  0.3653E+02
     32.816  0.4706E+00  0.3665E+02
     33.080  0.5692E+00  0.3680E+02
     33.343  0.1975E+01  0.3732E+02
     33.607  0.1213E+01  0.3764E+02
     33.870  0.9194E-01  0.3767E+02
     34.134 -0.2087E-01  0.3766E+02
     34.397  0.1703E+00  0.3771E+02
     34.661  0.5722E+00  0.3786E+02
     34.924  0.5583E+00  0.3800E+02
     35.188  0.3328E+00  0.3809E+02
     35.451  0.5897E+00  0.3825E+02
     35.714  0.5728E+00  0.3840E+02
     35.978  0.1436E+01  0.3878E+02
     36.241  0.1645E+01  0.3921E+02
     36.505  0.1253E+01  0.3954E+02
     36.768  0.6900E+00  0.3972E+02
     37.032 -0.4627E-01  0.3971E+02
     37.295  0.1519E+00  0.3975E+02
     37.559  0.1087E+01  0.4003E+02
     37.822  0.6107E+00  0.4020E+02
     38.086 -0.8357E-01  0.4017E+02
     38.349  0.1388E+01  0.4054E+02
     38.612  0.9181E+00  0.4078E+02
     38.876  0.1503E+00  0.4082E+02
     39.139  0.1678E+01  0.4126E+02
     39.403  0.1564E+01  0.4167E+02
     39.666  0.1684E+01  0.4212E+02
     39.930  0.7888E+00  0.4233E+02
     40.193  0.2875E+00  0.4240E+02
     40.457  0.1690E+01  0.4285E+02
     40.720  0.8850E+00  0.4308E+02
     40.984  0.9669E+00  0.4334E+02
     41.247  0.6311E-01  0.4335E+02
     41.510  0.8001E+00  0.4356E+02
     41.774  0.1667E+01  0.4400E+02
     42.037  0.1512E+01  0.4440E+02
     42.301  0.1257E+01  0.4473E+02
     42.564  0.3750E+00  0.4483E+02
     42.828  0.4043E+00  0.4494E+02
     43.091  0.9159E+00  0.4518E+02
     43.355  0.1416E+01  0.4555E+02
     43.618  0.6756E+00  0.4573E+02
     43.882  0.1546E+01  0.4614E+02
     44.145  0.1126E+01  0.4643E+02
     44.408  0.1023E+01  0.4670E+02
     44.672  0.3149E+00  0.4679E+02
     44.935  0.1693E+01  0.4723E+02
     45.199  0.6510E+00  0.4740E+02
     45.462 -0.1166E-01  0.4740E+02
     45.726  0.1345E+00  0.4744E+02
     45.989  0.2664E+01  0.4814E+02
     46.253  0.1925E+01  0.4864E+02
     46.516  0.6162E+00  0.4881E+02
     46.780  0.1225E+01  0.4913E+02
     47.043  0.1239E+01  0.4946E+02
     47.306  0.1179E+00  0.4949E+02
     47.570 -0.5105E-01  0.4947E+02
     47.833  0.1222E+01  0.4980E+02
     48.097  0.9682E+00  0.5005E+02
     48.360  0.7530E+00  0.5025E+02
     48.624  0.2081E+00  0.5030E+02
     48.887  0.2905E+00  0.5038E+02
     49.151  0.7276E+00  0.5057E+02
     49.414  0.1250E+01  0.5090E+02
     49.677  0.4777E+00  0.5103E+02
     49.941  0.1099E+01  0.5132E+02
     50.204  0.2331E+01  0.5193E+02
     50.468  0.1307E+01  0.5228E+02
     50.731  0.1179E+01  0.5259E+02
     50.995  0.8471E-01  0.5261E+02
     51.258  0.6820E+00  0.5279E+02
     51.522  0.1326E+01  0.5314E+02
     51.785  0.1548E+01  0.5355E+02
     52.049  0.9940E+00  0.5381E+02
     52.312  0.3187E+00  0.5389E+02
     52.575  0.1764E+01  0.5436E+02
     52.839  0.1023E+01  0.5463E+02
     53.102  0.1320E+01  0.5497E+02
     53.366  0.8165E+00  0.5519E+02
     53.629  0.1694E+01  0.5563E+02
     53.893  0.7347E+00  0.5583E+02
     54.156  0.2708E+01  0.5654E+02
     54.420  0.1402E+01  0.5691E+02
     54.683  0.2183E+00  0.5697E+02
     54.947  0.2379E+01  0.5759E+02
     55.210  0.2013E+01  0.5813E+02
     55.473  0.4206E+00  0.5824E+02
     55.737  0.4270E+00  0.5835E+02
     56.000  0.1751E+01  0.5881E+02
     56.264  0.1533E+00  0.5885E+02
     56.527  0.2726E+01  0.5957E+02
     56.791  0.1634E+01  0.6000E+02
     57.054  0.1147E+01  0.6030E+02
     57.318  0.1250E+01  0.6063E+02
     57.581  0.1559E+01  0.6104E+02
     57.845  0.1259E+01  0.6137E+02
     58.108  0.1042E+01  0.6165E+02
     58.371  0.3146E+01  0.6248E+02
     58.635  0.1292E+01  0.6282E+02
     58.898  0.5568E+00  0.6296E+02
     59.162  0.1563E+01  0.6337E+02
     59.425  0.1693E+01  0.6382E+02
     59.689  0.9522E+00  0.6407E+02
     59.952  0.2141E+01  0.6464E+02
     60.216  0.1008E+01  0.6490E+02
     60.479  0.8186E+00  0.6512E+02
     60.743  0.2550E+01  0.6579E+02
     61.006  0.2016E+01  0.6632E+02
     61.269  0.2661E+01  0.6702E+02
     61.533  0.1638E+01  0.6745E+02
     61.796  0.2449E+01  0.6810E+02
     62.060  0.7239E+00  0.6829E+02
     62.323  0.1278E+01  0.6862E+02
     62.587  0.1527E+01  0.6903E+02
     62.850  0.1777E+01  0.6950E+02
     63.114  0.2541E+01  0.7016E+02
     63.377  0.1809E+01  0.7064E+02
     63.641  0.1378E+01  0.7100E+02
     63.904  0.5320E+00  0.7114E+02
     64.167  0.1590E+01  0.7156E+02
     64.431  0.2175E+01  0.7214E+02
     64.694  0.6594E+00  0.7231E+02
     64.958  0.1556E+01  0.7272E+02
     65.221  0.1716E+01  0.7317E+02
     65.485  0.2141E+01  0.7374E+02
     65.748  0.1308E+01  0.7408E+02
     66.012  0.3197E+01  0.7492E+02
     66.275  0.1557E+01  0.7533E+02
     66.538  0.1647E+01  0.7577E+02
     66.802  0.9120E+00  0.7601E+02
     67.065  0.9633E+00  0.7626E+02
     67.329  0.1272E+01  0.7660E+02
     67.592  0.4186E+00  0.7671E+02
     67.856  0.2429E+01  0.7735E+02
     68.119  0.3037E+01  0.7815E+02
     68.383  0.2039E+01  0.7868E+02
     68.646  0.9467E+00  0.7893E+02
     68.910  0.8946E+00  0.7917E+02
     69.173  0.1912E+01  0.7967E+02
     69.436  0.2828E+00  0.7975E+02
     69.700  0.5923E+00  0.7990E+02
     69.963  0.5614E-01  0.7992E+02
     70.227  0.3094E+00  0.8000E+02
     70.490  0.1996E-02  0.8000E+02
     70.754 -0.1705E-02  0.8000E+02
     71.017 -0.1900E-05  0.8000E+02
     71.281 -0.5112E-10  0.8000E+02
     71.544  0.0000E+00  0.8000E+02
     71.808  0.0000E+00  0.8000E+02
     72.071  0.0000E+00  0.8000E+02
     72.334  0.0000E+00  0.8000E+02
     72.598  0.0000E+00  0.8000E+02
     72.861  0.0000E+00  0.8000E+02
     73.125  0.0000E+00  0.8000E+02
     73.388  0.0000E+00  0.8000E+02
     73.652  0.0000E+00  0.8000E+02
