    2    2    1    1
  0.9810422E+01  0.2385000E-09  0.2385000E-09  0.3983000E-09  0.5000000E-15
  1.000000000000000E-004
  CAR 
 unknown system                          
     16     15     40
 
  0.0000000E+00  0.0000000E+00  0.0000000E+00  0.8000000E-02
    1       -1.791651   1.000000
    2        2.178071   1.000000
    3        5.400236   1.000000
    4        5.661124   1.000000
    5        5.661263   1.000000
    6        6.065957   1.000000
    7        6.066107   1.000000
    8        6.768348   1.000055
    9        6.768384   1.000055
   10        7.211124   1.007711
   11        8.137840  -0.000001
   12        8.137879  -0.000001
   13       15.737398   0.000000
   14       30.303839   0.000000
   15       32.789227   0.000000
   16       33.726924   0.000000
   17       35.470841   0.000000
   18       35.470908   0.000000
   19       36.285108   0.000000
   20       36.285367   0.000000
   21       39.618201   0.000000
   22       39.618235   0.000000
   23       39.988213   0.000000
   24       40.770365   0.000000
   25       43.619351   0.000000
   26       43.619366   0.000000
   27       45.367574   0.000000
   28       47.180225   0.000000
   29       47.180658   0.000000
   30       49.094124   0.000000
   31       49.094325   0.000000
   32       52.492423   0.000000
   33       60.905562   0.000000
   34       62.844173   0.000000
   35       62.845747   0.000000
   36       62.985087   0.000000
   37       64.373963   0.000000
   38       65.513244   0.000000
   39       65.514673   0.000000
   40       67.716212   0.000000
 
  0.2000000E+00 -0.1039801E-16  0.0000000E+00  0.4800000E-01
    1       -0.291367   1.000000
    2        3.051218   1.000000
    3        4.642058   1.000000
    4        4.774285   1.000000
    5        5.570959   1.000000
    6        6.296481   1.000000
    7        6.346612   1.000000
    8        6.368992   1.000000
    9        6.527827   1.000000
   10        6.843655   1.000416
   11        8.288794  -0.000000
   12       11.890702  -0.000000
   13       15.856984   0.000000
   14       24.601284   0.000000
   15       29.373565   0.000000
   16       30.420474   0.000000
   17       30.834058   0.000000
   18       33.322618   0.000000
   19       36.103822   0.000000
   20       38.291690   0.000000
   21       38.296578   0.000000
   22       39.019342   0.000000
   23       40.340501   0.000000
   24       42.613370   0.000000
   25       44.651558   0.000000
   26       46.053771   0.000000
   27       47.752873   0.000000
   28       50.428028   0.000000
   29       51.965672   0.000000
   30       54.970647   0.000000
   31       55.111446   0.000000
   32       58.031780   0.000000
   33       58.164999   0.000000
   34       59.256221   0.000000
   35       59.941168   0.000000
   36       61.573916   0.000000
   37       63.323223   0.000000
   38       67.200928   0.000000
   39       67.306027   0.000000
   40       68.730766   0.000000
 
  0.4000000E+00 -0.3196764E-16  0.0000000E+00  0.4800000E-01
    1        2.318404   1.000000
    2        2.884675   1.000000
    3        3.125638   1.000000
    4        5.076423   1.000000
    5        5.664228   1.000000
    6        5.696830   1.000000
    7        5.910552   1.000000
    8        8.146553  -0.000001
    9        8.303211  -0.000000
   10        8.386454  -0.000000
   11        8.758970  -0.000000
   12       14.672351   0.000000
   13       16.832118   0.000000
   14       18.898759   0.000000
   15       23.718164   0.000000
   16       25.068510   0.000000
   17       25.578040   0.000000
   18       31.253508   0.000000
   19       33.057789   0.000000
   20       35.976946   0.000000
   21       37.419472   0.000000
   22       40.192716   0.000000
   23       42.859261   0.000000
   24       43.983468   0.000000
   25       50.638817   0.000000
   26       52.339222   0.000000
   27       52.531073   0.000000
   28       56.377332   0.000000
   29       56.385504   0.000000
   30       56.448176   0.000000
   31       59.065201   0.000000
   32       59.812419   0.000000
   33       60.281276   0.000000
   34       60.621238   0.000000
   35       62.330489   0.000000
   36       64.343525   0.000000
   37       65.657689   0.000000
   38       66.533014   0.000000
   39       66.840778   0.000000
   40       66.956403   0.000000
 
  0.2000000E+00  0.2000000E+00  0.0000000E+00  0.4800000E-01
    1        2.084050   1.000000
    2        3.546848   1.000000
    3        3.798518   1.000000
    4        3.935766   1.000000
    5        5.336711   1.000000
    6        5.695613   1.000000
    7        6.131790   1.000000
    8        6.827128   1.000274
    9        7.973713  -0.000135
   10        8.192112  -0.000000
   11        8.746347  -0.000000
   12       15.633757   0.000000
   13       16.560489   0.000000
   14       20.455289   0.000000
   15       21.345350   0.000000
   16       27.096523   0.000000
   17       28.506446   0.000000
   18       30.240529   0.000000
   19       31.091608   0.000000
   20       38.970711   0.000000
   21       39.057834   0.000000
   22       42.328323   0.000000
   23       43.546526   0.000000
   24       45.890396   0.000000
   25       45.905870   0.000000
   26       48.261183   0.000000
   27       49.306534   0.000000
   28       54.801776   0.000000
   29       55.298348   0.000000
   30       56.532250   0.000000
   31       56.794135   0.000000
   32       59.946419   0.000000
   33       59.994708   0.000000
   34       61.320863   0.000000
   35       62.976045   0.000000
   36       63.464493   0.000000
   37       63.668174   0.000000
   38       66.208040   0.000000
   39       66.956952   0.000000
   40       70.059181   0.000000
 
  0.4000000E+00  0.2000000E+00  0.0000000E+00  0.4800000E-01
    1        3.141069   1.000000
    2        3.303969   1.000000
    3        3.418506   1.000000
    4        4.626466   1.000000
    5        5.272798   1.000000
    6        5.418550   1.000000
    7        6.218394   1.000000
    8        7.934701  -0.000374
    9        8.105319  -0.000002
   10        8.248772  -0.000000
   11       11.862781  -0.000000
   12       13.623189   0.000000
   13       18.711845   0.000000
   14       20.072604   0.000000
   15       20.524720   0.000000
   16       22.282348   0.000000
   17       24.701792   0.000000
   18       26.579855   0.000000
   19       29.342373   0.000000
   20       39.364310   0.000000
   21       42.115683   0.000000
   22       44.289699   0.000000
   23       46.092701   0.000000
   24       46.179536   0.000000
   25       49.905572   0.000000
   26       50.046280   0.000000
   27       51.527075   0.000000
   28       51.601273   0.000000
   29       54.039274   0.000000
   30       56.675880   0.000000
   31       56.878984   0.000000
   32       58.852316   0.000000
   33       60.647114   0.000000
   34       61.178668   0.000000
   35       65.857262   0.000000
   36       65.951643   0.000000
   37       67.840907   0.000000
   38       68.327315   0.000000
   39       68.330264   0.000000
   40       69.144978   0.000000
 
  0.0000000E+00  0.0000000E+00  0.2000000E+00  0.1600000E-01
    1       -1.368619   1.000000
    2        2.047697   1.000000
    3        5.269097   1.000000
    4        5.589964   1.000000
    5        5.590086   1.000000
    6        5.948695   1.000000
    7        5.948834   1.000000
    8        6.192288   1.000000
    9        7.017235   1.012617
   10        7.017281   1.012625
   11        8.095965  -0.000003
   12        8.096010  -0.000003
   13       17.565170   0.000000
   14       29.550296   0.000000
   15       31.329116   0.000000
   16       32.906355   0.000000
   17       35.748943   0.000000
   18       35.748976   0.000000
   19       36.373028   0.000000
   20       36.373216   0.000000
   21       39.183502   0.000000
   22       39.183590   0.000000
   23       41.242281   0.000000
   24       41.953286   0.000000
   25       42.090402   0.000000
   26       42.090459   0.000000
   27       47.007519   0.000000
   28       48.545574   0.000000
   29       48.545902   0.000000
   30       51.021054   0.000000
   31       51.021198   0.000000
   32       52.095383   0.000000
   33       58.494011   0.000000
   34       61.640367   0.000000
   35       61.640724   0.000000
   36       61.769880   0.000000
   37       61.770732   0.000000
   38       63.584270   0.000000
   39       65.414099   0.000000
   40       67.404910   0.000000
 
  0.2000000E+00 -0.1039801E-16  0.2000000E+00  0.9600000E-01
    1        0.067920   1.000000
    2        3.031527   1.000000
    3        4.300664   1.000000
    4        4.873747   1.000000
    5        5.353668   1.000000
    6        5.962078   1.000000
    7        6.181405   1.000000
    8        6.650190   1.000001
    9        6.922522   1.002465
   10        6.947356   1.003999
   11        8.189500  -0.000000
   12       10.428974  -0.000000
   13       18.197836   0.000000
   14       24.909130   0.000000
   15       28.832303   0.000000
   16       29.874708   0.000000
   17       31.167703   0.000000
   18       31.903346   0.000000
   19       35.261820   0.000000
   20       36.185353   0.000000
   21       38.344242   0.000000
   22       40.378233   0.000000
   23       41.822739   0.000000
   24       44.969718   0.000000
   25       45.941704   0.000000
   26       46.716759   0.000000
   27       46.763127   0.000000
   28       50.166028   0.000000
   29       51.728208   0.000000
   30       54.743335   0.000000
   31       55.132036   0.000000
   32       56.434856   0.000000
   33       57.164792   0.000000
   34       57.776530   0.000000
   35       61.701963   0.000000
   36       62.457412   0.000000
   37       63.916751   0.000000
   38       65.326906   0.000000
   39       65.932919   0.000000
   40       67.847259   0.000000
 
  0.4000000E+00 -0.3196764E-16  0.2000000E+00  0.9600000E-01
    1        2.168335   1.000000
    2        2.825724   1.000000
    3        3.588893   1.000000
    4        4.355316   1.000000
    5        5.901120   1.000000
    6        5.930944   1.000000
    7        6.752472   1.000034
    8        7.953656  -0.000230
    9        8.179145  -0.000000
   10        8.411358  -0.000000
   11        8.483504  -0.000000
   12       12.818317  -0.000000
   13       17.415577   0.000000
   14       20.039329   0.000000
   15       22.950517   0.000000
   16       25.734241   0.000000
   17       27.370313   0.000000
   18       31.133500   0.000000
   19       33.124360   0.000000
   20       33.224059   0.000000
   21       37.637855   0.000000
   22       40.360770   0.000000
   23       41.661949   0.000000
   24       45.842002   0.000000
   25       50.012246   0.000000
   26       51.327191   0.000000
   27       54.096871   0.000000
   28       54.217983   0.000000
   29       56.381063   0.000000
   30       58.222470   0.000000
   31       58.606586   0.000000
   32       59.263388   0.000000
   33       60.822703   0.000000
   34       62.223303   0.000000
   35       62.500728   0.000000
   36       64.169040   0.000000
   37       65.331043   0.000000
   38       65.674189   0.000000
   39       68.295370   0.000000
   40       68.543527   0.000000
 
  0.2000000E+00  0.2000000E+00  0.2000000E+00  0.9600000E-01
    1        2.216387   1.000000
    2        3.364067   1.000000
    3        4.038999   1.000000
    4        4.045092   1.000000
    5        5.351905   1.000000
    6        5.601484   1.000000
    7        6.022573   1.000000
    8        7.015592   1.012328
    9        7.804629  -0.005957
   10        8.147221  -0.000001
   11        8.892653  -0.000000
   12       12.874827   0.000000
   13       19.786037   0.000000
   14       20.834462   0.000000
   15       21.809142   0.000000
   16       25.715021   0.000000
   17       26.777117   0.000000
   18       32.285514   0.000000
   19       32.588391   0.000000
   20       35.761225   0.000000
   21       39.496696   0.000000
   22       42.172953   0.000000
   23       43.721277   0.000000
   24       43.776231   0.000000
   25       47.814164   0.000000
   26       49.233306   0.000000
   27       50.402684   0.000000
   28       52.434048   0.000000
   29       54.053389   0.000000
   30       57.524713   0.000000
   31       59.807452   0.000000
   32       60.246262   0.000000
   33       60.556171   0.000000
   34       60.735725   0.000000
   35       61.228971   0.000000
   36       64.112621   0.000000
   37       64.884738   0.000000
   38       66.353694   0.000000
   39       67.217071   0.000000
   40       67.808397   0.000000
 
  0.4000000E+00  0.2000000E+00  0.2000000E+00  0.9600000E-01
    1        2.887601   1.000000
    2        3.424993   1.000000
    3        4.000659   1.000000
    4        4.144331   1.000000
    5        5.087905   1.000000
    6        5.752454   1.000000
    7        6.397255   1.000000
    8        7.702295  -0.024167
    9        7.965314  -0.000169
   10        8.341971  -0.000000
   11       12.026523  -0.000000
   12       13.489472   0.000000
   13       18.222460   0.000000
   14       18.825205   0.000000
   15       20.015963   0.000000
   16       24.440869   0.000000
   17       25.192367   0.000000
   18       26.529482   0.000000
   19       31.598766   0.000000
   20       38.333329   0.000000
   21       39.551603   0.000000
   22       40.796339   0.000000
   23       45.828739   0.000000
   24       46.425749   0.000000
   25       50.074627   0.000000
   26       51.269013   0.000000
   27       52.797167   0.000000
   28       53.037321   0.000000
   29       55.859787   0.000000
   30       57.302223   0.000000
   31       57.829902   0.000000
   32       58.338251   0.000000
   33       61.458250   0.000000
   34       61.608730   0.000000
   35       65.199817   0.000000
   36       65.816463   0.000000
   37       66.300608   0.000000
   38       67.774990   0.000000
   39       68.133349   0.000000
   40       69.044454   0.000000
 
  0.0000000E+00  0.0000000E+00  0.4000000E+00  0.1600000E-01
    1       -0.204020   1.000000
    2        1.248216   1.000000
    3        5.001154   1.000000
    4        5.068400   1.000000
    5        5.568468   1.000000
    6        5.568587   1.000000
    7        5.717178   1.000000
    8        5.717303   1.000000
    9        7.496050   0.106198
   10        7.496105   0.106060
   11        7.898416  -0.000895
   12        7.898469  -0.000894
   13       21.435635   0.000000
   14       25.869030   0.000000
   15       30.897817   0.000000
   16       31.614756   0.000000
   17       36.359711   0.000000
   18       36.359750   0.000000
   19       36.519993   0.000000
   20       36.520078   0.000000
   21       38.807393   0.000000
   22       38.807625   0.000000
   23       39.878224   0.000000
   24       39.878387   0.000000
   25       43.254647   0.000000
   26       43.664166   0.000000
   27       50.100342   0.000000
   28       51.350839   0.000000
   29       51.670375   0.000000
   30       51.670612   0.000000
   31       53.787041   0.000000
   32       53.787203   0.000000
   33       56.311576   0.000000
   34       57.567223   0.000000
   35       57.567488   0.000000
   36       58.991564   0.000000
   37       59.033134   0.000000
   38       59.033527   0.000000
   39       65.406623   0.000000
   40       68.036875   0.000000
 
  0.2000000E+00 -0.1039801E-16  0.4000000E+00  0.9600000E-01
    1        1.053449   1.000000
    2        2.320945   1.000000
    3        4.243629   1.000000
    4        4.765628   1.000000
    5        5.185756   1.000000
    6        5.610929   1.000000
    7        6.211567   1.000000
    8        6.419320   1.000000
    9        7.407750   0.412935
   10        7.708016  -0.022843
   11        7.880739  -0.001332
   12        8.786165  -0.000000
   13       22.324618   0.000000
   14       25.827749   0.000000
   15       26.597215   0.000000
   16       27.601192   0.000000
   17       31.302167   0.000000
   18       32.320276   0.000000
   19       33.338077   0.000000
   20       33.495892   0.000000
   21       41.379026   0.000000
   22       42.976632   0.000000
   23       43.255863   0.000000
   24       44.794917   0.000000
   25       44.848342   0.000000
   26       46.876819   0.000000
   27       49.436213   0.000000
   28       50.540099   0.000000
   29       51.805936   0.000000
   30       53.476630   0.000000
   31       53.600401   0.000000
   32       54.135772   0.000000
   33       56.887877   0.000000
   34       59.586261   0.000000
   35       60.699896   0.000000
   36       62.814238   0.000000
   37       63.055569   0.000000
   38       64.294525   0.000000
   39       64.574553   0.000000
   40       66.248547   0.000000
 
  0.4000000E+00 -0.3196764E-16  0.4000000E+00  0.9600000E-01
    1        2.207819   1.000000
    2        2.581514   1.000000
    3        3.833431   1.000000
    4        4.146287   1.000000
    5        6.466011   1.000000
    6        6.479513   1.000000
    7        7.239060   0.973053
    8        7.503914   0.087148
    9        8.256352  -0.000000
   10        8.349190  -0.000000
   11        8.477344  -0.000000
   12       10.380273  -0.000000
   13       18.219702   0.000000
   14       19.372791   0.000000
   15       25.483237   0.000000
   16       27.553711   0.000000
   17       28.337992   0.000000
   18       30.159391   0.000000
   19       31.045142   0.000000
   20       32.037826   0.000000
   21       36.564310   0.000000
   22       39.705359   0.000000
   23       44.036541   0.000000
   24       46.088666   0.000000
   25       47.798224   0.000000
   26       49.826046   0.000000
   27       54.905460   0.000000
   28       55.000915   0.000000
   29       56.565582   0.000000
   30       57.373351   0.000000
   31       59.037408   0.000000
   32       61.147340   0.000000
   33       62.718066   0.000000
   34       63.186527   0.000000
   35       63.298245   0.000000
   36       64.227827   0.000000
   37       64.885701   0.000000
   38       65.908439   0.000000
   39       67.960104   0.000000
   40       69.526655   0.000000
 
  0.2000000E+00  0.2000000E+00  0.4000000E+00  0.9600000E-01
    1        2.567008   1.000000
    2        3.006756   1.000000
    3        4.372712   1.000000
    4        4.430890   1.000000
    5        5.138653   1.000000
    6        5.165350   1.000000
    7        6.283354   1.000000
    8        6.909999   1.001904
    9        8.012869  -0.000045
   10        8.380468  -0.000000
   11        9.087180  -0.000000
   12       10.375093  -0.000000
   13       21.839676   0.000000
   14       22.608007   0.000000
   15       23.061018   0.000000
   16       24.621066   0.000000
   17       25.218252   0.000000
   18       29.321463   0.000000
   19       35.779062   0.000000
   20       37.380763   0.000000
   21       39.129845   0.000000
   22       40.712875   0.000000
   23       41.611434   0.000000
   24       41.860997   0.000000
   25       48.130141   0.000000
   26       48.927407   0.000000
   27       52.881018   0.000000
   28       53.591257   0.000000
   29       55.826517   0.000000
   30       58.311218   0.000000
   31       58.322586   0.000000
   32       59.753585   0.000000
   33       60.770876   0.000000
   34       61.174568   0.000000
   35       61.751178   0.000000
   36       62.087481   0.000000
   37       64.954498   0.000000
   38       66.679447   0.000000
   39       68.062403   0.000000
   40       68.955872   0.000000
 
  0.4000000E+00  0.2000000E+00  0.4000000E+00  0.9600000E-01
    1        2.908462   1.000000
    2        3.271065   1.000000
    3        4.065361   1.000000
    4        4.584274   1.000000
    5        4.934667   1.000000
    6        5.721181   1.000000
    7        6.743012   1.000026
    8        7.057285   1.020826
    9        8.127707  -0.000001
   10        8.366178  -0.000000
   11       12.445461  -0.000000
   12       13.048458   0.000000
   13       17.347255   0.000000
   14       17.473705   0.000000
   15       21.077007   0.000000
   16       22.774784   0.000000
   17       28.301916   0.000000
   18       29.587237   0.000000
   19       34.468776   0.000000
   20       34.852641   0.000000
   21       36.178563   0.000000
   22       39.198425   0.000000
   23       43.231206   0.000000
   24       44.263461   0.000000
   25       52.479757   0.000000
   26       53.261072   0.000000
   27       54.097657   0.000000
   28       54.775583   0.000000
   29       55.778128   0.000000
   30       58.196860   0.000000
   31       59.307579   0.000000
   32       61.073578   0.000000
   33       62.880472   0.000000
   34       62.947342   0.000000
   35       63.472963   0.000000
   36       65.223753   0.000000
   37       65.863160   0.000000
   38       67.677592   0.000000
   39       68.079049   0.000000
   40       68.954998   0.000000
