       N       E                     dE             d eps       ncg     rms          rms(c)
DAV:   1    -0.194278866704E+02   -0.19428E+02   -0.27870E+00  1872   0.167E+01    0.176E+01
DAV:   2    -0.165324710074E+02    0.28954E+01   -0.20200E+00  1712   0.252E+01    0.234E+00
DAV:   3    -0.163397300432E+02    0.19274E+00   -0.11904E-01  1544   0.553E+00    0.121E+00
DAV:   4    -0.163105410862E+02    0.29189E-01   -0.36356E-03  1600   0.533E-01    0.514E-01
DAV:   5    -0.162990739937E+02    0.11467E-01   -0.11616E-03  1632   0.192E-01    0.592E-02
DAV:   6    -0.162991183531E+02   -0.44359E-04   -0.34593E-05  1544   0.405E-02    0.305E-02
DAV:   7    -0.162991022925E+02    0.16061E-04   -0.15997E-06  1544   0.211E-02    0.288E-03
DAV:   8    -0.162991028885E+02   -0.59608E-06   -0.46422E-08  1056   0.262E-03
   1 F= -.16299103E+02 E0= -.16299599E+02  d E =0.148919E-02
