 vasp.6.2.0 18Jan21 (build Mar 17 2021 09:06:54) complex                        
  
 executed on             LinuxIFC date 2021.09.09  10:11:02
 serial version


--------------------------------------------------------------------------------------------------------


 INCAR:
   ENCUT = 290.000000
   SIGMA = 0.200000
   EDIFF = 1.00e-06
   GGA = PE
   PREC = normal
   IBRION = -1
   ICHARG = 1
   ISMEAR = 1
   KPAR = 1
   NBANDS = 40
   NSW = 0
   NCORE = 1
   LCHARG = .TRUE.

 POTCAR:    PAW_PBE Fe 06Sep2000                  
 POTCAR:    PAW_PBE Fe 06Sep2000                  
   SHA256 =  cd5a22d9368cc8b5cc476bea79732366149640da08ac9009b0e1b7fc627eea28 Fe/POTCAR             
   COPYR  = (c) Copyright 06Sep2000 Georg Kresse                                                    
   COPYR  = This file is part of the software VASP. Any use, copying, and all other rights are regul
   COPYR  = If you do not have a valid VASP license, you may not use, copy or distribute this file. 
   VRHFIN =Fe:  d7 s1                                                                               
   LEXCH  = PE                                                                                      
   EATOM  =   594.3153 eV,   43.6809 Ry                                                             
                                                                                                    
   TITEL  = PAW_PBE Fe 06Sep2000                                                                    
   LULTRA =        F    use ultrasoft PP ?                                                          
   IUNSCR =        1    unscreen: 0-lin 1-nonlin 2-no                                               
   RPACOR =    2.000    partial core radius                                                         
   POMASS =   55.847; ZVAL   =    8.000    mass and valenz                                          
   RCORE  =    2.300    outmost cutoff radius                                                       
   RWIGS  =    2.460; RWIGS  =    1.302    wigner-seitz radius (au A)                               
   ENMAX  =  267.882; ENMIN  =  200.911 eV                                                          
   RCLOC  =    1.701    cutoff for local pot                                                        
   LCOR   =        T    correct aug charges                                                         
   LPAW   =        T    paw PP                                                                      
   EAUG   =  511.368                                                                                
   DEXC   =    0.000                                                                                
   RMAX   =    2.356    core radius for proj-oper                                                   
   RAUG   =    1.300    factor for augmentation sphere                                              
   RDEP   =    2.442    radius for radial grids                                                     
   RDEPT  =    1.890    core radius for aug-charge                                                  
                                                                                                    
   Atomic configuration                                                                             
    9 entries                                                                                       
     n  l   j            E        occ.                                                              
     1  0  0.50     -6993.8440   2.0000                                                             
     2  0  0.50      -814.6047   2.0000                                                             
     2  1  1.50      -693.3689   6.0000                                                             
     3  0  0.50       -89.4732   2.0000                                                             
     3  1  1.50       -55.6373   6.0000                                                             
     3  2  2.50        -3.8151   7.0000                                                             
     4  0  0.50        -4.2551   1.0000                                                             
     4  1  1.50        -3.4015   0.0000                                                             
     4  3  2.50        -1.3606   0.0000                                                             
   Description                                                                                      
     l       E           TYP  RCUT    TYP  RCUT                                                     
     2     -3.8151135     23  2.300                                                                 
     2     -5.1756961     23  2.300                                                                 
     0     -4.2550963     23  2.300                                                                 
     0      7.2035603     23  2.300                                                                 
     1     -2.7211652     23  2.300                                                                 
     1     18.4316424     23  2.300                                                                 
  local pseudopotential read in
  partial core-charges read in
  partial kinetic energy density read in
  atomic valenz-charges read in
  non local Contribution for L=           2  read in
    real space projection operators read in
  non local Contribution for L=           2  read in
    real space projection operators read in
  non local Contribution for L=           0  read in
    real space projection operators read in
  non local Contribution for L=           0  read in
    real space projection operators read in
  non local Contribution for L=           1  read in
    real space projection operators read in
  non local Contribution for L=           1  read in
    real space projection operators read in
    PAW grid and wavefunctions read in
 
   number of l-projection  operators is LMAX  =           6
   number of lm-projection operators is LMMAX =          18
 
  PAW_PBE Fe 06Sep2000                  :
 energy of atom  1       EATOM= -594.3153
 kinetic energy error for atom=    0.0269 (will be added to EATOM!!)
 
 
 POSCAR: Fe
  positions in cartesian coordinates
  No initial velocities read in
 exchange correlation table for  LEXCH =        8
   RHO(1)=    0.500       N(1)  =     2000
   RHO(2)=  100.500       N(2)  =     4000
 


--------------------------------------------------------------------------------------------------------


 ion  position               nearest neighbor table
   1  0.000  0.000  0.000-   2 2.42   2 2.42   2 2.42   2 2.42   2 2.42   2 2.42
   2  0.333  0.667  0.500-   1 2.42   1 2.42   1 2.42   1 2.42   1 2.42   1 2.42
 
  LATTYP: Found a hexagonal cell.
 ALAT       =     2.3850000000
 C/A-ratio  =     1.6700209644
  
  Lattice vectors:
  
 A1 = (   2.3850000000,   0.0000000000,   0.0000000000)
 A2 = (  -1.1925000000,   2.0654705880,   0.0000000000)
 A3 = (   0.0000000000,   0.0000000000,   3.9830000000)


Analysis of symmetry for initial positions (statically):
=====================================================================
 Subroutine PRICEL returns:
 Original cell was already a primitive cell.
 

 Routine SETGRP: Setting up the symmetry group for a 
 hexagonal supercell.


 Subroutine GETGRP returns: Found 24 space group operations
 (whereof 12 operations were pure point group operations)
 out of a pool of 24 trial point group operations.


The static configuration has the point symmetry D_3h.
 The point group associated with its full space group is D_6h.


Analysis of symmetry for dynamics (positions and initial velocities):
=====================================================================
 Subroutine PRICEL returns:
 Original cell was already a primitive cell.
 

 Routine SETGRP: Setting up the symmetry group for a 
 hexagonal supercell.


 Subroutine GETGRP returns: Found 24 space group operations
 (whereof 12 operations were pure point group operations)
 out of a pool of 24 trial point group operations.


The dynamic configuration has the point symmetry D_3h.
 The point group associated with its full space group is D_6h.


 Subroutine INISYM returns: Found 24 space group operations
 (whereof 12 operations are pure point group operations),
 and found     1 'primitive' translations


----------------------------------------------------------------------------------------

                                     Primitive cell                                     

  volume of cell :      19.6208

  direct lattice vectors                    reciprocal lattice vectors
     2.385000000  0.000000000  0.000000000     0.419287212  0.242075585  0.000000000
    -1.192500000  2.065470588  0.000000000     0.000000000  0.484151169  0.000000000
     0.000000000  0.000000000  3.983000000     0.000000000  0.000000000  0.251067035

  length of vectors
     2.385000000  2.385000000  3.983000000     0.484151169  0.484151169  0.251067035

  position of ions in fractional coordinates (direct lattice)
     0.000000000  0.000000000  0.000000000
     0.333333333  0.666666667  0.500000000

  ion indices of the primitive-cell ions
   primitive index   ion index
                 1           1
                 2           2

----------------------------------------------------------------------------------------

 
 
 KPOINTS: KPOINTS created by Atomic Simulation Env

Automatic generation of k-mesh.
 Grid dimensions read from file:
 generate k-points for:    5    5    5

 Generating k-lattice:

  Cartesian coordinates                     Fractional coordinates (reciprocal lattice)
     0.083857442  0.048415117  0.000000000     0.200000000 -0.000000000  0.000000000
     0.000000000  0.096830234  0.000000000     0.000000000  0.200000000  0.000000000
     0.000000000  0.000000000  0.050213407     0.000000000  0.000000000  0.200000000

  Length of vectors
     0.096830234  0.096830234  0.050213407

  Shift w.r.t. Gamma in fractional coordinates (k-lattice)
     0.000000000  0.000000000  0.000000000

 
 Subroutine IBZKPT returns following result:
 ===========================================
 
 Found     15 irreducible k-points:
 
 Following reciprocal coordinates:
            Coordinates               Weight
  0.000000  0.000000  0.000000      1.000000
  0.200000 -0.000000  0.000000      6.000000
  0.400000 -0.000000  0.000000      6.000000
  0.200000  0.200000  0.000000      6.000000
  0.400000  0.200000  0.000000      6.000000
  0.000000  0.000000  0.200000      2.000000
  0.200000 -0.000000  0.200000     12.000000
  0.400000 -0.000000  0.200000     12.000000
  0.200000  0.200000  0.200000     12.000000
  0.400000  0.200000  0.200000     12.000000
  0.000000  0.000000  0.400000      2.000000
  0.200000 -0.000000  0.400000     12.000000
  0.400000 -0.000000  0.400000     12.000000
  0.200000  0.200000  0.400000     12.000000
  0.400000  0.200000  0.400000     12.000000
 
 Following cartesian coordinates:
            Coordinates               Weight
  0.000000  0.000000  0.000000      1.000000
  0.083857  0.048415  0.000000      6.000000
  0.167715  0.096830  0.000000      6.000000
  0.083857  0.145245  0.000000      6.000000
  0.167715  0.193660  0.000000      6.000000
  0.000000  0.000000  0.050213      2.000000
  0.083857  0.048415  0.050213     12.000000
  0.167715  0.096830  0.050213     12.000000
  0.083857  0.145245  0.050213     12.000000
  0.167715  0.193660  0.050213     12.000000
  0.000000  0.000000  0.100427      2.000000
  0.083857  0.048415  0.100427     12.000000
  0.167715  0.096830  0.100427     12.000000
  0.083857  0.145245  0.100427     12.000000
  0.167715  0.193660  0.100427     12.000000
 


--------------------------------------------------------------------------------------------------------




 Dimension of arrays:
   k-points           NKPTS =     15   k-points in BZ     NKDIM =     15   number of bands    NBANDS=     40
   number of dos      NEDOS =    301   number of ions     NIONS =      2
   non local maximal  LDIM  =      6   non local SUM 2l+1 LMDIM =     18
   total plane-waves  NPLWV =   1800
   max r-space proj   IRMAX =      1   max aug-charges    IRDMAX=   3467
   dimension x,y,z NGX =    10 NGY =   10 NGZ =   18
   dimension x,y,z NGXF=    20 NGYF=   20 NGZF=   36
   support grid    NGXF=    20 NGYF=   20 NGZF=   36
   ions per type =               2
   NGX,Y,Z   is equivalent  to a cutoff of   6.97,  6.97,  7.51 a.u.
   NGXF,Y,Z  is equivalent  to a cutoff of  13.94, 13.94, 15.03 a.u.

 SYSTEM =  unknown system                          
 POSCAR =  Fe                                      

 Startparameter for this run:
   NWRITE =      2    write-flag & timer
   PREC   = normal    normal or accurate (medium, high low for compatibility)
   ISTART =      1    job   : 0-new  1-cont  2-samecut
   ICHARG =      1    charge: 1-file 2-atom 10-const
   ISPIN  =      1    spin polarized calculation?
   LNONCOLLINEAR =      F non collinear calculations
   LSORBIT =      F    spin-orbit coupling
   INIWAV =      1    electr: 0-lowe 1-rand  2-diag
   LASPH  =      F    aspherical Exc in radial PAW
   METAGGA=      F    non-selfconsistent MetaGGA calc.

 Electronic Relaxation 1
   ENCUT  =  290.0 eV  21.31 Ry    4.62 a.u.   3.31  3.31  5.53*2*pi/ulx,y,z
   ENINI  =  290.0     initial cutoff
   ENAUG  =  511.4 eV  augmentation charge cutoff
   NELM   =     60;   NELMIN=  2; NELMDL=  0     # of ELM steps 
   EDIFF  = 0.1E-05   stopping-criterion for ELM
   LREAL  =      F    real-space projection
   NLSPLINE    = F    spline interpolate recip. space projectors
   LCOMPAT=      F    compatible to vasp.4.4
   GGA_COMPAT  = T    GGA compatible to vasp.4.4-vasp.4.6
   LMAXPAW     = -100 max onsite density
   LMAXMIX     =    2 max onsite mixed and CHGCAR
   VOSKOWN=      0    Vosko Wilk Nusair interpolation
   ROPT   =    0.00000
 Ionic relaxation
   EDIFFG = 0.1E-04   stopping-criterion for IOM
   NSW    =      0    number of steps for IOM
   NBLOCK =      1;   KBLOCK =      1    inner block; outer block 
   IBRION =     -1    ionic relax: 0-MD 1-quasi-New 2-CG
   NFREE  =      0    steps in history (QN), initial steepest desc. (CG)
   ISIF   =      2    stress and relaxation
   IWAVPR =      0    prediction:  0-non 1-charg 2-wave 3-comb
   ISYM   =      2    0-nonsym 1-usesym 2-fastsym
   LCORR  =      T    Harris-Foulkes like correction to forces

   POTIM  = 0.5000    time-step for ionic-motion
   TEIN   =    0.0    initial temperature
   TEBEG  =    0.0;   TEEND  =   0.0 temperature during run
   SMASS  =  -3.00    Nose mass-parameter (am)
   estimated Nose-frequenzy (Omega)   =  0.10E-29 period in steps = 0.13E+47 mass=  -0.130E-27a.u.
   SCALEE = 1.0000    scale energy and forces
   NPACO  =    256;   APACO  = 16.0  distance and # of slots for P.C.
   PSTRESS=    0.0 pullay stress

  Mass of Ions in am
   POMASS =  55.85
  Ionic Valenz
   ZVAL   =   8.00
  Atomic Wigner-Seitz radii
   RWIGS  =  -1.00
  virtual crystal weights 
   VCA    =   1.00
   NELECT =      16.0000    total number of electrons
   NUPDOWN=      -1.0000    fix difference up-down

 DOS related values:
   EMIN   =  10.00;   EMAX   =-10.00  energy-range for DOS
   EFERMI =   0.00
   ISMEAR =     1;   SIGMA  =   0.20  broadening in eV -4-tet -1-fermi 0-gaus

 Electronic relaxation 2 (details)
   IALGO  =     38    algorithm
   LDIAG  =      T    sub-space diagonalisation (order eigenvalues)
   LSUBROT=      F    optimize rotation matrix (better conditioning)
   TURBO    =      0    0=normal 1=particle mesh
   IRESTART =      0    0=no restart 2=restart with 2 vectors
   NREBOOT  =      0    no. of reboots
   NMIN     =      0    reboot dimension
   EREF     =   0.00    reference energy to select bands
   IMIX   =      4    mixing-type and parameters
     AMIX     =   0.40;   BMIX     =  1.00
     AMIX_MAG =   1.60;   BMIX_MAG =  1.00
     AMIN     =   0.10
     WC   =   100.;   INIMIX=   1;  MIXPRE=   1;  MAXMIX= -45

 Intra band minimization:
   WEIMIN = 0.0000     energy-eigenvalue tresh-hold
   EBREAK =  0.62E-08  absolut break condition
   DEPER  =   0.30     relativ break condition  

   TIME   =   0.40     timestep for ELM

  volume/ion in A,a.u.               =       9.81        66.20
  Fermi-wavevector in a.u.,A,eV,Ry     =   1.529475  2.890288 31.828006  2.339292
  Thomas-Fermi vector in A             =   2.637090
 
 Write flags
   LWAVE        =      T    write WAVECAR
   LDOWNSAMPLE  =      F    k-point downsampling of WAVECAR
   LCHARG       =      T    write CHGCAR
   LVTOT        =      F    write LOCPOT, total local potential
   LVHAR        =      F    write LOCPOT, Hartree potential only
   LELF         =      F    write electronic localiz. function (ELF)
   LORBIT       =      0    0 simple, 1 ext, 2 COOP (PROOUT), +10 PAW based schemes


 Dipole corrections
   LMONO  =      F    monopole corrections only (constant potential shift)
   LDIPOL =      F    correct potential (dipole corrections)
   IDIPOL =      0    1-x, 2-y, 3-z, 4-all directions 
   EPSILON=  1.0000000 bulk dielectric constant

 Exchange correlation treatment:
   GGA     =    PE    GGA type
   LEXCH   =     8    internal setting for exchange type
   VOSKOWN=      0    Vosko Wilk Nusair interpolation
   LHFCALC =     F    Hartree Fock is set to
   LHFONE  =     F    Hartree Fock one center treatment
   AEXX    =    0.0000 exact exchange contribution

 Linear response parameters
   LEPSILON=     F    determine dielectric tensor
   LRPA    =     F    only Hartree local field effects (RPA)
   LNABLA  =     F    use nabla operator in PAW spheres
   LVEL    =     F    velocity operator in full k-point grid
   LINTERFAST=   F  fast interpolation
   KINTER  =     0    interpolate to denser k-point grid
   CSHIFT  =0.1000    complex shift for real part using Kramers Kronig
   OMEGAMAX=  -1.0    maximum frequency
   DEG_THRESHOLD= 0.2000000E-02 threshold for treating states as degnerate
   RTIME   =   -0.100 relaxation time in fs
  (WPLASMAI=    0.000 imaginary part of plasma frequency in eV, 0.658/RTIME)
   DFIELD  = 0.0000000 0.0000000 0.0000000 field for delta impulse in time
 
 Orbital magnetization related:
   ORBITALMAG=     F  switch on orbital magnetization
   LCHIMAG   =     F  perturbation theory with respect to B field
   DQ        =  0.001000  dq finite difference perturbation B field
   LLRAUG    =     F  two centre corrections for induced B field



--------------------------------------------------------------------------------------------------------


 Static calculation
 charge density and potential will be updated during run
 non-spin polarized calculation
 Variant of blocked Davidson
 Davidson routine will perform the subspace rotation
 perform sub-space diagonalisation
    after iterative eigenvector-optimisation
 modified Broyden-mixing scheme, WC =      100.0
 initial mixing is a Kerker type mixing with AMIX =  0.4000 and BMIX =      1.0000
 Hartree-type preconditioning will be used
 using additional bands           32
 reciprocal scheme for non local part
 use partial core corrections
 calculate Harris-corrections to forces 
   (improved forces if not selfconsistent)
 use gradient corrections 
 use of overlap-Matrix (Vanderbilt PP)
 Methfessel and Paxton  Order N= 1 SIGMA  =   0.20


--------------------------------------------------------------------------------------------------------


  energy-cutoff  :      290.00
  volume of cell :       19.62
      direct lattice vectors                 reciprocal lattice vectors
     2.385000000  0.000000000  0.000000000     0.419287212  0.242075585  0.000000000
    -1.192500000  2.065470588  0.000000000     0.000000000  0.484151169  0.000000000
     0.000000000  0.000000000  3.983000000     0.000000000  0.000000000  0.251067035

  length of vectors
     2.385000000  2.385000000  3.983000000     0.484151169  0.484151169  0.251067035


 
 old parameters found on file WAVECAR:
  energy-cutoff  :      290.00
  volume of cell :       19.33
      direct lattice vectors                 reciprocal lattice vectors
     2.390000000  0.000000000  0.000000000     0.418410042  0.241569150  0.000000000
    -1.195000000  2.069800715  0.000000000     0.000000000  0.483138301  0.000000000
     0.000000000  0.000000000  3.907600000     0.000000000  0.000000000  0.255911557

  length of vectors

 
 k-points in units of 2pi/SCALE and weight: KPOINTS created by Atomic Simulation Env
   0.00000000  0.00000000  0.00000000       0.008
   0.08385744  0.04841512  0.00000000       0.048
   0.16771488  0.09683023  0.00000000       0.048
   0.08385744  0.14524535  0.00000000       0.048
   0.16771488  0.19366047  0.00000000       0.048
   0.00000000  0.00000000  0.05021341       0.016
   0.08385744  0.04841512  0.05021341       0.096
   0.16771488  0.09683023  0.05021341       0.096
   0.08385744  0.14524535  0.05021341       0.096
   0.16771488  0.19366047  0.05021341       0.096
   0.00000000  0.00000000  0.10042681       0.016
   0.08385744  0.04841512  0.10042681       0.096
   0.16771488  0.09683023  0.10042681       0.096
   0.08385744  0.14524535  0.10042681       0.096
   0.16771488  0.19366047  0.10042681       0.096
 
 k-points in reciprocal lattice and weights: KPOINTS created by Atomic Simulation Env
   0.00000000  0.00000000  0.00000000       0.008
   0.20000000 -0.00000000  0.00000000       0.048
   0.40000000 -0.00000000  0.00000000       0.048
   0.20000000  0.20000000  0.00000000       0.048
   0.40000000  0.20000000  0.00000000       0.048
   0.00000000  0.00000000  0.20000000       0.016
   0.20000000 -0.00000000  0.20000000       0.096
   0.40000000 -0.00000000  0.20000000       0.096
   0.20000000  0.20000000  0.20000000       0.096
   0.40000000  0.20000000  0.20000000       0.096
   0.00000000  0.00000000  0.40000000       0.016
   0.20000000 -0.00000000  0.40000000       0.096
   0.40000000 -0.00000000  0.40000000       0.096
   0.20000000  0.20000000  0.40000000       0.096
   0.40000000  0.20000000  0.40000000       0.096
 
 position of ions in fractional coordinates (direct lattice) 
   0.00000000  0.00000000  0.00000000
   0.33333333  0.66666667  0.50000000
 
 position of ions in cartesian coordinates  (Angst):
   0.00000000  0.00000000  0.00000000
   0.00000000  1.37698039  1.99150000
 


--------------------------------------------------------------------------------------------------------


 k-point   1 :   0.0000 0.0000 0.0000  plane waves:     233
 k-point   2 :   0.2000-0.0000 0.0000  plane waves:     226
 k-point   3 :   0.4000-0.0000 0.0000  plane waves:     220
 k-point   4 :   0.2000 0.2000 0.0000  plane waves:     217
 k-point   5 :   0.4000 0.2000 0.0000  plane waves:     218
 k-point   6 :   0.0000 0.0000 0.2000  plane waves:     221
 k-point   7 :   0.2000-0.0000 0.2000  plane waves:     222
 k-point   8 :   0.4000-0.0000 0.2000  plane waves:     224
 k-point   9 :   0.2000 0.2000 0.2000  plane waves:     223
 k-point  10 :   0.4000 0.2000 0.2000  plane waves:     216
 k-point  11 :   0.0000 0.0000 0.4000  plane waves:     221
 k-point  12 :   0.2000-0.0000 0.4000  plane waves:     220
 k-point  13 :   0.4000-0.0000 0.4000  plane waves:     215
 k-point  14 :   0.2000 0.2000 0.4000  plane waves:     217
 k-point  15 :   0.4000 0.2000 0.4000  plane waves:     223

 maximum number of plane-waves:       233
 maximum index in each direction: 
   IXMAX=    3   IYMAX=    3   IZMAX=    5
   IXMIN=   -3   IYMIN=   -3   IZMIN=   -5


 total amount of memory used by VASP MPI-rank0    33935. kBytes
=======================================================================

   base      :      30000. kBytes
   nonl-proj :        510. kBytes
   grid      :        812. kBytes
   one-center:         31. kBytes
   wavefun   :       2582. kBytes
 
     INWAV:  cpu time    0.0031: real time    0.0031
 Broyden mixing: mesh for mixing (old mesh)
   NGX =  7   NGY =  7   NGZ = 11
  (NGX  = 20   NGY  = 20   NGZ  = 36)
  gives a total of    539 points

 initial charge density was supplied:
 charge density of overlapping atoms calculated
 number of electron      16.0000000 magnetization 
 keeping initial charge density in first step


--------------------------------------------------------------------------------------------------------


 Maximum index for augmentation-charges         3199 (set IRDMAX)


--------------------------------------------------------------------------------------------------------


 First call to EWALD:  gamma=   0.657
 Maximum number of real-space cells 3x 3x 2
 Maximum number of reciprocal cells 2x 2x 4

    FEWALD:  cpu time    0.0008: real time    0.0008


--------------------------------------- Iteration      1(   1)  ---------------------------------------


    POTLOK:  cpu time    0.0034: real time    0.0034
    SETDIJ:  cpu time    0.0021: real time    0.0021
     EDDAV:  cpu time    0.1693: real time    0.1895
       DOS:  cpu time    0.0010: real time    0.0010
    CHARGE:  cpu time    0.0040: real time    0.0040
    MIXING:  cpu time    0.0001: real time    0.0001
    --------------------------------------------
      LOOP:  cpu time    0.1799: real time    0.2002

 eigenvalue-minimisations  :  1872
 total energy-change (2. order) :-0.1942789E+02  (-0.2786962E+00)
 number of electron      16.0000036 magnetization 
 augmentation part        7.0844865 magnetization 

 Broyden mixing:
  rms(total) = 0.17592E+01    rms(broyden)= 0.17592E+01
  rms(prec ) = 0.30151E+01
  weight for this iteration     100.00

 Free energy of the ion-electron system (eV)
  ---------------------------------------------------
  alpha Z        PSCENC =       140.89867452
  Ewald energy   TEWEN  =     -1243.27983858
  -Hartree energ DENC   =      -201.25311506
  -exchange      EXHF   =         0.00000000
  -V(xc)+E(xc)   XCENC  =         8.72995915
  PAW double counting   =      1109.69170683    -1125.09647265
  entropy T*S    EENTRO =         0.00784207
  eigenvalues    EBANDS =       102.29650226
  atomic energy  EATOM  =      1188.57685479
  Solvation  Ediel_sol  =         0.00000000
  ---------------------------------------------------
  free energy    TOTEN  =       -19.42788667 eV

  energy without entropy =      -19.43572874  energy(sigma->0) =      -19.43050069


--------------------------------------------------------------------------------------------------------




--------------------------------------- Iteration      1(   2)  ---------------------------------------


    POTLOK:  cpu time    0.0033: real time    0.0033
    SETDIJ:  cpu time    0.0021: real time    0.0021
     EDDAV:  cpu time    0.1370: real time    0.1370
       DOS:  cpu time    0.0010: real time    0.0010
    CHARGE:  cpu time    0.0037: real time    0.0037
    MIXING:  cpu time    0.0002: real time    0.0002
    --------------------------------------------
      LOOP:  cpu time    0.1473: real time    0.1473

 eigenvalue-minimisations  :  1712
 total energy-change (2. order) : 0.2895416E+01  (-0.2019954E+00)
 number of electron      16.0000044 magnetization 
 augmentation part        8.4842075 magnetization 

 Broyden mixing:
  rms(total) = 0.23358E+00    rms(broyden)= 0.23338E+00
  rms(prec ) = 0.42311E+00
  weight for this iteration     100.00

 eigenvalues of (default mixing * dielectric matrix)
  average eigenvalue GAMMA=   0.9302
  0.9302

 Free energy of the ion-electron system (eV)
  ---------------------------------------------------
  alpha Z        PSCENC =       140.89867452
  Ewald energy   TEWEN  =     -1243.27983858
  -Hartree energ DENC   =      -167.51958538
  -exchange      EXHF   =         0.00000000
  -V(xc)+E(xc)   XCENC  =         7.07721516
  PAW double counting   =      1274.20271285    -1285.38993818
  entropy T*S    EENTRO =         0.00720121
  eigenvalues    EBANDS =        68.89423260
  atomic energy  EATOM  =      1188.57685479
  Solvation  Ediel_sol  =         0.00000000
  ---------------------------------------------------
  free energy    TOTEN  =       -16.53247101 eV

  energy without entropy =      -16.53967222  energy(sigma->0) =      -16.53487141


--------------------------------------------------------------------------------------------------------




--------------------------------------- Iteration      1(   3)  ---------------------------------------


    POTLOK:  cpu time    0.0033: real time    0.0033
    SETDIJ:  cpu time    0.0021: real time    0.0021
     EDDAV:  cpu time    0.1251: real time    0.1251
       DOS:  cpu time    0.0011: real time    0.0011
    CHARGE:  cpu time    0.0038: real time    0.0038
    MIXING:  cpu time    0.0002: real time    0.0002
    --------------------------------------------
      LOOP:  cpu time    0.1356: real time    0.1356

 eigenvalue-minimisations  :  1544
 total energy-change (2. order) : 0.1927410E+00  (-0.1190392E-01)
 number of electron      16.0000043 magnetization 
 augmentation part        8.1677264 magnetization 

 Broyden mixing:
  rms(total) = 0.12126E+00    rms(broyden)= 0.12124E+00
  rms(prec ) = 0.23393E+00
  weight for this iteration     100.00

 eigenvalues of (default mixing * dielectric matrix)
  average eigenvalue GAMMA=   0.9616
  1.2007  0.7225

 Free energy of the ion-electron system (eV)
  ---------------------------------------------------
  alpha Z        PSCENC =       140.89867452
  Ewald energy   TEWEN  =     -1243.27983858
  -Hartree energ DENC   =      -171.61957094
  -exchange      EXHF   =         0.00000000
  -V(xc)+E(xc)   XCENC  =         7.30968332
  PAW double counting   =      1357.81264881    -1372.54592793
  entropy T*S    EENTRO =        -0.00077756
  eigenvalues    EBANDS =        76.50852352
  atomic energy  EATOM  =      1188.57685479
  Solvation  Ediel_sol  =         0.00000000
  ---------------------------------------------------
  free energy    TOTEN  =       -16.33973004 eV

  energy without entropy =      -16.33895249  energy(sigma->0) =      -16.33947086


--------------------------------------------------------------------------------------------------------




--------------------------------------- Iteration      1(   4)  ---------------------------------------


    POTLOK:  cpu time    0.0033: real time    0.0033
    SETDIJ:  cpu time    0.0021: real time    0.0021
     EDDAV:  cpu time    0.1289: real time    0.1289
       DOS:  cpu time    0.0012: real time    0.0012
    CHARGE:  cpu time    0.0039: real time    0.0039
    MIXING:  cpu time    0.0002: real time    0.0002
    --------------------------------------------
      LOOP:  cpu time    0.1395: real time    0.1395

 eigenvalue-minimisations  :  1600
 total energy-change (2. order) : 0.2918896E-01  (-0.3635636E-03)
 number of electron      16.0000042 magnetization 
 augmentation part        8.2121086 magnetization 

 Broyden mixing:
  rms(total) = 0.51378E-01    rms(broyden)= 0.51371E-01
  rms(prec ) = 0.93456E-01
  weight for this iteration     100.00

 eigenvalues of (default mixing * dielectric matrix)
  average eigenvalue GAMMA=   1.4216
  0.7619  1.0303  2.4727

 Free energy of the ion-electron system (eV)
  ---------------------------------------------------
  alpha Z        PSCENC =       140.89867452
  Ewald energy   TEWEN  =     -1243.27983858
  -Hartree energ DENC   =      -169.40994118
  -exchange      EXHF   =         0.00000000
  -V(xc)+E(xc)   XCENC  =         7.21924680
  PAW double counting   =      1422.38078368    -1438.39015444
  entropy T*S    EENTRO =         0.00072785
  eigenvalues    EBANDS =        75.69310547
  atomic energy  EATOM  =      1188.57685479
  Solvation  Ediel_sol  =         0.00000000
  ---------------------------------------------------
  free energy    TOTEN  =       -16.31054109 eV

  energy without entropy =      -16.31126894  energy(sigma->0) =      -16.31078370


--------------------------------------------------------------------------------------------------------




--------------------------------------- Iteration      1(   5)  ---------------------------------------


    POTLOK:  cpu time    0.0034: real time    0.0034
    SETDIJ:  cpu time    0.0021: real time    0.0021
     EDDAV:  cpu time    0.1319: real time    0.1319
       DOS:  cpu time    0.0011: real time    0.0011
    CHARGE:  cpu time    0.0039: real time    0.0039
    MIXING:  cpu time    0.0002: real time    0.0002
    --------------------------------------------
      LOOP:  cpu time    0.1426: real time    0.1426

 eigenvalue-minimisations  :  1632
 total energy-change (2. order) : 0.1146709E-01  (-0.1161633E-03)
 number of electron      16.0000042 magnetization 
 augmentation part        8.2244814 magnetization 

 Broyden mixing:
  rms(total) = 0.59183E-02    rms(broyden)= 0.58972E-02
  rms(prec ) = 0.64138E-02
  weight for this iteration     100.00

 eigenvalues of (default mixing * dielectric matrix)
  average eigenvalue GAMMA=   1.5221
  2.6359  0.7568  1.0034  1.6921

 Free energy of the ion-electron system (eV)
  ---------------------------------------------------
  alpha Z        PSCENC =       140.89867452
  Ewald energy   TEWEN  =     -1243.27983858
  -Hartree energ DENC   =      -167.46861110
  -exchange      EXHF   =         0.00000000
  -V(xc)+E(xc)   XCENC  =         7.14927364
  PAW double counting   =      1509.73850707    -1527.52856795
  entropy T*S    EENTRO =         0.00140640
  eigenvalues    EBANDS =        75.61322721
  atomic energy  EATOM  =      1188.57685479
  Solvation  Ediel_sol  =         0.00000000
  ---------------------------------------------------
  free energy    TOTEN  =       -16.29907399 eV

  energy without entropy =      -16.30048040  energy(sigma->0) =      -16.29954279


--------------------------------------------------------------------------------------------------------




--------------------------------------- Iteration      1(   6)  ---------------------------------------


    POTLOK:  cpu time    0.0034: real time    0.0034
    SETDIJ:  cpu time    0.0021: real time    0.0021
     EDDAV:  cpu time    0.1229: real time    0.1229
       DOS:  cpu time    0.0011: real time    0.0011
    CHARGE:  cpu time    0.0038: real time    0.0038
    MIXING:  cpu time    0.0002: real time    0.0002
    --------------------------------------------
      LOOP:  cpu time    0.1334: real time    0.1334

 eigenvalue-minimisations  :  1544
 total energy-change (2. order) :-0.4435938E-04  (-0.3459252E-05)
 number of electron      16.0000042 magnetization 
 augmentation part        8.2276956 magnetization 

 Broyden mixing:
  rms(total) = 0.30464E-02    rms(broyden)= 0.30427E-02
  rms(prec ) = 0.53580E-02
  weight for this iteration     100.00

 eigenvalues of (default mixing * dielectric matrix)
  average eigenvalue GAMMA=   1.5946
  2.5765  2.5765  0.7539  1.0596  1.0065

 Free energy of the ion-electron system (eV)
  ---------------------------------------------------
  alpha Z        PSCENC =       140.89867452
  Ewald energy   TEWEN  =     -1243.27983858
  -Hartree energ DENC   =      -167.40677444
  -exchange      EXHF   =         0.00000000
  -V(xc)+E(xc)   XCENC  =         7.14782548
  PAW double counting   =      1515.02305696    -1532.80009691
  entropy T*S    EENTRO =         0.00153036
  eigenvalues    EBANDS =        75.53964947
  atomic energy  EATOM  =      1188.57685479
  Solvation  Ediel_sol  =         0.00000000
  ---------------------------------------------------
  free energy    TOTEN  =       -16.29911835 eV

  energy without entropy =      -16.30064871  energy(sigma->0) =      -16.29962847


--------------------------------------------------------------------------------------------------------




--------------------------------------- Iteration      1(   7)  ---------------------------------------


    POTLOK:  cpu time    0.0033: real time    0.0033
    SETDIJ:  cpu time    0.0021: real time    0.0021
     EDDAV:  cpu time    0.1259: real time    0.1259
       DOS:  cpu time    0.0011: real time    0.0011
    CHARGE:  cpu time    0.0037: real time    0.0037
    MIXING:  cpu time    0.0002: real time    0.0002
    --------------------------------------------
      LOOP:  cpu time    0.1364: real time    0.1364

 eigenvalue-minimisations  :  1544
 total energy-change (2. order) : 0.1606061E-04  (-0.1599727E-06)
 number of electron      16.0000042 magnetization 
 augmentation part        8.2262833 magnetization 

 Broyden mixing:
  rms(total) = 0.28779E-03    rms(broyden)= 0.28748E-03
  rms(prec ) = 0.42862E-03
  weight for this iteration     100.00

 eigenvalues of (default mixing * dielectric matrix)
  average eigenvalue GAMMA=   1.5691
  2.6147  2.4631  0.7534  1.0044  1.0044  1.5747

 Free energy of the ion-electron system (eV)
  ---------------------------------------------------
  alpha Z        PSCENC =       140.89867452
  Ewald energy   TEWEN  =     -1243.27983858
  -Hartree energ DENC   =      -167.50407944
  -exchange      EXHF   =         0.00000000
  -V(xc)+E(xc)   XCENC  =         7.15240634
  PAW double counting   =      1514.44208676    -1532.14983501
  entropy T*S    EENTRO =         0.00148652
  eigenvalues    EBANDS =        75.56314180
  atomic energy  EATOM  =      1188.57685479
  Solvation  Ediel_sol  =         0.00000000
  ---------------------------------------------------
  free energy    TOTEN  =       -16.29910229 eV

  energy without entropy =      -16.30058881  energy(sigma->0) =      -16.29959780


--------------------------------------------------------------------------------------------------------




--------------------------------------- Iteration      1(   8)  ---------------------------------------


    POTLOK:  cpu time    0.0033: real time    0.0033
    SETDIJ:  cpu time    0.0021: real time    0.0021
     EDDAV:  cpu time    0.0940: real time    0.0940
       DOS:  cpu time    0.0011: real time    0.0011
    --------------------------------------------
      LOOP:  cpu time    0.1005: real time    0.1005

 eigenvalue-minimisations  :  1056
 total energy-change (2. order) :-0.5960756E-06  (-0.4642156E-08)
 number of electron      16.0000042 magnetization 
 augmentation part        8.2262833 magnetization 

 Free energy of the ion-electron system (eV)
  ---------------------------------------------------
  alpha Z        PSCENC =       140.89867452
  Ewald energy   TEWEN  =     -1243.27983858
  -Hartree energ DENC   =      -167.49897955
  -exchange      EXHF   =         0.00000000
  -V(xc)+E(xc)   XCENC  =         7.15219403
  PAW double counting   =      1514.68253844    -1532.39265674
  entropy T*S    EENTRO =         0.00148919
  eigenvalues    EBANDS =        75.56062102
  atomic energy  EATOM  =      1188.57685479
  Solvation  Ediel_sol  =         0.00000000
  ---------------------------------------------------
  free energy    TOTEN  =       -16.29910289 eV

  energy without entropy =      -16.30059207  energy(sigma->0) =      -16.29959928


--------------------------------------------------------------------------------------------------------




 average (electrostatic) potential at core
  the test charge radii are     1.0103
  (the norm of the test charge is              1.0000)
       1 -42.2065       2 -42.2063
 
 
 
 E-fermi :   7.3871     XC(G=0): -14.0141     alpha+bet :-15.8000

 Fermi energy:         7.3870513159

 k-point     1 :       0.0000    0.0000    0.0000
  band No.  band energies     occupation 
      1      -1.7917      2.00000
      2       2.1781      2.00000
      3       5.4002      2.00000
      4       5.6611      2.00000
      5       5.6613      2.00000
      6       6.0660      2.00000
      7       6.0661      2.00000
      8       6.7683      2.00011
      9       6.7684      2.00011
     10       7.2111      2.01542
     11       8.1378     -0.00000
     12       8.1379     -0.00000
     13      15.7374      0.00000
     14      30.3038      0.00000
     15      32.7892      0.00000
     16      33.7269      0.00000
     17      35.4708      0.00000
     18      35.4709      0.00000
     19      36.2851      0.00000
     20      36.2854      0.00000
     21      39.6182      0.00000
     22      39.6182      0.00000
     23      39.9882      0.00000
     24      40.7704      0.00000
     25      43.6194      0.00000
     26      43.6194      0.00000
     27      45.3676      0.00000
     28      47.1802      0.00000
     29      47.1807      0.00000
     30      49.0941      0.00000
     31      49.0943      0.00000
     32      52.4924      0.00000
     33      60.9056      0.00000
     34      62.8442      0.00000
     35      62.8457      0.00000
     36      62.9851      0.00000
     37      64.3740      0.00000
     38      65.5132      0.00000
     39      65.5147      0.00000
     40      67.7162      0.00000

 k-point     2 :       0.2000   -0.0000    0.0000
  band No.  band energies     occupation 
      1      -0.2914      2.00000
      2       3.0512      2.00000
      3       4.6421      2.00000
      4       4.7743      2.00000
      5       5.5710      2.00000
      6       6.2965      2.00000
      7       6.3466      2.00000
      8       6.3690      2.00000
      9       6.5278      2.00000
     10       6.8437      2.00083
     11       8.2888     -0.00000
     12      11.8907     -0.00000
     13      15.8570      0.00000
     14      24.6013      0.00000
     15      29.3736      0.00000
     16      30.4205      0.00000
     17      30.8341      0.00000
     18      33.3226      0.00000
     19      36.1038      0.00000
     20      38.2917      0.00000
     21      38.2966      0.00000
     22      39.0193      0.00000
     23      40.3405      0.00000
     24      42.6134      0.00000
     25      44.6516      0.00000
     26      46.0538      0.00000
     27      47.7529      0.00000
     28      50.4280      0.00000
     29      51.9657      0.00000
     30      54.9706      0.00000
     31      55.1114      0.00000
     32      58.0318      0.00000
     33      58.1650      0.00000
     34      59.2562      0.00000
     35      59.9412      0.00000
     36      61.5739      0.00000
     37      63.3232      0.00000
     38      67.2009      0.00000
     39      67.3060      0.00000
     40      68.7308      0.00000

 k-point     3 :       0.4000   -0.0000    0.0000
  band No.  band energies     occupation 
      1       2.3184      2.00000
      2       2.8847      2.00000
      3       3.1256      2.00000
      4       5.0764      2.00000
      5       5.6642      2.00000
      6       5.6968      2.00000
      7       5.9106      2.00000
      8       8.1466     -0.00000
      9       8.3032     -0.00000
     10       8.3865     -0.00000
     11       8.7590     -0.00000
     12      14.6724      0.00000
     13      16.8321      0.00000
     14      18.8988      0.00000
     15      23.7182      0.00000
     16      25.0685      0.00000
     17      25.5780      0.00000
     18      31.2535      0.00000
     19      33.0578      0.00000
     20      35.9769      0.00000
     21      37.4195      0.00000
     22      40.1927      0.00000
     23      42.8593      0.00000
     24      43.9835      0.00000
     25      50.6388      0.00000
     26      52.3392      0.00000
     27      52.5311      0.00000
     28      56.3773      0.00000
     29      56.3855      0.00000
     30      56.4482      0.00000
     31      59.0652      0.00000
     32      59.8124      0.00000
     33      60.2813      0.00000
     34      60.6212      0.00000
     35      62.3305      0.00000
     36      64.3435      0.00000
     37      65.6577      0.00000
     38      66.5330      0.00000
     39      66.8408      0.00000
     40      66.9564      0.00000

 k-point     4 :       0.2000    0.2000    0.0000
  band No.  band energies     occupation 
      1       2.0841      2.00000
      2       3.5468      2.00000
      3       3.7985      2.00000
      4       3.9358      2.00000
      5       5.3367      2.00000
      6       5.6956      2.00000
      7       6.1318      2.00000
      8       6.8271      2.00055
      9       7.9737     -0.00027
     10       8.1921     -0.00000
     11       8.7463     -0.00000
     12      15.6338      0.00000
     13      16.5605      0.00000
     14      20.4553      0.00000
     15      21.3454      0.00000
     16      27.0965      0.00000
     17      28.5064      0.00000
     18      30.2405      0.00000
     19      31.0916      0.00000
     20      38.9707      0.00000
     21      39.0578      0.00000
     22      42.3283      0.00000
     23      43.5465      0.00000
     24      45.8904      0.00000
     25      45.9059      0.00000
     26      48.2612      0.00000
     27      49.3065      0.00000
     28      54.8018      0.00000
     29      55.2983      0.00000
     30      56.5323      0.00000
     31      56.7941      0.00000
     32      59.9464      0.00000
     33      59.9947      0.00000
     34      61.3209      0.00000
     35      62.9760      0.00000
     36      63.4645      0.00000
     37      63.6682      0.00000
     38      66.2080      0.00000
     39      66.9570      0.00000
     40      70.0592      0.00000

 k-point     5 :       0.4000    0.2000    0.0000
  band No.  band energies     occupation 
      1       3.1411      2.00000
      2       3.3040      2.00000
      3       3.4185      2.00000
      4       4.6265      2.00000
      5       5.2728      2.00000
      6       5.4186      2.00000
      7       6.2184      2.00000
      8       7.9347     -0.00075
      9       8.1053     -0.00000
     10       8.2488     -0.00000
     11      11.8628     -0.00000
     12      13.6232      0.00000
     13      18.7118      0.00000
     14      20.0726      0.00000
     15      20.5247      0.00000
     16      22.2823      0.00000
     17      24.7018      0.00000
     18      26.5799      0.00000
     19      29.3424      0.00000
     20      39.3643      0.00000
     21      42.1157      0.00000
     22      44.2897      0.00000
     23      46.0927      0.00000
     24      46.1795      0.00000
     25      49.9056      0.00000
     26      50.0463      0.00000
     27      51.5271      0.00000
     28      51.6013      0.00000
     29      54.0393      0.00000
     30      56.6759      0.00000
     31      56.8790      0.00000
     32      58.8523      0.00000
     33      60.6471      0.00000
     34      61.1787      0.00000
     35      65.8573      0.00000
     36      65.9516      0.00000
     37      67.8409      0.00000
     38      68.3273      0.00000
     39      68.3303      0.00000
     40      69.1450      0.00000

 k-point     6 :       0.0000    0.0000    0.2000
  band No.  band energies     occupation 
      1      -1.3686      2.00000
      2       2.0477      2.00000
      3       5.2691      2.00000
      4       5.5900      2.00000
      5       5.5901      2.00000
      6       5.9487      2.00000
      7       5.9488      2.00000
      8       6.1923      2.00000
      9       7.0172      2.02523
     10       7.0173      2.02525
     11       8.0960     -0.00001
     12       8.0960     -0.00001
     13      17.5652      0.00000
     14      29.5503      0.00000
     15      31.3291      0.00000
     16      32.9064      0.00000
     17      35.7489      0.00000
     18      35.7490      0.00000
     19      36.3730      0.00000
     20      36.3732      0.00000
     21      39.1835      0.00000
     22      39.1836      0.00000
     23      41.2423      0.00000
     24      41.9533      0.00000
     25      42.0904      0.00000
     26      42.0905      0.00000
     27      47.0075      0.00000
     28      48.5456      0.00000
     29      48.5459      0.00000
     30      51.0211      0.00000
     31      51.0212      0.00000
     32      52.0954      0.00000
     33      58.4940      0.00000
     34      61.6404      0.00000
     35      61.6407      0.00000
     36      61.7699      0.00000
     37      61.7707      0.00000
     38      63.5843      0.00000
     39      65.4141      0.00000
     40      67.4049      0.00000

 k-point     7 :       0.2000   -0.0000    0.2000
  band No.  band energies     occupation 
      1       0.0679      2.00000
      2       3.0315      2.00000
      3       4.3007      2.00000
      4       4.8737      2.00000
      5       5.3537      2.00000
      6       5.9621      2.00000
      7       6.1814      2.00000
      8       6.6502      2.00000
      9       6.9225      2.00493
     10       6.9474      2.00800
     11       8.1895     -0.00000
     12      10.4290     -0.00000
     13      18.1978      0.00000
     14      24.9091      0.00000
     15      28.8323      0.00000
     16      29.8747      0.00000
     17      31.1677      0.00000
     18      31.9033      0.00000
     19      35.2618      0.00000
     20      36.1854      0.00000
     21      38.3442      0.00000
     22      40.3782      0.00000
     23      41.8227      0.00000
     24      44.9697      0.00000
     25      45.9417      0.00000
     26      46.7168      0.00000
     27      46.7631      0.00000
     28      50.1660      0.00000
     29      51.7282      0.00000
     30      54.7433      0.00000
     31      55.1320      0.00000
     32      56.4349      0.00000
     33      57.1648      0.00000
     34      57.7765      0.00000
     35      61.7020      0.00000
     36      62.4574      0.00000
     37      63.9168      0.00000
     38      65.3269      0.00000
     39      65.9329      0.00000
     40      67.8473      0.00000

 k-point     8 :       0.4000   -0.0000    0.2000
  band No.  band energies     occupation 
      1       2.1683      2.00000
      2       2.8257      2.00000
      3       3.5889      2.00000
      4       4.3553      2.00000
      5       5.9011      2.00000
      6       5.9309      2.00000
      7       6.7525      2.00007
      8       7.9537     -0.00046
      9       8.1791     -0.00000
     10       8.4114     -0.00000
     11       8.4835     -0.00000
     12      12.8183     -0.00000
     13      17.4156      0.00000
     14      20.0393      0.00000
     15      22.9505      0.00000
     16      25.7342      0.00000
     17      27.3703      0.00000
     18      31.1335      0.00000
     19      33.1244      0.00000
     20      33.2241      0.00000
     21      37.6379      0.00000
     22      40.3608      0.00000
     23      41.6619      0.00000
     24      45.8420      0.00000
     25      50.0122      0.00000
     26      51.3272      0.00000
     27      54.0969      0.00000
     28      54.2180      0.00000
     29      56.3811      0.00000
     30      58.2225      0.00000
     31      58.6066      0.00000
     32      59.2634      0.00000
     33      60.8227      0.00000
     34      62.2233      0.00000
     35      62.5007      0.00000
     36      64.1690      0.00000
     37      65.3310      0.00000
     38      65.6742      0.00000
     39      68.2954      0.00000
     40      68.5435      0.00000

 k-point     9 :       0.2000    0.2000    0.2000
  band No.  band energies     occupation 
      1       2.2164      2.00000
      2       3.3641      2.00000
      3       4.0390      2.00000
      4       4.0451      2.00000
      5       5.3519      2.00000
      6       5.6015      2.00000
      7       6.0226      2.00000
      8       7.0156      2.02466
      9       7.8046     -0.01191
     10       8.1472     -0.00000
     11       8.8927     -0.00000
     12      12.8748      0.00000
     13      19.7860      0.00000
     14      20.8345      0.00000
     15      21.8091      0.00000
     16      25.7150      0.00000
     17      26.7771      0.00000
     18      32.2855      0.00000
     19      32.5884      0.00000
     20      35.7612      0.00000
     21      39.4967      0.00000
     22      42.1730      0.00000
     23      43.7213      0.00000
     24      43.7762      0.00000
     25      47.8142      0.00000
     26      49.2333      0.00000
     27      50.4027      0.00000
     28      52.4340      0.00000
     29      54.0534      0.00000
     30      57.5247      0.00000
     31      59.8075      0.00000
     32      60.2463      0.00000
     33      60.5562      0.00000
     34      60.7357      0.00000
     35      61.2290      0.00000
     36      64.1126      0.00000
     37      64.8847      0.00000
     38      66.3537      0.00000
     39      67.2171      0.00000
     40      67.8084      0.00000

 k-point    10 :       0.4000    0.2000    0.2000
  band No.  band energies     occupation 
      1       2.8876      2.00000
      2       3.4250      2.00000
      3       4.0007      2.00000
      4       4.1443      2.00000
      5       5.0879      2.00000
      6       5.7525      2.00000
      7       6.3973      2.00000
      8       7.7023     -0.04833
      9       7.9653     -0.00034
     10       8.3420     -0.00000
     11      12.0265     -0.00000
     12      13.4895      0.00000
     13      18.2225      0.00000
     14      18.8252      0.00000
     15      20.0160      0.00000
     16      24.4409      0.00000
     17      25.1924      0.00000
     18      26.5295      0.00000
     19      31.5988      0.00000
     20      38.3333      0.00000
     21      39.5516      0.00000
     22      40.7963      0.00000
     23      45.8287      0.00000
     24      46.4257      0.00000
     25      50.0746      0.00000
     26      51.2690      0.00000
     27      52.7972      0.00000
     28      53.0373      0.00000
     29      55.8598      0.00000
     30      57.3022      0.00000
     31      57.8299      0.00000
     32      58.3383      0.00000
     33      61.4583      0.00000
     34      61.6087      0.00000
     35      65.1998      0.00000
     36      65.8165      0.00000
     37      66.3006      0.00000
     38      67.7750      0.00000
     39      68.1333      0.00000
     40      69.0445      0.00000

 k-point    11 :       0.0000    0.0000    0.4000
  band No.  band energies     occupation 
      1      -0.2040      2.00000
      2       1.2482      2.00000
      3       5.0012      2.00000
      4       5.0684      2.00000
      5       5.5685      2.00000
      6       5.5686      2.00000
      7       5.7172      2.00000
      8       5.7173      2.00000
      9       7.4960      0.21240
     10       7.4961      0.21212
     11       7.8984     -0.00179
     12       7.8985     -0.00179
     13      21.4356      0.00000
     14      25.8690      0.00000
     15      30.8978      0.00000
     16      31.6148      0.00000
     17      36.3597      0.00000
     18      36.3597      0.00000
     19      36.5200      0.00000
     20      36.5201      0.00000
     21      38.8074      0.00000
     22      38.8076      0.00000
     23      39.8782      0.00000
     24      39.8784      0.00000
     25      43.2546      0.00000
     26      43.6642      0.00000
     27      50.1003      0.00000
     28      51.3508      0.00000
     29      51.6704      0.00000
     30      51.6706      0.00000
     31      53.7870      0.00000
     32      53.7872      0.00000
     33      56.3116      0.00000
     34      57.5672      0.00000
     35      57.5675      0.00000
     36      58.9916      0.00000
     37      59.0331      0.00000
     38      59.0335      0.00000
     39      65.4066      0.00000
     40      68.0369      0.00000

 k-point    12 :       0.2000   -0.0000    0.4000
  band No.  band energies     occupation 
      1       1.0534      2.00000
      2       2.3209      2.00000
      3       4.2436      2.00000
      4       4.7656      2.00000
      5       5.1858      2.00000
      6       5.6109      2.00000
      7       6.2116      2.00000
      8       6.4193      2.00000
      9       7.4077      0.82587
     10       7.7080     -0.04569
     11       7.8807     -0.00266
     12       8.7862     -0.00000
     13      22.3246      0.00000
     14      25.8277      0.00000
     15      26.5972      0.00000
     16      27.6012      0.00000
     17      31.3022      0.00000
     18      32.3203      0.00000
     19      33.3381      0.00000
     20      33.4959      0.00000
     21      41.3790      0.00000
     22      42.9766      0.00000
     23      43.2559      0.00000
     24      44.7949      0.00000
     25      44.8483      0.00000
     26      46.8768      0.00000
     27      49.4362      0.00000
     28      50.5401      0.00000
     29      51.8059      0.00000
     30      53.4766      0.00000
     31      53.6004      0.00000
     32      54.1358      0.00000
     33      56.8879      0.00000
     34      59.5863      0.00000
     35      60.6999      0.00000
     36      62.8142      0.00000
     37      63.0556      0.00000
     38      64.2945      0.00000
     39      64.5746      0.00000
     40      66.2485      0.00000

 k-point    13 :       0.4000   -0.0000    0.4000
  band No.  band energies     occupation 
      1       2.2078      2.00000
      2       2.5815      2.00000
      3       3.8334      2.00000
      4       4.1463      2.00000
      5       6.4660      2.00000
      6       6.4795      2.00000
      7       7.2391      1.94611
      8       7.5039      0.17430
      9       8.2564     -0.00000
     10       8.3492     -0.00000
     11       8.4773     -0.00000
     12      10.3803     -0.00000
     13      18.2197      0.00000
     14      19.3728      0.00000
     15      25.4832      0.00000
     16      27.5537      0.00000
     17      28.3380      0.00000
     18      30.1594      0.00000
     19      31.0451      0.00000
     20      32.0378      0.00000
     21      36.5643      0.00000
     22      39.7054      0.00000
     23      44.0365      0.00000
     24      46.0887      0.00000
     25      47.7982      0.00000
     26      49.8260      0.00000
     27      54.9055      0.00000
     28      55.0009      0.00000
     29      56.5656      0.00000
     30      57.3734      0.00000
     31      59.0374      0.00000
     32      61.1473      0.00000
     33      62.7181      0.00000
     34      63.1865      0.00000
     35      63.2982      0.00000
     36      64.2278      0.00000
     37      64.8857      0.00000
     38      65.9084      0.00000
     39      67.9601      0.00000
     40      69.5267      0.00000

 k-point    14 :       0.2000    0.2000    0.4000
  band No.  band energies     occupation 
      1       2.5670      2.00000
      2       3.0068      2.00000
      3       4.3727      2.00000
      4       4.4309      2.00000
      5       5.1387      2.00000
      6       5.1654      2.00000
      7       6.2834      2.00000
      8       6.9100      2.00381
      9       8.0129     -0.00009
     10       8.3805     -0.00000
     11       9.0872     -0.00000
     12      10.3751     -0.00000
     13      21.8397      0.00000
     14      22.6080      0.00000
     15      23.0610      0.00000
     16      24.6211      0.00000
     17      25.2183      0.00000
     18      29.3215      0.00000
     19      35.7791      0.00000
     20      37.3808      0.00000
     21      39.1298      0.00000
     22      40.7129      0.00000
     23      41.6114      0.00000
     24      41.8610      0.00000
     25      48.1301      0.00000
     26      48.9274      0.00000
     27      52.8810      0.00000
     28      53.5913      0.00000
     29      55.8265      0.00000
     30      58.3112      0.00000
     31      58.3226      0.00000
     32      59.7536      0.00000
     33      60.7709      0.00000
     34      61.1746      0.00000
     35      61.7512      0.00000
     36      62.0875      0.00000
     37      64.9545      0.00000
     38      66.6794      0.00000
     39      68.0624      0.00000
     40      68.9559      0.00000

 k-point    15 :       0.4000    0.2000    0.4000
  band No.  band energies     occupation 
      1       2.9085      2.00000
      2       3.2711      2.00000
      3       4.0654      2.00000
      4       4.5843      2.00000
      5       4.9347      2.00000
      6       5.7212      2.00000
      7       6.7430      2.00005
      8       7.0573      2.04165
      9       8.1277     -0.00000
     10       8.3662     -0.00000
     11      12.4455     -0.00000
     12      13.0485      0.00000
     13      17.3473      0.00000
     14      17.4737      0.00000
     15      21.0770      0.00000
     16      22.7748      0.00000
     17      28.3019      0.00000
     18      29.5872      0.00000
     19      34.4688      0.00000
     20      34.8526      0.00000
     21      36.1786      0.00000
     22      39.1984      0.00000
     23      43.2312      0.00000
     24      44.2635      0.00000
     25      52.4798      0.00000
     26      53.2611      0.00000
     27      54.0977      0.00000
     28      54.7756      0.00000
     29      55.7781      0.00000
     30      58.1969      0.00000
     31      59.3076      0.00000
     32      61.0736      0.00000
     33      62.8805      0.00000
     34      62.9473      0.00000
     35      63.4730      0.00000
     36      65.2238      0.00000
     37      65.8632      0.00000
     38      67.6776      0.00000
     39      68.0790      0.00000
     40      68.9550      0.00000


--------------------------------------------------------------------------------------------------------


 soft charge-density along one line, spin component           1
         0         1         2         3         4         5         6         7         8         9
x     7.7737    0.0000    0.1147   -0.1987   -0.0616   -0.1066    0.0156   -0.0000    0.0017   -0.0029
x     0.0000    0.0000
y     7.7737    0.0000    0.1147    0.1987   -0.0616    0.1066    0.0156    0.0000    0.0017    0.0029
y     0.0000    0.0000
z     7.7737    0.0000    0.0000   -0.0000    0.2881    0.0000    0.0000   -0.0000   -0.1589   -0.0000
z     0.0000    0.0000    0.0202   -0.0000    0.0000    0.0000    0.0046   -0.0000    0.0000    0.0000
 total charge-density along one line
x    16.0000    0.0000    1.5098   -2.6150    0.3139    0.5437    0.0341    0.0000    0.0002   -0.0004
x     0.0004    0.0006   -0.0007    0.0000    0.0001   -0.0001   -0.0001   -0.0001    0.0001   -0.0000
x    -0.0000    0.0000
y    16.0000    0.0000    1.5098    2.6150    0.3139   -0.5437    0.0341   -0.0000    0.0002    0.0004
y     0.0004   -0.0006   -0.0007   -0.0000    0.0001    0.0001   -0.0001    0.0001    0.0001    0.0000
y    -0.0000   -0.0000
z    16.0000    0.0000   -0.0000    0.0000    5.7069    0.0000   -0.0000    0.0000    1.1301   -0.0000
z    -0.0000   -0.0000    0.0065   -0.0000   -0.0000   -0.0000    0.0059   -0.0000    0.0000    0.0000
z    -0.0008   -0.0000    0.0000    0.0000    0.0004    0.0000    0.0000    0.0000   -0.0002    0.0000
z     0.0000   -0.0000    0.0002    0.0000   -0.0000    0.0000   -0.0001   -0.0000
 
 pseudopotential strength for first ion, spin component:           1
 -4.168  -0.000  -0.000  -0.000  -0.000  -4.740  -0.000  -0.000
 -0.000  -4.159  -0.000  -0.000   0.000  -0.000  -4.731  -0.000
 -0.000  -0.000  -4.170  -0.000  -0.000  -0.000  -0.000  -4.741
 -0.000  -0.000  -0.000  -4.159  -0.000  -0.000  -0.000  -0.000
 -0.000   0.000  -0.000  -0.000  -4.168  -0.000   0.000  -0.000
 -4.740  -0.000  -0.000  -0.000  -0.000  -5.268  -0.000  -0.000
 -0.000  -4.731  -0.000  -0.000   0.000  -0.000  -5.259  -0.000
 -0.000  -0.000  -4.741  -0.000  -0.000  -0.000  -0.000  -5.270
 -0.000  -0.000  -0.000  -4.731  -0.000  -0.000  -0.000  -0.000
 -0.000   0.000  -0.000  -0.000  -4.739  -0.000   0.000  -0.000
  0.000   0.000   0.000   0.000  -0.000   0.000   0.000   0.000
  0.000   0.000   0.001   0.000  -0.000   0.000   0.000   0.000
 -0.000   0.000   0.000  -0.000  -0.001  -0.000   0.000   0.000
 -0.000  -0.000   0.000   0.000  -0.000  -0.000  -0.000   0.000
 -0.001  -0.000   0.000   0.000  -0.000  -0.001  -0.000   0.000
 -0.000   0.000   0.000  -0.000  -0.001  -0.000   0.000   0.000
 -0.000  -0.000   0.000   0.000  -0.000  -0.000  -0.000   0.000
 -0.001  -0.000   0.000   0.000  -0.000  -0.001  -0.000   0.000
 total augmentation occupancy for first ion, spin component:           1
  1.638   0.000  -0.000  -0.000   0.000  -1.016   0.000   0.000   0.000   0.000   0.000  -0.000   0.000   0.000   0.038  -0.000
 -0.000   2.012  -0.000   0.000   0.000   0.000  -1.219   0.000   0.000   0.000   0.000   0.000  -0.000  -0.000  -0.000   0.000
 -0.000   0.000   1.358   0.000  -0.000   0.000  -0.000  -0.840   0.000   0.000   0.027  -0.003  -0.000   0.000   0.000   0.000
  0.000   0.000   0.000   2.012   0.000   0.000   0.000   0.000  -1.219   0.000   0.000   0.000   0.000   0.000  -0.000   0.000
  0.000   0.000  -0.000  -0.000   1.638   0.000   0.000   0.000   0.000  -1.016   0.000  -0.000   0.038  -0.000   0.000  -0.002
 -1.016  -0.000   0.000   0.000   0.000   1.755   0.000   0.000   0.000   0.000  -0.000  -0.000   0.000   0.000  -0.056   0.000
  0.000  -1.219   0.000   0.000  -0.000   0.000   1.785   0.000  -0.000   0.000  -0.000   0.000   0.000   0.000  -0.000  -0.000
  0.000   0.000  -0.840  -0.000   0.000   0.000   0.000   1.666   0.000  -0.000  -0.039   0.001   0.000   0.000   0.000  -0.000
  0.000   0.000   0.000  -1.219   0.000  -0.000  -0.000   0.000   1.785  -0.000   0.000   0.000   0.000   0.000   0.000   0.000
  0.000   0.000   0.000   0.000  -1.016  -0.000   0.000  -0.000  -0.000   1.755  -0.000   0.000  -0.056   0.000   0.000   0.003
  0.000  -0.000   0.027   0.000   0.000   0.000   0.000  -0.039   0.000  -0.000   2.779  -0.328   0.000   0.000   0.000   0.000
 -0.000   0.000  -0.003   0.000  -0.000  -0.000   0.000   0.001   0.000   0.000  -0.328   0.043   0.000   0.000  -0.000   0.000
  0.000   0.000   0.000   0.000   0.038   0.000  -0.000   0.000   0.000  -0.056   0.000   0.000   0.359   0.000   0.000  -0.030
  0.000   0.000   0.000   0.000   0.000   0.000   0.000   0.000   0.000   0.000   0.000   0.000  -0.000   0.364   0.000  -0.000
  0.038   0.000   0.000  -0.000   0.000  -0.056   0.000   0.000  -0.000  -0.000   0.000   0.000   0.000   0.000   0.359   0.000
  0.000  -0.000   0.000   0.000  -0.002   0.000   0.000  -0.000   0.000   0.003  -0.000  -0.000  -0.030  -0.000   0.000   0.003
  0.000   0.000   0.000   0.000   0.000  -0.000   0.000   0.000   0.000   0.000   0.000   0.000  -0.000  -0.031   0.000   0.000
 -0.002   0.000   0.000   0.000  -0.000   0.003  -0.000   0.000   0.000   0.000   0.000  -0.000   0.000  -0.000  -0.030   0.000


------------------------ aborting loop because EDIFF is reached ----------------------------------------


    CHARGE:  cpu time    0.0037: real time    0.0037
    FORLOC:  cpu time    0.0002: real time    0.0002
    FORNL :  cpu time    0.0172: real time    0.0172
    STRESS:  cpu time    0.0284: real time    0.0284
    FORCOR:  cpu time    0.0034: real time    0.0034
    FORHAR:  cpu time    0.0007: real time    0.0007
    MIXING:  cpu time    0.0002: real time    0.0002

  FORCE on cell =-STRESS in cart. coord.  units (eV):
  Direction    XX          YY          ZZ          XY          YZ          ZX
  --------------------------------------------------------------------------------------
  Alpha Z   140.89867   140.89867   140.89867
  Ewald    -410.64116  -410.64116  -421.99794     0.00000     0.00000     0.00000
  Hartree    57.03894    57.03894    53.42274    -0.00000    -0.00000    -0.00000
  E(xc)     -78.92775   -78.92785   -78.86315     0.00033    -0.00000     0.00000
  Local     119.76679   119.76708   133.45128    -0.00099     0.00000     0.00000
  n-local   -53.66245   -51.65181   -53.04305    -3.41880     1.27407     1.06639
  augment    75.60497    75.60413    75.72862     0.00137    -0.00000     0.00000
  Kinetic   152.33152   149.58915   149.87631    -0.01030    -1.06909    -0.45174
  Fock        0.00000     0.00000     0.00000     0.00000     0.00000     0.00000
  -------------------------------------------------------------------------------------
  Total       2.04336     2.04336    -0.52651     0.00000    -0.00000     0.00000
  in kB     166.85417   166.85417   -42.99298     0.00000    -0.00000     0.00000
  external pressure =       96.91 kB  Pullay stress =        0.00 kB


 VOLUME and BASIS-vectors are now :
 -----------------------------------------------------------------------------
  energy-cutoff  :      290.00
  volume of cell :       19.62
      direct lattice vectors                 reciprocal lattice vectors
     2.385000000  0.000000000  0.000000000     0.419287212  0.242075585  0.000000000
    -1.192500000  2.065470588  0.000000000     0.000000000  0.484151169  0.000000000
     0.000000000  0.000000000  3.983000000     0.000000000  0.000000000  0.251067035

  length of vectors
     2.385000000  2.385000000  3.983000000     0.484151169  0.484151169  0.251067035


 FORCES acting on ions
    electron-ion (+dipol)            ewald-force                    non-local-force                 convergence-correction
 -----------------------------------------------------------------------------------------------
   0.954E-07 -.207E-05 0.120E-14   0.776E-12 -.453E-12 -.202E-13   0.566E-17 -.127E-16 -.284E-18   0.657E-09 -.365E-09 -.483E-13
   0.236E-05 0.870E-05 0.232E-12   -.775E-12 0.454E-12 0.201E-13   -.266E-17 0.147E-16 0.184E-18   -.723E-09 0.400E-09 0.469E-13
 -----------------------------------------------------------------------------------------------
   0.246E-05 0.663E-05 0.234E-12   0.910E-15 0.698E-15 -.919E-17   0.299E-17 0.207E-17 -.100E-18   -.654E-10 0.350E-10 -.142E-14
 
 
 POSITION                                       TOTAL-FORCE (eV/Angst)
 -----------------------------------------------------------------------------------
      0.00000      0.00000      0.00000        -0.000000     -0.000000     -0.000000
      0.00000      1.37698      1.99150         0.000000      0.000000      0.000000
 -----------------------------------------------------------------------------------
    total drift:                                0.000002      0.000007      0.000000


--------------------------------------------------------------------------------------------------------



  FREE ENERGIE OF THE ION-ELECTRON SYSTEM (eV)
  ---------------------------------------------------
  free  energy   TOTEN  =       -16.29910289 eV

  energy  without entropy=      -16.30059207  energy(sigma->0) =      -16.29959928
 


--------------------------------------------------------------------------------------------------------


    POTLOK:  cpu time    0.0054: real time    0.0054


--------------------------------------------------------------------------------------------------------


 writing wavefunctions
     LOOP+:  cpu time    1.1898: real time    1.2101
    4ORBIT:  cpu time    0.0000: real time    0.0000

 total amount of memory used by VASP MPI-rank0    33935. kBytes
=======================================================================

   base      :      30000. kBytes
   nonl-proj :        510. kBytes
   grid      :        812. kBytes
   one-center:         31. kBytes
   wavefun   :       2582. kBytes
 
  
  
 General timing and accounting informations for this job:
 ========================================================
  
                  Total CPU time used (sec):        1.289
                            User time (sec):        1.272
                          System time (sec):        0.016
                         Elapsed time (sec):        1.297
  
                   Maximum memory used (kb):       37880.
                   Average memory used (kb):          N/A
  
                          Minor page faults:         3200
                          Major page faults:            0
                 Voluntary context switches:           27
