<?xml version="1.0" encoding="ISO-8859-1"?>
<modeling>
 <generator>
  <i name="program" type="string">vasp </i>
  <i name="version" type="string">6.2.0  </i>
  <i name="subversion" type="string">18Jan21 (build Mar 17 2021 09:06:54) complex                          serial </i>
  <i name="platform" type="string">LinuxIFC </i>
  <i name="date" type="string">2021 09 09 </i>
  <i name="time" type="string">10:11:02 </i>
 </generator>
 <incar>
  <i type="string" name="PREC">normal</i>
  <i type="int" name="ICHARG">     1</i>
  <i type="int" name="IBRION">    -1</i>
  <i name="EDIFF">      0.00000100</i>
  <i type="int" name="NSW">     0</i>
  <i name="ENCUT">    290.00000000</i>
  <i type="int" name="NBANDS">    40</i>
  <i type="int" name="ISMEAR">     1</i>
  <i name="SIGMA">      0.20000000</i>
  <i type="logical" name="LCHARG"> T  </i>
  <i type="int" name="KPAR">     1</i>
  <i type="int" name="NCORE">     1</i>
  <i type="string" name="GGA">PE</i>
 </incar>
 <primitive_cell>
  <structure name="primitive_cell" >
   <crystal>
    <varray name="basis" >
     <v>       2.38500000       0.00000000       0.00000000 </v>
     <v>      -1.19250000       2.06547059       0.00000000 </v>
     <v>       0.00000000       0.00000000       3.98300000 </v>
    </varray>
    <i name="volume">     19.62084490 </i>
    <varray name="rec_basis" >
     <v>       0.41928721       0.24207558       0.00000000 </v>
     <v>       0.00000000       0.48415117       0.00000000 </v>
     <v>       0.00000000       0.00000000       0.25106703 </v>
    </varray>
   </crystal>
   <varray name="positions" >
    <v>       0.00000000       0.00000000       0.00000000 </v>
    <v>       0.33333333       0.66666667       0.50000000 </v>
   </varray>
  </structure>
  <varray name="primitive_index" >
   <v type="int" >        1 </v>
   <v type="int" >        2 </v>
  </varray>
 </primitive_cell>
 <kpoints>
  <generation param="Monkhorst-Pack">
   <v type="int" name="divisions">       5        5        5 </v>
   <v name="usershift">      0.00000000       0.00000000       0.00000000 </v>
   <v name="genvec1">      0.20000000      -0.00000000       0.00000000 </v>
   <v name="genvec2">      0.00000000       0.20000000       0.00000000 </v>
   <v name="genvec3">      0.00000000       0.00000000       0.20000000 </v>
   <v name="shift">      0.00000000       0.00000000       0.00000000 </v>
  </generation>
  <varray name="kpointlist" >
   <v>       0.00000000       0.00000000       0.00000000 </v>
   <v>       0.20000000      -0.00000000       0.00000000 </v>
   <v>       0.40000000      -0.00000000       0.00000000 </v>
   <v>       0.20000000       0.20000000       0.00000000 </v>
   <v>       0.40000000       0.20000000       0.00000000 </v>
   <v>       0.00000000       0.00000000       0.20000000 </v>
   <v>       0.20000000      -0.00000000       0.20000000 </v>
   <v>       0.40000000      -0.00000000       0.20000000 </v>
   <v>       0.20000000       0.20000000       0.20000000 </v>
   <v>       0.40000000       0.20000000       0.20000000 </v>
   <v>       0.00000000       0.00000000       0.40000000 </v>
   <v>       0.20000000      -0.00000000       0.40000000 </v>
   <v>       0.40000000      -0.00000000       0.40000000 </v>
   <v>       0.20000000       0.20000000       0.40000000 </v>
   <v>       0.40000000       0.20000000       0.40000000 </v>
  </varray>
  <varray name="weights" >
   <v>       0.00800000 </v>
   <v>       0.04800000 </v>
   <v>       0.04800000 </v>
   <v>       0.04800000 </v>
   <v>       0.04800000 </v>
   <v>       0.01600000 </v>
   <v>       0.09600000 </v>
   <v>       0.09600000 </v>
   <v>       0.09600000 </v>
   <v>       0.09600000 </v>
   <v>       0.01600000 </v>
   <v>       0.09600000 </v>
   <v>       0.09600000 </v>
   <v>       0.09600000 </v>
   <v>       0.09600000 </v>
  </varray>
 </kpoints>
 <parameters>
  <separator name="general" >
   <i type="string" name="SYSTEM">unknown system</i>
   <i type="logical" name="LCOMPAT"> F  </i>
  </separator>
  <separator name="electronic" >
   <i type="string" name="PREC">normal</i>
   <i name="ENMAX">    290.00000000</i>
   <i name="ENAUG">    511.36800000</i>
   <i name="EDIFF">      0.00000100</i>
   <i type="int" name="IALGO">    38</i>
   <i type="int" name="IWAVPR">     0</i>
   <i type="int" name="NBANDS">    40</i>
   <i type="int" name="NBANDSLOW">    -1</i>
   <i type="int" name="NBANDSHIGH">    -1</i>
   <i name="NELECT">     16.00000000</i>
   <i type="int" name="TURBO">     0</i>
   <i type="int" name="IRESTART">     0</i>
   <i type="int" name="NREBOOT">     0</i>
   <i type="int" name="NMIN">     0</i>
   <i name="EREF">      0.00000000</i>
   <separator name="electronic smearing" >
    <i type="int" name="ISMEAR">     1</i>
    <i name="SIGMA">      0.20000000</i>
    <i name="KSPACING">      0.50000000</i>
    <i type="logical" name="KGAMMA"> T  </i>
    <i type="logical" name="KBLOWUP"> T  </i>
   </separator>
   <separator name="electronic projectors" >
    <i type="logical" name="LREAL"> F  </i>
    <v name="ROPT">      0.00000000</v>
    <i type="int" name="LMAXPAW">  -100</i>
    <i type="int" name="LMAXMIX">     2</i>
    <i type="logical" name="NLSPLINE"> F  </i>
   </separator>
   <separator name="electronic startup" >
    <i type="int" name="ISTART">     1</i>
    <i type="int" name="ICHARG">     1</i>
    <i type="int" name="INIWAV">     1</i>
   </separator>
   <separator name="electronic spin" >
    <i type="int" name="ISPIN">     1</i>
    <i type="logical" name="LNONCOLLINEAR"> F  </i>
    <v name="MAGMOM">      1.00000000      1.00000000</v>
    <i name="NUPDOWN">     -1.00000000</i>
    <i type="logical" name="LSORBIT"> F  </i>
    <v name="SAXIS">      0.00000000      0.00000000      1.00000000</v>
    <i type="logical" name="LSPIRAL"> F  </i>
    <v name="QSPIRAL">      0.00000000      0.00000000      0.00000000</v>
    <i type="logical" name="LZEROZ"> F  </i>
   </separator>
   <separator name="electronic exchange-correlation" >
    <i type="logical" name="LASPH"> F  </i>
    <i type="logical" name="LMETAGGA"> F  </i>
   </separator>
   <separator name="electronic convergence" >
    <i type="int" name="NELM">    60</i>
    <i type="int" name="NELMDL">     0</i>
    <i type="int" name="NELMIN">     2</i>
    <i name="ENINI">    290.00000000</i>
    <separator name="electronic convergence detail" >
     <i type="logical" name="LDIAG"> T  </i>
     <i type="logical" name="LSUBROT"> F  </i>
     <i name="WEIMIN">      0.00000000</i>
     <i name="EBREAK">      0.00000001</i>
     <i name="DEPER">      0.30000000</i>
     <i type="int" name="NRMM">     4</i>
     <i name="TIME">      0.40000000</i>
    </separator>
   </separator>
   <separator name="electronic mixer" >
    <i name="AMIX">      0.40000000</i>
    <i name="BMIX">      1.00000000</i>
    <i name="AMIN">      0.10000000</i>
    <i name="AMIX_MAG">      1.60000000</i>
    <i name="BMIX_MAG">      1.00000000</i>
    <separator name="electronic mixer details" >
     <i type="int" name="IMIX">     4</i>
     <i type="logical" name="MIXFIRST"> F  </i>
     <i type="int" name="MAXMIX">   -45</i>
     <i name="WC">    100.00000000</i>
     <i type="int" name="INIMIX">     1</i>
     <i type="int" name="MIXPRE">     1</i>
     <i type="int" name="MREMOVE">     5</i>
    </separator>
   </separator>
   <separator name="electronic dipolcorrection" >
    <i type="logical" name="LDIPOL"> F  </i>
    <i type="logical" name="LMONO"> F  </i>
    <i type="int" name="IDIPOL">     0</i>
    <i name="EPSILON">      1.00000000</i>
    <v name="DIPOL">   -100.00000000   -100.00000000   -100.00000000</v>
    <i name="EFIELD">      0.00000000</i>
   </separator>
  </separator>
  <separator name="grids" >
   <i type="int" name="NGX">    10</i>
   <i type="int" name="NGY">    10</i>
   <i type="int" name="NGZ">    18</i>
   <i type="int" name="NGXF">    20</i>
   <i type="int" name="NGYF">    20</i>
   <i type="int" name="NGZF">    36</i>
   <i type="logical" name="ADDGRID"> F  </i>
  </separator>
  <separator name="ionic" >
   <i type="int" name="NSW">     0</i>
   <i type="int" name="IBRION">    -1</i>
   <i type="int" name="MDALGO">     0</i>
   <i type="int" name="ISIF">     2</i>
   <i name="PSTRESS">      0.00000000</i>
   <i name="EDIFFG">      0.00001000</i>
   <i type="int" name="NFREE">     0</i>
   <i name="POTIM">      0.50000000</i>
   <i name="SMASS">     -3.00000000</i>
   <i name="SCALEE">      1.00000000</i>
  </separator>
  <separator name="ionic md" >
   <i name="TEBEG">      0.00010000</i>
   <i name="TEEND">      0.00010000</i>
   <i type="int" name="NBLOCK">     1</i>
   <i type="int" name="KBLOCK">     1</i>
   <i type="int" name="NPACO">   256</i>
   <i name="APACO">     16.00000000</i>
  </separator>
  <separator name="symmetry" >
   <i type="int" name="ISYM">     2</i>
   <i name="SYMPREC">      0.00001000</i>
  </separator>
  <separator name="dos" >
   <i type="int" name="LORBIT">     0</i>
   <v name="RWIGS">     -1.00000000</v>
   <i type="int" name="NEDOS">   301</i>
   <i name="EMIN">     10.00000000</i>
   <i name="EMAX">    -10.00000000</i>
   <i name="EFERMI">      0.00000000</i>
  </separator>
  <separator name="writing" >
   <i type="int" name="NWRITE">     2</i>
   <i type="logical" name="LWAVE"> T  </i>
   <i type="logical" name="LDOWNSAMPLE"> F  </i>
   <i type="logical" name="LCHARG"> T  </i>
   <i type="logical" name="LPARD"> F  </i>
   <i type="logical" name="LVTOT"> F  </i>
   <i type="logical" name="LVHAR"> F  </i>
   <i type="logical" name="LELF"> F  </i>
   <i type="logical" name="LOPTICS"> F  </i>
   <v name="STM">      0.00000000      0.00000000      0.00000000      0.00000000      0.00000000      0.00000000      0.00000000</v>
  </separator>
  <separator name="performance" >
   <i type="int" name="NPAR">     1</i>
   <i type="int" name="NSIM">     4</i>
   <i type="int" name="NBLK">    -1</i>
   <i type="logical" name="LPLANE"> T  </i>
   <i type="logical" name="LSCALAPACK"> F  </i>
   <i type="logical" name="LSCAAWARE"> F  </i>
   <i type="logical" name="LSCALU"> F  </i>
   <i type="logical" name="LASYNC"> F  </i>
   <i type="logical" name="LORBITALREAL"> F  </i>
  </separator>
  <separator name="miscellaneous" >
   <i type="int" name="IDIOT">     3</i>
   <i type="int" name="PHON_NSTRUCT">    -1</i>
   <i type="logical" name="LMUSIC"> F  </i>
   <v name="POMASS">     55.84700000</v>
   <v name="DARWINR">      0.00000000</v>
   <v name="DARWINV">      1.00000000</v>
   <i type="logical" name="LCORR"> T  </i>
  </separator>
  <i type="logical" name="GGA_COMPAT"> T  </i>
  <i type="logical" name="LBERRY"> F  </i>
  <i type="int" name="ICORELEVEL">     0</i>
  <i type="logical" name="LDAU"> F  </i>
  <i type="int" name="I_CONSTRAINED_M">     0</i>
  <separator name="electronic exchange-correlation" >
   <i type="string" name="GGA">PE</i>
   <i type="int" name="VOSKOWN">     0</i>
   <i type="logical" name="LHFCALC"> F  </i>
   <i type="string" name="PRECFOCK"></i>
   <i type="logical" name="LSYMGRAD"> F  </i>
   <i type="logical" name="LHFONE"> F  </i>
   <i type="logical" name="LRHFCALC"> F  </i>
   <i type="logical" name="LTHOMAS"> F  </i>
   <i type="logical" name="LMODELHF"> F  </i>
   <i type="logical" name="LFOCKACE"> F  </i>
   <i name="ENCUT4O">     -1.00000000</i>
   <i type="int" name="EXXOEP">     0</i>
   <i type="int" name="FOURORBIT">     0</i>
   <i name="AEXX">      0.00000000</i>
   <i name="HFALPHA">      0.00000000</i>
   <i name="MCALPHA">      0.00000000</i>
   <i name="ALDAX">      1.00000000</i>
   <i name="AGGAX">      1.00000000</i>
   <i name="ALDAC">      1.00000000</i>
   <i name="AGGAC">      1.00000000</i>
   <i type="int" name="NKREDX">     1</i>
   <i type="int" name="NKREDY">     1</i>
   <i type="int" name="NKREDZ">     1</i>
   <i type="logical" name="SHIFTRED"> F  </i>
   <i type="logical" name="ODDONLY"> F  </i>
   <i type="logical" name="EVENONLY"> F  </i>
   <i type="int" name="LMAXFOCK">     0</i>
   <i type="int" name="NMAXFOCKAE">     0</i>
   <i type="logical" name="LFOCKAEDFT"> F  </i>
   <i name="HFSCREEN">      0.00000000</i>
   <i name="HFSCREENC">      0.00000000</i>
   <i type="int" name="NBANDSGWLOW">     0</i>
  </separator>
  <separator name="vdW DFT" >
   <i type="logical" name="LUSE_VDW"> F  </i>
   <i name="Zab_VDW">     -0.84910000</i>
   <i name="PARAM1">      0.12340000</i>
   <i name="PARAM2">      1.00000000</i>
   <i name="PARAM3">      0.00000000</i>
  </separator>
  <separator name="model GW" >
   <i type="int" name="MODEL_GW">     0</i>
   <i name="MODEL_EPS0">      5.88625347</i>
   <i name="MODEL_ALPHA">      1.00000000</i>
  </separator>
  <separator name="linear response parameters" >
   <i type="logical" name="LEPSILON"> F  </i>
   <i type="logical" name="LRPA"> F  </i>
   <i type="logical" name="LNABLA"> F  </i>
   <i type="logical" name="LVEL"> F  </i>
   <i type="int" name="KINTER">     0</i>
   <i name="CSHIFT">      0.10000000</i>
   <i name="OMEGAMAX">     -1.00000000</i>
   <i name="DEG_THRESHOLD">      0.00200000</i>
   <i name="RTIME">     -0.10000000</i>
   <i name="WPLASMAI">      0.00000000</i>
   <v name="DFIELD">      0.00000000      0.00000000      0.00000000</v>
   <v name="WPLASMA">      0.00000000      0.00000000      0.00000000      0.00000000      0.00000000      0.00000000      0.00000000      0.00000000      0.00000000</v>
  </separator>
  <separator name="orbital magnetization" >
   <i type="logical" name="NUCIND"> F  </i>
   <v name="MAGPOS">      0.00000000      0.00000000      0.00000000</v>
   <i type="logical" name="LNICSALL"> T  </i>
   <i type="logical" name="ORBITALMAG"> F  </i>
   <i type="logical" name="LMAGBLOCH"> F  </i>
   <i type="logical" name="LCHIMAG"> F  </i>
   <i type="logical" name="LGAUGE"> T  </i>
   <i type="int" name="MAGATOM">     0</i>
   <v name="MAGDIPOL">      0.00000000      0.00000000      0.00000000</v>
   <v name="AVECCONST">      0.00000000      0.00000000      0.00000000</v>
  </separator>
  <separator name="response functions" >
   <i type="logical" name="LFINITE_TEMPERATURE"> F  </i>
   <i type="logical" name="LADDER"> F  </i>
   <i type="logical" name="LRPAFORCE"> F  </i>
   <i type="logical" name="LFXC"> F  </i>
   <i type="logical" name="LHARTREE"> T  </i>
   <i type="int" name="IBSE">     0</i>
   <v type="int" name="KPOINT">    -1     0     0     0</v>
   <i type="logical" name="LTCTC"> F  </i>
   <i type="logical" name="LTCTE"> F  </i>
   <i type="logical" name="LTETE"> F  </i>
   <i type="logical" name="LTRIPLET"> F  </i>
   <i type="logical" name="LFXCEPS"> F  </i>
   <i type="logical" name="LFXHEG"> F  </i>
   <i type="int" name="NATURALO">     2</i>
   <i type="logical" name="LHOLEGF"> F  </i>
   <i type="logical" name="L2ORDER"> F  </i>
   <i type="logical" name="LDMP1"> F  </i>
   <i type="logical" name="LMP2LT"> F  </i>
   <i type="logical" name="LSMP2LT"> F  </i>
   <i type="logical" name="LGWLF"> F  </i>
   <i name="ENCUTGW">     -2.00000000</i>
   <i name="ENCUTGWSOFT">     -2.00000000</i>
   <i name="ENCUTLF">     -1.00000000</i>
   <i type="logical" name="LESF_SPLINES"> F  </i>
   <i type="int" name="LMAXMP2">    -1</i>
   <i name="SCISSOR">      0.00000000</i>
   <i type="int" name="NOMEGA">     0</i>
   <i type="int" name="NOMEGAR">     0</i>
   <i type="int" name="NBANDSGW">    -1</i>
   <i type="int" name="NBANDSO">    -1</i>
   <i type="int" name="NBANDSV">    -1</i>
   <i type="int" name="NELM">     1</i>
   <i type="int" name="NELMHF">     1</i>
   <i type="int" name="DIM">     3</i>
   <i type="int" name="IESPILON">     4</i>
   <i type="int" name="ANTIRES">     0</i>
   <i name="OMEGAMAX">    -30.00000000</i>
   <i name="OMEGAMIN">    -30.00000000</i>
   <i name="OMEGATL">   -200.00000000</i>
   <i type="int" name="OMEGAGRID">     0</i>
   <i name="CSHIFT">     -0.10000000</i>
   <i type="logical" name="LSELFENERGY"> F  </i>
   <i type="logical" name="LSPECTRAL"> F  </i>
   <i type="logical" name="LSPECTRALGW"> F  </i>
   <i type="logical" name="LSINGLES"> F  </i>
   <i type="logical" name="LFERMIGW"> F  </i>
   <i type="logical" name="ODDONLYGW"> F  </i>
   <i type="logical" name="EVENONLYGW"> F  </i>
   <i type="int" name="NKREDLFX">     1</i>
   <i type="int" name="NKREDLFY">     1</i>
   <i type="int" name="NKREDLFZ">     1</i>
   <i type="int" name="MAXMEM">  2800</i>
   <i type="int" name="TELESCOPE">     0</i>
   <i type="int" name="NTAUPAR">    -1</i>
   <i type="int" name="NOMEGAPAR">    -1</i>
   <i name="DAMP_NEWTON">      0.80000001</i>
   <i name="LAMBDA">      1.00000000</i>
  </separator>
  <separator name="External order field" >
   <i name="OFIELD_KAPPA">      0.00000000</i>
   <v name="OFIELD_K">      0.00000000      0.00000000      0.00000000</v>
   <i name="OFIELD_Q6_NEAR">      0.00000000</i>
   <i name="OFIELD_Q6_FAR">      0.00000000</i>
   <i name="OFIELD_A">      0.00000000</i>
  </separator>
 </parameters>
 <atominfo>
  <atoms>       2 </atoms>
  <types>       1 </types>
  <array name="atoms" >
   <dimension dim="1">ion</dimension>
   <field type="string">element</field>
   <field type="int">atomtype</field>
   <set>
    <rc><c>Fe</c><c>   1</c></rc>
    <rc><c>Fe</c><c>   1</c></rc>
   </set>
  </array>
  <array name="atomtypes" >
   <dimension dim="1">type</dimension>
   <field type="int">atomspertype</field>
   <field type="string">element</field>
   <field>mass</field>
   <field>valence</field>
   <field type="string">pseudopotential</field>
   <set>
    <rc><c>   2</c><c>Fe</c><c>     55.84700000</c><c>      8.00000000</c><c>  PAW_PBE Fe 06Sep2000                  </c></rc>
   </set>
  </array>
 </atominfo>
 <structure name="initialpos" >
  <crystal>
   <varray name="basis" >
    <v>       2.38500000       0.00000000       0.00000000 </v>
    <v>      -1.19250000       2.06547059       0.00000000 </v>
    <v>       0.00000000       0.00000000       3.98300000 </v>
   </varray>
   <i name="volume">     19.62084490 </i>
   <varray name="rec_basis" >
    <v>       0.41928721       0.24207558       0.00000000 </v>
    <v>       0.00000000       0.48415117       0.00000000 </v>
    <v>       0.00000000       0.00000000       0.25106703 </v>
   </varray>
  </crystal>
  <varray name="positions" >
   <v>       0.00000000       0.00000000       0.00000000 </v>
   <v>       0.33333333       0.66666667       0.50000000 </v>
  </varray>
 </structure>
 <calculation>
  <scstep>
   <time name="dav">    0.17    0.19</time>
   <time name="total">    0.18    0.20</time>
   <energy>
    <i name="alphaZ">    140.89867452 </i>
    <i name="ewald">  -1243.27983858 </i>
    <i name="hartreedc">   -201.25311506 </i>
    <i name="XCdc">      8.72995915 </i>
    <i name="pawpsdc">   1109.69170683 </i>
    <i name="pawaedc">  -1125.09647265 </i>
    <i name="eentropy">      0.00784207 </i>
    <i name="bandstr">    102.29650226 </i>
    <i name="atom">   1188.57685479 </i>
    <i name="e_fr_energy">    -19.42788667 </i>
    <i name="e_wo_entrp">    -19.43572874 </i>
    <i name="e_0_energy">    -19.43050069 </i>
   </energy>
  </scstep>
  <scstep>
   <time name="dav">    0.14    0.14</time>
   <time name="total">    0.15    0.15</time>
   <energy>
    <i name="e_fr_energy">    -16.53247101 </i>
    <i name="e_wo_entrp">    -16.53967222 </i>
    <i name="e_0_energy">    -16.53487141 </i>
   </energy>
  </scstep>
  <scstep>
   <time name="dav">    0.13    0.13</time>
   <time name="total">    0.14    0.14</time>
   <energy>
    <i name="e_fr_energy">    -16.33973004 </i>
    <i name="e_wo_entrp">    -16.33895249 </i>
    <i name="e_0_energy">    -16.33947086 </i>
   </energy>
  </scstep>
  <scstep>
   <time name="dav">    0.13    0.13</time>
   <time name="total">    0.14    0.14</time>
   <energy>
    <i name="e_fr_energy">    -16.31054109 </i>
    <i name="e_wo_entrp">    -16.31126894 </i>
    <i name="e_0_energy">    -16.31078370 </i>
   </energy>
  </scstep>
  <scstep>
   <time name="dav">    0.13    0.13</time>
   <time name="total">    0.14    0.14</time>
   <energy>
    <i name="e_fr_energy">    -16.29907399 </i>
    <i name="e_wo_entrp">    -16.30048040 </i>
    <i name="e_0_energy">    -16.29954279 </i>
   </energy>
  </scstep>
  <scstep>
   <time name="dav">    0.12    0.12</time>
   <time name="total">    0.13    0.13</time>
   <energy>
    <i name="e_fr_energy">    -16.29911835 </i>
    <i name="e_wo_entrp">    -16.30064871 </i>
    <i name="e_0_energy">    -16.29962847 </i>
   </energy>
  </scstep>
  <scstep>
   <time name="dav">    0.13    0.13</time>
   <time name="total">    0.14    0.14</time>
   <energy>
    <i name="e_fr_energy">    -16.29910229 </i>
    <i name="e_wo_entrp">    -16.30058881 </i>
    <i name="e_0_energy">    -16.29959780 </i>
   </energy>
  </scstep>
  <scstep>
   <time name="dav">    0.09    0.09</time>
   <time name="total">    0.10    0.10</time>
   <energy>
    <i name="alphaZ">    140.89867452 </i>
    <i name="ewald">  -1243.27983858 </i>
    <i name="hartreedc">   -167.49897955 </i>
    <i name="XCdc">      7.15219403 </i>
    <i name="pawpsdc">   1514.68253844 </i>
    <i name="pawaedc">  -1532.39265674 </i>
    <i name="eentropy">      0.00148919 </i>
    <i name="bandstr">     75.56062102 </i>
    <i name="atom">   1188.57685479 </i>
    <i name="e_fr_energy">    -16.29910289 </i>
    <i name="e_wo_entrp">    -16.30059207 </i>
    <i name="e_0_energy">    -16.29959928 </i>
   </energy>
  </scstep>
  <structure>
   <crystal>
    <varray name="basis" >
     <v>       2.38500000       0.00000000       0.00000000 </v>
     <v>      -1.19250000       2.06547059       0.00000000 </v>
     <v>       0.00000000       0.00000000       3.98300000 </v>
    </varray>
    <i name="volume">     19.62084490 </i>
    <varray name="rec_basis" >
     <v>       0.41928721       0.24207558       0.00000000 </v>
     <v>       0.00000000       0.48415117       0.00000000 </v>
     <v>       0.00000000       0.00000000       0.25106703 </v>
    </varray>
   </crystal>
   <varray name="positions" >
    <v>       0.00000000       0.00000000       0.00000000 </v>
    <v>       0.33333333       0.66666667       0.50000000 </v>
   </varray>
  </structure>
  <varray name="forces" >
   <v>      -0.00000000      -0.00000000      -0.00000000 </v>
   <v>       0.00000000       0.00000000       0.00000000 </v>
  </varray>
  <varray name="stress" >
   <v>     166.85417447       0.00000000       0.00000000 </v>
   <v>       0.00000000     166.85417447       0.00000000 </v>
   <v>       0.00000000      -0.00000000     -42.99298115 </v>
  </varray>
  <energy>
   <i name="e_fr_energy">    -16.29910289 </i>
   <i name="e_wo_entrp">    -16.30059207 </i>
   <i name="e_0_energy">    -16.29959928 </i>
  </energy>
  <time name="totalsc">    1.19    1.21</time>
  <eigenvalues>
   <array>
    <dimension dim="1">band</dimension>
    <dimension dim="2">kpoint</dimension>
    <dimension dim="3">spin</dimension>
    <field>eigene</field>
    <field>occ</field>
    <set>
     <set comment="spin 1">
      <set comment="kpoint 1">
       <r>   -1.7917    1.0000 </r>
       <r>    2.1781    1.0000 </r>
       <r>    5.4002    1.0000 </r>
       <r>    5.6611    1.0000 </r>
       <r>    5.6613    1.0000 </r>
       <r>    6.0660    1.0000 </r>
       <r>    6.0661    1.0000 </r>
       <r>    6.7683    1.0001 </r>
       <r>    6.7684    1.0001 </r>
       <r>    7.2111    1.0077 </r>
       <r>    8.1378   -0.0000 </r>
       <r>    8.1379   -0.0000 </r>
       <r>   15.7374    0.0000 </r>
       <r>   30.3038    0.0000 </r>
       <r>   32.7892    0.0000 </r>
       <r>   33.7269    0.0000 </r>
       <r>   35.4708    0.0000 </r>
       <r>   35.4709    0.0000 </r>
       <r>   36.2851    0.0000 </r>
       <r>   36.2854    0.0000 </r>
       <r>   39.6182    0.0000 </r>
       <r>   39.6182    0.0000 </r>
       <r>   39.9882    0.0000 </r>
       <r>   40.7704    0.0000 </r>
       <r>   43.6194    0.0000 </r>
       <r>   43.6194    0.0000 </r>
       <r>   45.3676    0.0000 </r>
       <r>   47.1802    0.0000 </r>
       <r>   47.1807    0.0000 </r>
       <r>   49.0941    0.0000 </r>
       <r>   49.0943    0.0000 </r>
       <r>   52.4924    0.0000 </r>
       <r>   60.9056    0.0000 </r>
       <r>   62.8442    0.0000 </r>
       <r>   62.8457    0.0000 </r>
       <r>   62.9851    0.0000 </r>
       <r>   64.3740    0.0000 </r>
       <r>   65.5132    0.0000 </r>
       <r>   65.5147    0.0000 </r>
       <r>   67.7162    0.0000 </r>
      </set>
      <set comment="kpoint 2">
       <r>   -0.2914    1.0000 </r>
       <r>    3.0512    1.0000 </r>
       <r>    4.6421    1.0000 </r>
       <r>    4.7743    1.0000 </r>
       <r>    5.5710    1.0000 </r>
       <r>    6.2965    1.0000 </r>
       <r>    6.3466    1.0000 </r>
       <r>    6.3690    1.0000 </r>
       <r>    6.5278    1.0000 </r>
       <r>    6.8437    1.0004 </r>
       <r>    8.2888   -0.0000 </r>
       <r>   11.8907   -0.0000 </r>
       <r>   15.8570    0.0000 </r>
       <r>   24.6013    0.0000 </r>
       <r>   29.3736    0.0000 </r>
       <r>   30.4205    0.0000 </r>
       <r>   30.8341    0.0000 </r>
       <r>   33.3226    0.0000 </r>
       <r>   36.1038    0.0000 </r>
       <r>   38.2917    0.0000 </r>
       <r>   38.2966    0.0000 </r>
       <r>   39.0193    0.0000 </r>
       <r>   40.3405    0.0000 </r>
       <r>   42.6134    0.0000 </r>
       <r>   44.6516    0.0000 </r>
       <r>   46.0538    0.0000 </r>
       <r>   47.7529    0.0000 </r>
       <r>   50.4280    0.0000 </r>
       <r>   51.9657    0.0000 </r>
       <r>   54.9706    0.0000 </r>
       <r>   55.1114    0.0000 </r>
       <r>   58.0318    0.0000 </r>
       <r>   58.1650    0.0000 </r>
       <r>   59.2562    0.0000 </r>
       <r>   59.9412    0.0000 </r>
       <r>   61.5739    0.0000 </r>
       <r>   63.3232    0.0000 </r>
       <r>   67.2009    0.0000 </r>
       <r>   67.3060    0.0000 </r>
       <r>   68.7308    0.0000 </r>
      </set>
      <set comment="kpoint 3">
       <r>    2.3184    1.0000 </r>
       <r>    2.8847    1.0000 </r>
       <r>    3.1256    1.0000 </r>
       <r>    5.0764    1.0000 </r>
       <r>    5.6642    1.0000 </r>
       <r>    5.6968    1.0000 </r>
       <r>    5.9106    1.0000 </r>
       <r>    8.1466   -0.0000 </r>
       <r>    8.3032   -0.0000 </r>
       <r>    8.3865   -0.0000 </r>
       <r>    8.7590   -0.0000 </r>
       <r>   14.6724    0.0000 </r>
       <r>   16.8321    0.0000 </r>
       <r>   18.8988    0.0000 </r>
       <r>   23.7182    0.0000 </r>
       <r>   25.0685    0.0000 </r>
       <r>   25.5780    0.0000 </r>
       <r>   31.2535    0.0000 </r>
       <r>   33.0578    0.0000 </r>
       <r>   35.9769    0.0000 </r>
       <r>   37.4195    0.0000 </r>
       <r>   40.1927    0.0000 </r>
       <r>   42.8593    0.0000 </r>
       <r>   43.9835    0.0000 </r>
       <r>   50.6388    0.0000 </r>
       <r>   52.3392    0.0000 </r>
       <r>   52.5311    0.0000 </r>
       <r>   56.3773    0.0000 </r>
       <r>   56.3855    0.0000 </r>
       <r>   56.4482    0.0000 </r>
       <r>   59.0652    0.0000 </r>
       <r>   59.8124    0.0000 </r>
       <r>   60.2813    0.0000 </r>
       <r>   60.6212    0.0000 </r>
       <r>   62.3305    0.0000 </r>
       <r>   64.3435    0.0000 </r>
       <r>   65.6577    0.0000 </r>
       <r>   66.5330    0.0000 </r>
       <r>   66.8408    0.0000 </r>
       <r>   66.9564    0.0000 </r>
      </set>
      <set comment="kpoint 4">
       <r>    2.0841    1.0000 </r>
       <r>    3.5468    1.0000 </r>
       <r>    3.7985    1.0000 </r>
       <r>    3.9358    1.0000 </r>
       <r>    5.3367    1.0000 </r>
       <r>    5.6956    1.0000 </r>
       <r>    6.1318    1.0000 </r>
       <r>    6.8271    1.0003 </r>
       <r>    7.9737   -0.0001 </r>
       <r>    8.1921   -0.0000 </r>
       <r>    8.7463   -0.0000 </r>
       <r>   15.6338    0.0000 </r>
       <r>   16.5605    0.0000 </r>
       <r>   20.4553    0.0000 </r>
       <r>   21.3454    0.0000 </r>
       <r>   27.0965    0.0000 </r>
       <r>   28.5064    0.0000 </r>
       <r>   30.2405    0.0000 </r>
       <r>   31.0916    0.0000 </r>
       <r>   38.9707    0.0000 </r>
       <r>   39.0578    0.0000 </r>
       <r>   42.3283    0.0000 </r>
       <r>   43.5465    0.0000 </r>
       <r>   45.8904    0.0000 </r>
       <r>   45.9059    0.0000 </r>
       <r>   48.2612    0.0000 </r>
       <r>   49.3065    0.0000 </r>
       <r>   54.8018    0.0000 </r>
       <r>   55.2983    0.0000 </r>
       <r>   56.5323    0.0000 </r>
       <r>   56.7941    0.0000 </r>
       <r>   59.9464    0.0000 </r>
       <r>   59.9947    0.0000 </r>
       <r>   61.3209    0.0000 </r>
       <r>   62.9760    0.0000 </r>
       <r>   63.4645    0.0000 </r>
       <r>   63.6682    0.0000 </r>
       <r>   66.2080    0.0000 </r>
       <r>   66.9570    0.0000 </r>
       <r>   70.0592    0.0000 </r>
      </set>
      <set comment="kpoint 5">
       <r>    3.1411    1.0000 </r>
       <r>    3.3040    1.0000 </r>
       <r>    3.4185    1.0000 </r>
       <r>    4.6265    1.0000 </r>
       <r>    5.2728    1.0000 </r>
       <r>    5.4186    1.0000 </r>
       <r>    6.2184    1.0000 </r>
       <r>    7.9347   -0.0004 </r>
       <r>    8.1053   -0.0000 </r>
       <r>    8.2488   -0.0000 </r>
       <r>   11.8628   -0.0000 </r>
       <r>   13.6232    0.0000 </r>
       <r>   18.7118    0.0000 </r>
       <r>   20.0726    0.0000 </r>
       <r>   20.5247    0.0000 </r>
       <r>   22.2823    0.0000 </r>
       <r>   24.7018    0.0000 </r>
       <r>   26.5799    0.0000 </r>
       <r>   29.3424    0.0000 </r>
       <r>   39.3643    0.0000 </r>
       <r>   42.1157    0.0000 </r>
       <r>   44.2897    0.0000 </r>
       <r>   46.0927    0.0000 </r>
       <r>   46.1795    0.0000 </r>
       <r>   49.9056    0.0000 </r>
       <r>   50.0463    0.0000 </r>
       <r>   51.5271    0.0000 </r>
       <r>   51.6013    0.0000 </r>
       <r>   54.0393    0.0000 </r>
       <r>   56.6759    0.0000 </r>
       <r>   56.8790    0.0000 </r>
       <r>   58.8523    0.0000 </r>
       <r>   60.6471    0.0000 </r>
       <r>   61.1787    0.0000 </r>
       <r>   65.8573    0.0000 </r>
       <r>   65.9516    0.0000 </r>
       <r>   67.8409    0.0000 </r>
       <r>   68.3273    0.0000 </r>
       <r>   68.3303    0.0000 </r>
       <r>   69.1450    0.0000 </r>
      </set>
      <set comment="kpoint 6">
       <r>   -1.3686    1.0000 </r>
       <r>    2.0477    1.0000 </r>
       <r>    5.2691    1.0000 </r>
       <r>    5.5900    1.0000 </r>
       <r>    5.5901    1.0000 </r>
       <r>    5.9487    1.0000 </r>
       <r>    5.9488    1.0000 </r>
       <r>    6.1923    1.0000 </r>
       <r>    7.0172    1.0126 </r>
       <r>    7.0173    1.0126 </r>
       <r>    8.0960   -0.0000 </r>
       <r>    8.0960   -0.0000 </r>
       <r>   17.5652    0.0000 </r>
       <r>   29.5503    0.0000 </r>
       <r>   31.3291    0.0000 </r>
       <r>   32.9064    0.0000 </r>
       <r>   35.7489    0.0000 </r>
       <r>   35.7490    0.0000 </r>
       <r>   36.3730    0.0000 </r>
       <r>   36.3732    0.0000 </r>
       <r>   39.1835    0.0000 </r>
       <r>   39.1836    0.0000 </r>
       <r>   41.2423    0.0000 </r>
       <r>   41.9533    0.0000 </r>
       <r>   42.0904    0.0000 </r>
       <r>   42.0905    0.0000 </r>
       <r>   47.0075    0.0000 </r>
       <r>   48.5456    0.0000 </r>
       <r>   48.5459    0.0000 </r>
       <r>   51.0211    0.0000 </r>
       <r>   51.0212    0.0000 </r>
       <r>   52.0954    0.0000 </r>
       <r>   58.4940    0.0000 </r>
       <r>   61.6404    0.0000 </r>
       <r>   61.6407    0.0000 </r>
       <r>   61.7699    0.0000 </r>
       <r>   61.7707    0.0000 </r>
       <r>   63.5843    0.0000 </r>
       <r>   65.4141    0.0000 </r>
       <r>   67.4049    0.0000 </r>
      </set>
      <set comment="kpoint 7">
       <r>    0.0679    1.0000 </r>
       <r>    3.0315    1.0000 </r>
       <r>    4.3007    1.0000 </r>
       <r>    4.8737    1.0000 </r>
       <r>    5.3537    1.0000 </r>
       <r>    5.9621    1.0000 </r>
       <r>    6.1814    1.0000 </r>
       <r>    6.6502    1.0000 </r>
       <r>    6.9225    1.0025 </r>
       <r>    6.9474    1.0040 </r>
       <r>    8.1895   -0.0000 </r>
       <r>   10.4290   -0.0000 </r>
       <r>   18.1978    0.0000 </r>
       <r>   24.9091    0.0000 </r>
       <r>   28.8323    0.0000 </r>
       <r>   29.8747    0.0000 </r>
       <r>   31.1677    0.0000 </r>
       <r>   31.9033    0.0000 </r>
       <r>   35.2618    0.0000 </r>
       <r>   36.1854    0.0000 </r>
       <r>   38.3442    0.0000 </r>
       <r>   40.3782    0.0000 </r>
       <r>   41.8227    0.0000 </r>
       <r>   44.9697    0.0000 </r>
       <r>   45.9417    0.0000 </r>
       <r>   46.7168    0.0000 </r>
       <r>   46.7631    0.0000 </r>
       <r>   50.1660    0.0000 </r>
       <r>   51.7282    0.0000 </r>
       <r>   54.7433    0.0000 </r>
       <r>   55.1320    0.0000 </r>
       <r>   56.4349    0.0000 </r>
       <r>   57.1648    0.0000 </r>
       <r>   57.7765    0.0000 </r>
       <r>   61.7020    0.0000 </r>
       <r>   62.4574    0.0000 </r>
       <r>   63.9168    0.0000 </r>
       <r>   65.3269    0.0000 </r>
       <r>   65.9329    0.0000 </r>
       <r>   67.8473    0.0000 </r>
      </set>
      <set comment="kpoint 8">
       <r>    2.1683    1.0000 </r>
       <r>    2.8257    1.0000 </r>
       <r>    3.5889    1.0000 </r>
       <r>    4.3553    1.0000 </r>
       <r>    5.9011    1.0000 </r>
       <r>    5.9309    1.0000 </r>
       <r>    6.7525    1.0000 </r>
       <r>    7.9537   -0.0002 </r>
       <r>    8.1791   -0.0000 </r>
       <r>    8.4114   -0.0000 </r>
       <r>    8.4835   -0.0000 </r>
       <r>   12.8183   -0.0000 </r>
       <r>   17.4156    0.0000 </r>
       <r>   20.0393    0.0000 </r>
       <r>   22.9505    0.0000 </r>
       <r>   25.7342    0.0000 </r>
       <r>   27.3703    0.0000 </r>
       <r>   31.1335    0.0000 </r>
       <r>   33.1244    0.0000 </r>
       <r>   33.2241    0.0000 </r>
       <r>   37.6379    0.0000 </r>
       <r>   40.3608    0.0000 </r>
       <r>   41.6619    0.0000 </r>
       <r>   45.8420    0.0000 </r>
       <r>   50.0122    0.0000 </r>
       <r>   51.3272    0.0000 </r>
       <r>   54.0969    0.0000 </r>
       <r>   54.2180    0.0000 </r>
       <r>   56.3811    0.0000 </r>
       <r>   58.2225    0.0000 </r>
       <r>   58.6066    0.0000 </r>
       <r>   59.2634    0.0000 </r>
       <r>   60.8227    0.0000 </r>
       <r>   62.2233    0.0000 </r>
       <r>   62.5007    0.0000 </r>
       <r>   64.1690    0.0000 </r>
       <r>   65.3310    0.0000 </r>
       <r>   65.6742    0.0000 </r>
       <r>   68.2954    0.0000 </r>
       <r>   68.5435    0.0000 </r>
      </set>
      <set comment="kpoint 9">
       <r>    2.2164    1.0000 </r>
       <r>    3.3641    1.0000 </r>
       <r>    4.0390    1.0000 </r>
       <r>    4.0451    1.0000 </r>
       <r>    5.3519    1.0000 </r>
       <r>    5.6015    1.0000 </r>
       <r>    6.0226    1.0000 </r>
       <r>    7.0156    1.0123 </r>
       <r>    7.8046   -0.0060 </r>
       <r>    8.1472   -0.0000 </r>
       <r>    8.8927   -0.0000 </r>
       <r>   12.8748    0.0000 </r>
       <r>   19.7860    0.0000 </r>
       <r>   20.8345    0.0000 </r>
       <r>   21.8091    0.0000 </r>
       <r>   25.7150    0.0000 </r>
       <r>   26.7771    0.0000 </r>
       <r>   32.2855    0.0000 </r>
       <r>   32.5884    0.0000 </r>
       <r>   35.7612    0.0000 </r>
       <r>   39.4967    0.0000 </r>
       <r>   42.1730    0.0000 </r>
       <r>   43.7213    0.0000 </r>
       <r>   43.7762    0.0000 </r>
       <r>   47.8142    0.0000 </r>
       <r>   49.2333    0.0000 </r>
       <r>   50.4027    0.0000 </r>
       <r>   52.4340    0.0000 </r>
       <r>   54.0534    0.0000 </r>
       <r>   57.5247    0.0000 </r>
       <r>   59.8075    0.0000 </r>
       <r>   60.2463    0.0000 </r>
       <r>   60.5562    0.0000 </r>
       <r>   60.7357    0.0000 </r>
       <r>   61.2290    0.0000 </r>
       <r>   64.1126    0.0000 </r>
       <r>   64.8847    0.0000 </r>
       <r>   66.3537    0.0000 </r>
       <r>   67.2171    0.0000 </r>
       <r>   67.8084    0.0000 </r>
      </set>
      <set comment="kpoint 10">
       <r>    2.8876    1.0000 </r>
       <r>    3.4250    1.0000 </r>
       <r>    4.0007    1.0000 </r>
       <r>    4.1443    1.0000 </r>
       <r>    5.0879    1.0000 </r>
       <r>    5.7525    1.0000 </r>
       <r>    6.3973    1.0000 </r>
       <r>    7.7023   -0.0242 </r>
       <r>    7.9653   -0.0002 </r>
       <r>    8.3420   -0.0000 </r>
       <r>   12.0265   -0.0000 </r>
       <r>   13.4895    0.0000 </r>
       <r>   18.2225    0.0000 </r>
       <r>   18.8252    0.0000 </r>
       <r>   20.0160    0.0000 </r>
       <r>   24.4409    0.0000 </r>
       <r>   25.1924    0.0000 </r>
       <r>   26.5295    0.0000 </r>
       <r>   31.5988    0.0000 </r>
       <r>   38.3333    0.0000 </r>
       <r>   39.5516    0.0000 </r>
       <r>   40.7963    0.0000 </r>
       <r>   45.8287    0.0000 </r>
       <r>   46.4257    0.0000 </r>
       <r>   50.0746    0.0000 </r>
       <r>   51.2690    0.0000 </r>
       <r>   52.7972    0.0000 </r>
       <r>   53.0373    0.0000 </r>
       <r>   55.8598    0.0000 </r>
       <r>   57.3022    0.0000 </r>
       <r>   57.8299    0.0000 </r>
       <r>   58.3383    0.0000 </r>
       <r>   61.4583    0.0000 </r>
       <r>   61.6087    0.0000 </r>
       <r>   65.1998    0.0000 </r>
       <r>   65.8165    0.0000 </r>
       <r>   66.3006    0.0000 </r>
       <r>   67.7750    0.0000 </r>
       <r>   68.1333    0.0000 </r>
       <r>   69.0445    0.0000 </r>
      </set>
      <set comment="kpoint 11">
       <r>   -0.2040    1.0000 </r>
       <r>    1.2482    1.0000 </r>
       <r>    5.0012    1.0000 </r>
       <r>    5.0684    1.0000 </r>
       <r>    5.5685    1.0000 </r>
       <r>    5.5686    1.0000 </r>
       <r>    5.7172    1.0000 </r>
       <r>    5.7173    1.0000 </r>
       <r>    7.4960    0.1062 </r>
       <r>    7.4961    0.1061 </r>
       <r>    7.8984   -0.0009 </r>
       <r>    7.8985   -0.0009 </r>
       <r>   21.4356    0.0000 </r>
       <r>   25.8690    0.0000 </r>
       <r>   30.8978    0.0000 </r>
       <r>   31.6148    0.0000 </r>
       <r>   36.3597    0.0000 </r>
       <r>   36.3597    0.0000 </r>
       <r>   36.5200    0.0000 </r>
       <r>   36.5201    0.0000 </r>
       <r>   38.8074    0.0000 </r>
       <r>   38.8076    0.0000 </r>
       <r>   39.8782    0.0000 </r>
       <r>   39.8784    0.0000 </r>
       <r>   43.2546    0.0000 </r>
       <r>   43.6642    0.0000 </r>
       <r>   50.1003    0.0000 </r>
       <r>   51.3508    0.0000 </r>
       <r>   51.6704    0.0000 </r>
       <r>   51.6706    0.0000 </r>
       <r>   53.7870    0.0000 </r>
       <r>   53.7872    0.0000 </r>
       <r>   56.3116    0.0000 </r>
       <r>   57.5672    0.0000 </r>
       <r>   57.5675    0.0000 </r>
       <r>   58.9916    0.0000 </r>
       <r>   59.0331    0.0000 </r>
       <r>   59.0335    0.0000 </r>
       <r>   65.4066    0.0000 </r>
       <r>   68.0369    0.0000 </r>
      </set>
      <set comment="kpoint 12">
       <r>    1.0534    1.0000 </r>
       <r>    2.3209    1.0000 </r>
       <r>    4.2436    1.0000 </r>
       <r>    4.7656    1.0000 </r>
       <r>    5.1858    1.0000 </r>
       <r>    5.6109    1.0000 </r>
       <r>    6.2116    1.0000 </r>
       <r>    6.4193    1.0000 </r>
       <r>    7.4077    0.4129 </r>
       <r>    7.7080   -0.0228 </r>
       <r>    7.8807   -0.0013 </r>
       <r>    8.7862   -0.0000 </r>
       <r>   22.3246    0.0000 </r>
       <r>   25.8277    0.0000 </r>
       <r>   26.5972    0.0000 </r>
       <r>   27.6012    0.0000 </r>
       <r>   31.3022    0.0000 </r>
       <r>   32.3203    0.0000 </r>
       <r>   33.3381    0.0000 </r>
       <r>   33.4959    0.0000 </r>
       <r>   41.3790    0.0000 </r>
       <r>   42.9766    0.0000 </r>
       <r>   43.2559    0.0000 </r>
       <r>   44.7949    0.0000 </r>
       <r>   44.8483    0.0000 </r>
       <r>   46.8768    0.0000 </r>
       <r>   49.4362    0.0000 </r>
       <r>   50.5401    0.0000 </r>
       <r>   51.8059    0.0000 </r>
       <r>   53.4766    0.0000 </r>
       <r>   53.6004    0.0000 </r>
       <r>   54.1358    0.0000 </r>
       <r>   56.8879    0.0000 </r>
       <r>   59.5863    0.0000 </r>
       <r>   60.6999    0.0000 </r>
       <r>   62.8142    0.0000 </r>
       <r>   63.0556    0.0000 </r>
       <r>   64.2945    0.0000 </r>
       <r>   64.5746    0.0000 </r>
       <r>   66.2485    0.0000 </r>
      </set>
      <set comment="kpoint 13">
       <r>    2.2078    1.0000 </r>
       <r>    2.5815    1.0000 </r>
       <r>    3.8334    1.0000 </r>
       <r>    4.1463    1.0000 </r>
       <r>    6.4660    1.0000 </r>
       <r>    6.4795    1.0000 </r>
       <r>    7.2391    0.9731 </r>
       <r>    7.5039    0.0871 </r>
       <r>    8.2564   -0.0000 </r>
       <r>    8.3492   -0.0000 </r>
       <r>    8.4773   -0.0000 </r>
       <r>   10.3803   -0.0000 </r>
       <r>   18.2197    0.0000 </r>
       <r>   19.3728    0.0000 </r>
       <r>   25.4832    0.0000 </r>
       <r>   27.5537    0.0000 </r>
       <r>   28.3380    0.0000 </r>
       <r>   30.1594    0.0000 </r>
       <r>   31.0451    0.0000 </r>
       <r>   32.0378    0.0000 </r>
       <r>   36.5643    0.0000 </r>
       <r>   39.7054    0.0000 </r>
       <r>   44.0365    0.0000 </r>
       <r>   46.0887    0.0000 </r>
       <r>   47.7982    0.0000 </r>
       <r>   49.8260    0.0000 </r>
       <r>   54.9055    0.0000 </r>
       <r>   55.0009    0.0000 </r>
       <r>   56.5656    0.0000 </r>
       <r>   57.3734    0.0000 </r>
       <r>   59.0374    0.0000 </r>
       <r>   61.1473    0.0000 </r>
       <r>   62.7181    0.0000 </r>
       <r>   63.1865    0.0000 </r>
       <r>   63.2982    0.0000 </r>
       <r>   64.2278    0.0000 </r>
       <r>   64.8857    0.0000 </r>
       <r>   65.9084    0.0000 </r>
       <r>   67.9601    0.0000 </r>
       <r>   69.5267    0.0000 </r>
      </set>
      <set comment="kpoint 14">
       <r>    2.5670    1.0000 </r>
       <r>    3.0068    1.0000 </r>
       <r>    4.3727    1.0000 </r>
       <r>    4.4309    1.0000 </r>
       <r>    5.1387    1.0000 </r>
       <r>    5.1654    1.0000 </r>
       <r>    6.2834    1.0000 </r>
       <r>    6.9100    1.0019 </r>
       <r>    8.0129   -0.0000 </r>
       <r>    8.3805   -0.0000 </r>
       <r>    9.0872   -0.0000 </r>
       <r>   10.3751   -0.0000 </r>
       <r>   21.8397    0.0000 </r>
       <r>   22.6080    0.0000 </r>
       <r>   23.0610    0.0000 </r>
       <r>   24.6211    0.0000 </r>
       <r>   25.2183    0.0000 </r>
       <r>   29.3215    0.0000 </r>
       <r>   35.7791    0.0000 </r>
       <r>   37.3808    0.0000 </r>
       <r>   39.1298    0.0000 </r>
       <r>   40.7129    0.0000 </r>
       <r>   41.6114    0.0000 </r>
       <r>   41.8610    0.0000 </r>
       <r>   48.1301    0.0000 </r>
       <r>   48.9274    0.0000 </r>
       <r>   52.8810    0.0000 </r>
       <r>   53.5913    0.0000 </r>
       <r>   55.8265    0.0000 </r>
       <r>   58.3112    0.0000 </r>
       <r>   58.3226    0.0000 </r>
       <r>   59.7536    0.0000 </r>
       <r>   60.7709    0.0000 </r>
       <r>   61.1746    0.0000 </r>
       <r>   61.7512    0.0000 </r>
       <r>   62.0875    0.0000 </r>
       <r>   64.9545    0.0000 </r>
       <r>   66.6794    0.0000 </r>
       <r>   68.0624    0.0000 </r>
       <r>   68.9559    0.0000 </r>
      </set>
      <set comment="kpoint 15">
       <r>    2.9085    1.0000 </r>
       <r>    3.2711    1.0000 </r>
       <r>    4.0654    1.0000 </r>
       <r>    4.5843    1.0000 </r>
       <r>    4.9347    1.0000 </r>
       <r>    5.7212    1.0000 </r>
       <r>    6.7430    1.0000 </r>
       <r>    7.0573    1.0208 </r>
       <r>    8.1277   -0.0000 </r>
       <r>    8.3662   -0.0000 </r>
       <r>   12.4455   -0.0000 </r>
       <r>   13.0485    0.0000 </r>
       <r>   17.3473    0.0000 </r>
       <r>   17.4737    0.0000 </r>
       <r>   21.0770    0.0000 </r>
       <r>   22.7748    0.0000 </r>
       <r>   28.3019    0.0000 </r>
       <r>   29.5872    0.0000 </r>
       <r>   34.4688    0.0000 </r>
       <r>   34.8526    0.0000 </r>
       <r>   36.1786    0.0000 </r>
       <r>   39.1984    0.0000 </r>
       <r>   43.2312    0.0000 </r>
       <r>   44.2635    0.0000 </r>
       <r>   52.4798    0.0000 </r>
       <r>   53.2611    0.0000 </r>
       <r>   54.0977    0.0000 </r>
       <r>   54.7756    0.0000 </r>
       <r>   55.7781    0.0000 </r>
       <r>   58.1969    0.0000 </r>
       <r>   59.3076    0.0000 </r>
       <r>   61.0736    0.0000 </r>
       <r>   62.8805    0.0000 </r>
       <r>   62.9473    0.0000 </r>
       <r>   63.4730    0.0000 </r>
       <r>   65.2238    0.0000 </r>
       <r>   65.8632    0.0000 </r>
       <r>   67.6776    0.0000 </r>
       <r>   68.0790    0.0000 </r>
       <r>   68.9550    0.0000 </r>
      </set>
     </set>
    </set>
   </array>
  </eigenvalues>
  <separator name="orbital magnetization" >
   <v name="MAGDIPOLOUT">      0.00000000      0.00000000      0.00000000</v>
  </separator>
  <dos>
   <i name="efermi">      7.38705132 </i>
   <total>
    <array>
     <dimension dim="1">gridpoints</dimension>
     <dimension dim="2">spin</dimension>
     <field>energy</field>
     <field>total</field>
     <field>integrated</field>
     <set>
      <set comment="spin 1">
       <r>    -5.3842     0.0000     0.0000 </r>
       <r>    -5.1207     0.0000     0.0000 </r>
       <r>    -4.8573     0.0000     0.0000 </r>
       <r>    -4.5938     0.0000     0.0000 </r>
       <r>    -4.3304     0.0000     0.0000 </r>
       <r>    -4.0669     0.0000     0.0000 </r>
       <r>    -3.8035     0.0000     0.0000 </r>
       <r>    -3.5400    -0.0000    -0.0000 </r>
       <r>    -3.2766    -0.0000    -0.0000 </r>
       <r>    -3.0131    -0.0000    -0.0000 </r>
       <r>    -2.7497    -0.0000    -0.0000 </r>
       <r>    -2.4862    -0.0000    -0.0000 </r>
       <r>    -2.2228    -0.0003    -0.0001 </r>
       <r>    -1.9593     0.0003     0.0000 </r>
       <r>    -1.6959     0.0495     0.0130 </r>
       <r>    -1.4324     0.0418     0.0241 </r>
       <r>    -1.1689     0.0939     0.0488 </r>
       <r>    -0.9055    -0.0027     0.0481 </r>
       <r>    -0.6420    -0.0067     0.0463 </r>
       <r>    -0.3786     0.0640     0.0632 </r>
       <r>    -0.1151     0.4014     0.1689 </r>
       <r>     0.1483     0.6218     0.3327 </r>
       <r>     0.4118     0.1468     0.3714 </r>
       <r>     0.6752    -0.0210     0.3659 </r>
       <r>     0.9387     0.0721     0.3849 </r>
       <r>     1.2021     0.6837     0.5650 </r>
       <r>     1.4656     0.1112     0.5943 </r>
       <r>     1.7290    -0.0226     0.5883 </r>
       <r>     1.9925     0.0263     0.5952 </r>
       <r>     2.2559     2.3588     1.2167 </r>
       <r>     2.5194     1.8972     1.7165 </r>
       <r>     2.7829     1.4002     2.0854 </r>
       <r>     3.0463     3.2726     2.9476 </r>
       <r>     3.3098     2.4621     3.5962 </r>
       <r>     3.5732     2.4162     4.2328 </r>
       <r>     3.8367     1.1749     4.5423 </r>
       <r>     4.1001     3.4618     5.4543 </r>
       <r>     4.3636     3.9373     6.4916 </r>
       <r>     4.6270     2.3923     7.1219 </r>
       <r>     4.8905     2.1517     7.6888 </r>
       <r>     5.1539     3.0487     8.4919 </r>
       <r>     5.4174     3.5007     9.4142 </r>
       <r>     5.6808     3.5782    10.3569 </r>
       <r>     5.9443     4.0263    11.4176 </r>
       <r>     6.2077     3.4571    12.3284 </r>
       <r>     6.4712     4.4365    13.4972 </r>
       <r>     6.7346     2.8263    14.2418 </r>
       <r>     6.9981     3.9713    15.2880 </r>
       <r>     7.2616     2.1089    15.8436 </r>
       <r>     7.5250     1.4361    16.2220 </r>
       <r>     7.7885     2.0891    16.7724 </r>
       <r>     8.0519     4.4015    17.9320 </r>
       <r>     8.3154     6.7864    19.7199 </r>
       <r>     8.5788     4.8807    21.0057 </r>
       <r>     8.8423     1.4306    21.3826 </r>
       <r>     9.1057     1.2972    21.7244 </r>
       <r>     9.3692     0.2811    21.7984 </r>
       <r>     9.6326    -0.0242    21.7921 </r>
       <r>     9.8961    -0.0032    21.7912 </r>
       <r>    10.1595    -0.0683    21.7732 </r>
       <r>    10.4230     1.4175    22.1467 </r>
       <r>    10.6864     0.9029    22.3846 </r>
       <r>    10.9499    -0.0620    22.3682 </r>
       <r>    11.2133    -0.0008    22.3680 </r>
       <r>    11.4768    -0.0062    22.3664 </r>
       <r>    11.7403     0.0195    22.3715 </r>
       <r>    12.0037     0.9581    22.6239 </r>
       <r>    12.2672     0.5113    22.7586 </r>
       <r>    12.5306     0.5426    22.9016 </r>
       <r>    12.7941     0.5743    23.0529 </r>
       <r>    13.0575     1.4689    23.4399 </r>
       <r>    13.3210     0.3216    23.5246 </r>
       <r>    13.5844     0.7303    23.7170 </r>
       <r>    13.8479     0.3684    23.8141 </r>
       <r>    14.1113    -0.0225    23.8081 </r>
       <r>    14.3748    -0.0108    23.8053 </r>
       <r>    14.6382     0.1407    23.8424 </r>
       <r>    14.9017     0.2465    23.9073 </r>
       <r>    15.1651    -0.0129    23.9039 </r>
       <r>    15.4286    -0.0131    23.9005 </r>
       <r>    15.6921     0.3019    23.9800 </r>
       <r>    15.9555     0.4624    24.1018 </r>
       <r>    16.2190     0.0373    24.1116 </r>
       <r>    16.4824     0.0668    24.1292 </r>
       <r>    16.7459     0.3666    24.2258 </r>
       <r>    17.0093     0.2803    24.2997 </r>
       <r>    17.2728     0.1728    24.3452 </r>
       <r>    17.5362     1.8505    24.8327 </r>
       <r>    17.7997     0.3166    24.9161 </r>
       <r>    18.0631     0.0392    24.9265 </r>
       <r>    18.3266     1.9142    25.4308 </r>
       <r>    18.5900     0.2352    25.4927 </r>
       <r>    18.8535     0.8973    25.7291 </r>
       <r>    19.1169     0.5526    25.8747 </r>
       <r>    19.3804     0.3730    25.9730 </r>
       <r>    19.6438     0.3793    26.0729 </r>
       <r>    19.9073     0.7582    26.2727 </r>
       <r>    20.1708     1.6468    26.7065 </r>
       <r>    20.4342     0.3290    26.7932 </r>
       <r>    20.6977     0.5518    26.9386 </r>
       <r>    20.9611     0.7040    27.1240 </r>
       <r>    21.2246     0.7249    27.3150 </r>
       <r>    21.4880     0.4032    27.4212 </r>
       <r>    21.7515     0.3904    27.5241 </r>
       <r>    22.0149     1.1329    27.8226 </r>
       <r>    22.2784     0.3959    27.9269 </r>
       <r>    22.5418     0.8798    28.1587 </r>
       <r>    22.8053     1.0250    28.4287 </r>
       <r>    23.0687     1.3343    28.7802 </r>
       <r>    23.3322     0.4074    28.8875 </r>
       <r>    23.5956    -0.0011    28.8872 </r>
       <r>    23.8591     0.3227    28.9723 </r>
       <r>    24.1225    -0.0018    28.9718 </r>
       <r>    24.3860     0.1718    29.0171 </r>
       <r>    24.6495     1.3758    29.3795 </r>
       <r>    24.9129     1.0369    29.6527 </r>
       <r>    25.1764     1.2280    29.9762 </r>
       <r>    25.4398     1.1926    30.2904 </r>
       <r>    25.7033     1.4916    30.6834 </r>
       <r>    25.9667     1.6657    31.1222 </r>
       <r>    26.2302    -0.0357    31.1128 </r>
       <r>    26.4936     0.4099    31.2208 </r>
       <r>    26.7571     1.7562    31.6835 </r>
       <r>    27.0205     0.5055    31.8167 </r>
       <r>    27.2840     0.3599    31.9115 </r>
       <r>    27.5474     1.1975    32.2269 </r>
       <r>    27.8109     0.9481    32.4767 </r>
       <r>    28.0743    -0.0978    32.4510 </r>
       <r>    28.3378     0.8853    32.6842 </r>
       <r>    28.6013     0.9535    32.9354 </r>
       <r>    28.8647     0.4984    33.0667 </r>
       <r>    29.1282     0.2414    33.1303 </r>
       <r>    29.3916     1.0376    33.4037 </r>
       <r>    29.6551     1.1201    33.6988 </r>
       <r>    29.9185     0.6494    33.8698 </r>
       <r>    30.1820     0.7914    34.0784 </r>
       <r>    30.4454     0.8601    34.3050 </r>
       <r>    30.7089     0.1291    34.3390 </r>
       <r>    30.9723     0.5802    34.4918 </r>
       <r>    31.2358     2.5282    35.1579 </r>
       <r>    31.4992     1.2920    35.4983 </r>
       <r>    31.7627     0.6896    35.6800 </r>
       <r>    32.0261     0.9614    35.9333 </r>
       <r>    32.2896     1.1568    36.2380 </r>
       <r>    32.5530     1.1004    36.5279 </r>
       <r>    32.8165     0.4706    36.6519 </r>
       <r>    33.0800     0.5692    36.8018 </r>
       <r>    33.3434     1.9748    37.3221 </r>
       <r>    33.6069     1.2128    37.6416 </r>
       <r>    33.8703     0.0919    37.6658 </r>
       <r>    34.1338    -0.0209    37.6603 </r>
       <r>    34.3972     0.1703    37.7052 </r>
       <r>    34.6607     0.5722    37.8560 </r>
       <r>    34.9241     0.5583    38.0031 </r>
       <r>    35.1876     0.3328    38.0907 </r>
       <r>    35.4510     0.5897    38.2461 </r>
       <r>    35.7145     0.5728    38.3970 </r>
       <r>    35.9779     1.4362    38.7754 </r>
       <r>    36.2414     1.6446    39.2087 </r>
       <r>    36.5048     1.2529    39.5388 </r>
       <r>    36.7683     0.6900    39.7206 </r>
       <r>    37.0317    -0.0463    39.7084 </r>
       <r>    37.2952     0.1519    39.7484 </r>
       <r>    37.5587     1.0870    40.0347 </r>
       <r>    37.8221     0.6107    40.1956 </r>
       <r>    38.0856    -0.0836    40.1736 </r>
       <r>    38.3490     1.3875    40.5392 </r>
       <r>    38.6125     0.9181    40.7810 </r>
       <r>    38.8759     0.1503    40.8206 </r>
       <r>    39.1394     1.6784    41.2628 </r>
       <r>    39.4028     1.5644    41.6750 </r>
       <r>    39.6663     1.6841    42.1187 </r>
       <r>    39.9297     0.7888    42.3265 </r>
       <r>    40.1932     0.2875    42.4022 </r>
       <r>    40.4566     1.6905    42.8476 </r>
       <r>    40.7201     0.8850    43.0807 </r>
       <r>    40.9835     0.9669    43.3354 </r>
       <r>    41.2470     0.0631    43.3521 </r>
       <r>    41.5105     0.8001    43.5629 </r>
       <r>    41.7739     1.6666    44.0019 </r>
       <r>    42.0374     1.5124    44.4004 </r>
       <r>    42.3008     1.2568    44.7315 </r>
       <r>    42.5643     0.3750    44.8303 </r>
       <r>    42.8277     0.4043    44.9368 </r>
       <r>    43.0912     0.9159    45.1781 </r>
       <r>    43.3546     1.4160    45.5511 </r>
       <r>    43.6181     0.6756    45.7291 </r>
       <r>    43.8815     1.5460    46.1364 </r>
       <r>    44.1450     1.1263    46.4331 </r>
       <r>    44.4084     1.0232    46.7027 </r>
       <r>    44.6719     0.3149    46.7857 </r>
       <r>    44.9353     1.6930    47.2317 </r>
       <r>    45.1988     0.6510    47.4032 </r>
       <r>    45.4622    -0.0117    47.4001 </r>
       <r>    45.7257     0.1345    47.4356 </r>
       <r>    45.9892     2.6641    48.1374 </r>
       <r>    46.2526     1.9248    48.6445 </r>
       <r>    46.5161     0.6162    48.8069 </r>
       <r>    46.7795     1.2250    49.1296 </r>
       <r>    47.0430     1.2386    49.4559 </r>
       <r>    47.3064     0.1179    49.4870 </r>
       <r>    47.5699    -0.0511    49.4735 </r>
       <r>    47.8333     1.2222    49.7955 </r>
       <r>    48.0968     0.9682    50.0506 </r>
       <r>    48.3602     0.7530    50.2490 </r>
       <r>    48.6237     0.2081    50.3038 </r>
       <r>    48.8871     0.2905    50.3803 </r>
       <r>    49.1506     0.7276    50.5720 </r>
       <r>    49.4140     1.2505    50.9015 </r>
       <r>    49.6775     0.4777    51.0273 </r>
       <r>    49.9409     1.0990    51.3169 </r>
       <r>    50.2044     2.3307    51.9309 </r>
       <r>    50.4679     1.3073    52.2753 </r>
       <r>    50.7313     1.1792    52.5860 </r>
       <r>    50.9948     0.0847    52.6083 </r>
       <r>    51.2582     0.6820    52.7880 </r>
       <r>    51.5217     1.3257    53.1372 </r>
       <r>    51.7851     1.5482    53.5451 </r>
       <r>    52.0486     0.9940    53.8070 </r>
       <r>    52.3120     0.3187    53.8909 </r>
       <r>    52.5755     1.7642    54.3557 </r>
       <r>    52.8389     1.0225    54.6251 </r>
       <r>    53.1024     1.3196    54.9728 </r>
       <r>    53.3658     0.8165    55.1879 </r>
       <r>    53.6293     1.6941    55.6342 </r>
       <r>    53.8927     0.7347    55.8278 </r>
       <r>    54.1562     2.7080    56.5412 </r>
       <r>    54.4196     1.4021    56.9106 </r>
       <r>    54.6831     0.2183    56.9681 </r>
       <r>    54.9466     2.3790    57.5949 </r>
       <r>    55.2100     2.0130    58.1252 </r>
       <r>    55.4735     0.4206    58.2360 </r>
       <r>    55.7369     0.4270    58.3485 </r>
       <r>    56.0004     1.7507    58.8097 </r>
       <r>    56.2638     0.1533    58.8501 </r>
       <r>    56.5273     2.7260    59.5683 </r>
       <r>    56.7907     1.6335    59.9987 </r>
       <r>    57.0542     1.1471    60.3009 </r>
       <r>    57.3176     1.2503    60.6303 </r>
       <r>    57.5811     1.5586    61.0409 </r>
       <r>    57.8445     1.2590    61.3726 </r>
       <r>    58.1080     1.0425    61.6472 </r>
       <r>    58.3714     3.1456    62.4759 </r>
       <r>    58.6349     1.2917    62.8162 </r>
       <r>    58.8984     0.5568    62.9629 </r>
       <r>    59.1618     1.5626    63.3746 </r>
       <r>    59.4253     1.6932    63.8207 </r>
       <r>    59.6887     0.9522    64.0716 </r>
       <r>    59.9522     2.1407    64.6355 </r>
       <r>    60.2156     1.0083    64.9012 </r>
       <r>    60.4791     0.8186    65.1168 </r>
       <r>    60.7425     2.5495    65.7885 </r>
       <r>    61.0060     2.0162    66.3197 </r>
       <r>    61.2694     2.6610    67.0207 </r>
       <r>    61.5329     1.6375    67.4521 </r>
       <r>    61.7963     2.4493    68.0974 </r>
       <r>    62.0598     0.7239    68.2881 </r>
       <r>    62.3232     1.2781    68.6248 </r>
       <r>    62.5867     1.5271    69.0272 </r>
       <r>    62.8501     1.7769    69.4953 </r>
       <r>    63.1136     2.5412    70.1648 </r>
       <r>    63.3771     1.8090    70.6414 </r>
       <r>    63.6405     1.3777    71.0043 </r>
       <r>    63.9040     0.5320    71.1445 </r>
       <r>    64.1674     1.5903    71.5635 </r>
       <r>    64.4309     2.1745    72.1363 </r>
       <r>    64.6943     0.6594    72.3101 </r>
       <r>    64.9578     1.5564    72.7201 </r>
       <r>    65.2212     1.7156    73.1721 </r>
       <r>    65.4847     2.1414    73.7362 </r>
       <r>    65.7481     1.3080    74.0808 </r>
       <r>    66.0116     3.1972    74.9231 </r>
       <r>    66.2750     1.5569    75.3333 </r>
       <r>    66.5385     1.6475    75.7673 </r>
       <r>    66.8019     0.9120    76.0076 </r>
       <r>    67.0654     0.9633    76.2614 </r>
       <r>    67.3288     1.2718    76.5964 </r>
       <r>    67.5923     0.4186    76.7067 </r>
       <r>    67.8558     2.4294    77.3468 </r>
       <r>    68.1192     3.0374    78.1470 </r>
       <r>    68.3827     2.0391    78.6842 </r>
       <r>    68.6461     0.9467    78.9336 </r>
       <r>    68.9096     0.8946    79.1693 </r>
       <r>    69.1730     1.9122    79.6731 </r>
       <r>    69.4365     0.2828    79.7476 </r>
       <r>    69.6999     0.5923    79.9036 </r>
       <r>    69.9634     0.0561    79.9184 </r>
       <r>    70.2268     0.3094    79.9999 </r>
       <r>    70.4903     0.0020    80.0004 </r>
       <r>    70.7537    -0.0017    80.0000 </r>
       <r>    71.0172    -0.0000    80.0000 </r>
       <r>    71.2806    -0.0000    80.0000 </r>
       <r>    71.5441     0.0000    80.0000 </r>
       <r>    71.8076     0.0000    80.0000 </r>
       <r>    72.0710     0.0000    80.0000 </r>
       <r>    72.3345     0.0000    80.0000 </r>
       <r>    72.5979     0.0000    80.0000 </r>
       <r>    72.8614     0.0000    80.0000 </r>
       <r>    73.1248     0.0000    80.0000 </r>
       <r>    73.3883     0.0000    80.0000 </r>
       <r>    73.6517     0.0000    80.0000 </r>
      </set>
     </set>
    </array>
   </total>
  </dos>
 </calculation>
 <structure name="finalpos" >
  <crystal>
   <varray name="basis" >
    <v>       2.38500000       0.00000000       0.00000000 </v>
    <v>      -1.19250000       2.06547059       0.00000000 </v>
    <v>       0.00000000       0.00000000       3.98300000 </v>
   </varray>
   <i name="volume">     19.62084490 </i>
   <varray name="rec_basis" >
    <v>       0.41928721       0.24207558       0.00000000 </v>
    <v>       0.00000000       0.48415117       0.00000000 </v>
    <v>       0.00000000       0.00000000       0.25106703 </v>
   </varray>
  </crystal>
  <varray name="positions" >
   <v>       0.00000000       0.00000000       0.00000000 </v>
   <v>       0.33333333       0.66666667       0.50000000 </v>
  </varray>
 </structure>
</modeling>
