unknown system                          
   1.00000000000000     
     3.635000    0.000000    0.000000
     0.000000    3.635000    0.000000
     0.000000    0.000000    3.635000
   Cu
     4
Direct
  0.000000  0.000000  0.000000
  0.500000  0.500000  0.000000
  0.500000  0.000000  0.500000
  0.000000  0.500000  0.500000
 
   32   32   32
  845.15      796.52      666.05      491.97      317.59      175.90      82.670      36.196      20.763      15.240    
  11.644      9.4143      8.1270      7.4870      7.0914      6.7168      6.5353      6.7168      7.0914      7.4870    
  8.1270      9.4143      11.644      15.240      20.763      36.196      82.670      175.90      317.59      491.97    
  666.05      796.52      796.52      750.50      627.00      462.29      297.53      164.16      77.110      34.347    
  20.370      15.042      11.569      9.4299      8.2026      7.5974      7.2295      6.8841      6.7168      6.8841    
  7.2295      7.5974      8.2026      9.4299      11.569      15.042      20.370      34.347      77.110      164.16    
  297.53      462.29      627.00      750.50      666.05      627.00      522.26      382.81      244.10      133.28    
  62.821      29.797      19.350      14.496      11.369      9.4679      8.3829      7.8433      7.5200      7.2295    
  7.0914      7.2295      7.5200      7.8433      8.3829      9.4679      11.369      14.496      19.350      29.797    
  62.821      133.28      244.10      382.81      522.26      627.00      491.97      462.29      382.81      277.58    
  174.31      94.055      45.607      24.780      17.910      13.738      11.117      9.5401      8.6265      8.1428    
  7.8433      7.5974      7.4870      7.5974      7.8433      8.1428      8.6265      9.5401      11.117      13.738    
  17.910      24.780      45.607      94.055      174.31      277.58      382.81      462.29      317.59      297.53    
  244.10      174.31      107.68      58.516      31.429      21.012      16.247      12.945      10.925      9.7226    
  9.0184      8.6265      8.3829      8.2026      8.1270      8.2026      8.3829      8.6265      9.0184      9.7226    
  10.925      12.945      16.247      21.012      31.429      58.516      107.68      174.31      244.10      297.53    
  175.90      164.16      133.28      94.055      58.516      34.605      23.135      18.206      14.645      12.293    
  10.909      10.132      9.7226      9.5401      9.4679      9.4299      9.4143      9.4299      9.4679      9.5401    
  9.7226      10.132      10.909      12.293      14.645      18.206      23.135      34.605      58.516      94.055    
  133.28      164.16      82.670      77.110      62.821      45.607      31.429      23.135      18.938      15.696    
  13.354      11.924      11.187      10.909      10.925      11.117      11.369      11.569      11.644      11.569    
  11.369      11.117      10.925      10.909      11.187      11.924      13.354      15.696      18.938      23.135    
  31.429      45.607      62.821      77.110      36.196      34.347      29.797      24.780      21.012      18.206    
  15.696      13.763      12.534      11.963      11.924      12.293      12.945      13.738      14.496      15.042    
  15.240      15.042      14.496      13.738      12.945      12.293      11.924      11.963      12.534      13.763    
  15.696      18.206      21.012      24.780      29.797      34.347      20.763      20.370      19.350      17.910    
  16.247      14.645      13.354      12.534      12.255      12.534      13.354      14.645      16.247      17.910    
  19.350      20.370      20.763      20.370      19.350      17.910      16.247      14.645      13.354      12.534    
  12.255      12.534      13.354      14.645      16.247      17.910      19.350      20.370      15.240      15.042    
  14.496      13.738      12.945      12.293      11.924      11.963      12.534      13.763      15.696      18.206    
  21.012      24.780      29.797      34.347      36.196      34.347      29.797      24.780      21.012      18.206    
  15.696      13.763      12.534      11.963      11.924      12.293      12.945      13.738      14.496      15.042    
  11.644      11.569      11.369      11.117      10.925      10.909      11.187      11.924      13.354      15.696    
  18.938      23.135      31.429      45.607      62.821      77.110      82.670      77.110      62.821      45.607    
  31.429      23.135      18.938      15.696      13.354      11.924      11.187      10.909      10.925      11.117    
  11.369      11.569      9.4143      9.4299      9.4679      9.5401      9.7226      10.132      10.909      12.293    
  14.645      18.206      23.135      34.605      58.516      94.055      133.28      164.16      175.90      164.16    
  133.28      94.055      58.516      34.605      23.135      18.206      14.645      12.293      10.909      10.132    
  9.7226      9.5401      9.4679      9.4299      8.1270      8.2026      8.3829      8.6265      9.0184      9.7226    
  10.925      12.945      16.247      21.012      31.429      58.516      107.68      174.31      244.10      297.53    
  317.59      297.53      244.10      174.31      107.68      58.516      31.429      21.012      16.247      12.945    
  10.925      9.7226      9.0184      8.6265      8.3829      8.2026      7.4870      7.5974      7.8433      8.1428    
  8.6265      9.5401      11.117      13.738      17.910      24.780      45.607      94.055      174.31      277.58    
  382.81      462.29      491.97      462.29      382.81      277.58      174.31      94.055      45.607      24.780    
  17.910      13.738      11.117      9.5401      8.6265      8.1428      7.8433      7.5974      7.0914      7.2295    
  7.5200      7.8433      8.3829      9.4679      11.369      14.496      19.350      29.797      62.821      133.28    
  244.10      382.81      522.26      627.00      666.05      627.00      522.26      382.81      244.10      133.28    
  62.821      29.797      19.350      14.496      11.369      9.4679      8.3829      7.8433      7.5200      7.2295    
  6.7168      6.8841      7.2295      7.5974      8.2026      9.4299      11.569      15.042      20.370      34.347    
  77.110      164.16      297.53      462.29      627.00      750.50      796.52      750.50      627.00      462.29    
  297.53      164.16      77.110      34.347      20.370      15.042      11.569      9.4299      8.2026      7.5974    
  7.2295      6.8841      6.5353      6.7168      7.0914      7.4870      8.1270      9.4143      11.644      15.240    
  20.763      36.196      82.670      175.90      317.59      491.97      666.05      796.52      845.15      796.52    
  666.05      491.97      317.59      175.90      82.670      36.196      20.763      15.240      11.644      9.4143    
  8.1270      7.4870      7.0914      6.7168      6.7168      6.8841      7.2295      7.5974      8.2026      9.4299    
  11.569      15.042      20.370      34.347      77.110      164.16      297.53      462.29      627.00      750.50    
  796.52      750.50      627.00      462.29      297.53      164.16      77.110      34.347      20.370      15.042    
  11.569      9.4299      8.2026      7.5974      7.2295      6.8841      7.0914      7.2295      7.5200      7.8433    
  8.3829      9.4679      11.369      14.496      19.350      29.797      62.821      133.28      244.10      382.81    
  522.26      627.00      666.05      627.00      522.26      382.81      244.10      133.28      62.821      29.797    
  19.350      14.496      11.369      9.4679      8.3829      7.8433      7.5200      7.2295      7.4870      7.5974    
  7.8433      8.1428      8.6265      9.5401      11.117      13.738      17.910      24.780      45.607      94.055    
  174.31      277.58      382.81      462.29      491.97      462.29      382.81      277.58      174.31      94.055    
  45.607      24.780      17.910      13.738      11.117      9.5401      8.6265      8.1428      7.8433      7.5974    
  8.1270      8.2026      8.3829      8.6265      9.0184      9.7226      10.925      12.945      16.247      21.012    
  31.429      58.516      107.68      174.31      244.10      297.53      317.59      297.53      244.10      174.31    
  107.68      58.516      31.429      21.012      16.247      12.945      10.925      9.7226      9.0184      8.6265    
  8.3829      8.2026      9.4143      9.4299      9.4679      9.5401      9.7226      10.132      10.909      12.293    
  14.645      18.206      23.135      34.605      58.516      94.055      133.28      164.16      175.90      164.16    
  133.28      94.055      58.516      34.605      23.135      18.206      14.645      12.293      10.909      10.132    
  9.7226      9.5401      9.4679      9.4299      11.644      11.569      11.369      11.117      10.925      10.909    
  11.187      11.924      13.354      15.696      18.938      23.135      31.429      45.607      62.821      77.110    
  82.670      77.110      62.821      45.607      31.429      23.135      18.938      15.696      13.354      11.924    
  11.187      10.909      10.925      11.117      11.369      11.569      15.240      15.042      14.496      13.738    
  12.945      12.293      11.924      11.963      12.534      13.763      15.696      18.206      21.012      24.780    
  29.797      34.347      36.196      34.347      29.797      24.780      21.012      18.206      15.696      13.763    
  12.534      11.963      11.924      12.293      12.945      13.738      14.496      15.042      20.763      20.370    
  19.350      17.910      16.247      14.645      13.354      12.534      12.255      12.534      13.354      14.645    
  16.247      17.910      19.350      20.370      20.763      20.370      19.350      17.910      16.247      14.645    
  13.354      12.534      12.255      12.534      13.354      14.645      16.247      17.910      19.350      20.370    
  36.196      34.347      29.797      24.780      21.012      18.206      15.696      13.763      12.534      11.963    
  11.924      12.293      12.945      13.738      14.496      15.042      15.240      15.042      14.496      13.738    
  12.945      12.293      11.924      11.963      12.534      13.763      15.696      18.206      21.012      24.780    
  29.797      34.347      82.670      77.110      62.821      45.607      31.429      23.135      18.938      15.696    
  13.354      11.924      11.187      10.909      10.925      11.117      11.369      11.569      11.644      11.569    
  11.369      11.117      10.925      10.909      11.187      11.924      13.354      15.696      18.938      23.135    
  31.429      45.607      62.821      77.110      175.90      164.16      133.28      94.055      58.516      34.605    
  23.135      18.206      14.645      12.293      10.909      10.132      9.7226      9.5401      9.4679      9.4299    
  9.4143      9.4299      9.4679      9.5401      9.7226      10.132      10.909      12.293      14.645      18.206    
  23.135      34.605      58.516      94.055      133.28      164.16      317.59      297.53      244.10      174.31    
  107.68      58.516      31.429      21.012      16.247      12.945      10.925      9.7226      9.0184      8.6265    
  8.3829      8.2026      8.1270      8.2026      8.3829      8.6265      9.0184      9.7226      10.925      12.945    
  16.247      21.012      31.429      58.516      107.68      174.31      244.10      297.53      491.97      462.29    
  382.81      277.58      174.31      94.055      45.607      24.780      17.910      13.738      11.117      9.5401    
  8.6265      8.1428      7.8433      7.5974      7.4870      7.5974      7.8433      8.1428      8.6265      9.5401    
  11.117      13.738      17.910      24.780      45.607      94.055      174.31      277.58      382.81      462.29    
  666.05      627.00      522.26      382.81      244.10      133.28      62.821      29.797      19.350      14.496    
  11.369      9.4679      8.3829      7.8433      7.5200      7.2295      7.0914      7.2295      7.5200      7.8433    
  8.3829      9.4679      11.369      14.496      19.350      29.797      62.821      133.28      244.10      382.81    
  522.26      627.00      796.52      750.50      627.00      462.29      297.53      164.16      77.110      34.347    
  20.370      15.042      11.569      9.4299      8.2026      7.5974      7.2295      6.8841      6.7168      6.8841    
  7.2295      7.5974      8.2026      9.4299      11.569      15.042      20.370      34.347      77.110      164.16    
  297.53      462.29      627.00      750.50      796.52      750.50      627.00      462.29      297.53      164.16    
  77.110      34.347      20.370      15.042      11.569      9.4299      8.2026      7.5974      7.2295      6.8841    
  6.7168      6.8841      7.2295      7.5974      8.2026      9.4299      11.569      15.042      20.370      34.347    
  77.110      164.16      297.53      462.29      627.00      750.50      750.50      706.93      590.05      434.22    
  278.61      153.17      71.961      32.670      20.003      14.848      11.495      9.4425      8.2718      7.6989    
  7.3565      7.0381      6.8841      7.0381      7.3565      7.6989      8.2718      9.4425      11.495      14.848    
  20.003      32.670      71.961      153.17      278.61      434.22      590.05      706.93      627.00      590.05    
  490.96      359.14      228.30      124.28      58.762      28.557      19.030      14.316      11.299      9.4740    
  8.4379      7.9260      7.6243      7.3565      7.2295      7.3565      7.6243      7.9260      8.4379      9.4740    
  11.299      14.316      19.030      28.557      58.762      124.28      228.30      359.14      490.96      590.05    
  462.29      434.22      359.14      259.86      162.73      87.719      42.952      24.040      17.622      13.579    
  11.053      9.5392      8.6660      8.2064      7.9260      7.6989      7.5974      7.6989      7.9260      8.2064    
  8.6660      9.5392      11.053      13.579      17.622      24.040      42.952      87.719      162.73      259.86    
  359.14      434.22      297.53      278.61      228.30      162.73      100.42      54.818      30.052      20.611    
  16.002      12.812      10.866      9.7121      9.0387      8.6660      8.4379      8.2718      8.2026      8.2718    
  8.4379      8.6660      9.0387      9.7121      10.866      12.812      16.002      20.611      30.052      54.818    
  100.42      162.73      228.30      278.61      164.16      153.17      124.28      87.719      54.818      32.935    
  22.571      17.898      14.449      12.182      10.850      10.104      9.7121      9.5392      9.4740      9.4425    
  9.4299      9.4425      9.4740      9.5392      9.7121      10.104      10.850      12.182      14.449      17.898    
  22.571      32.935      54.818      87.719      124.28      153.17      77.110      71.961      58.762      42.952    
  30.052      22.571      18.607      15.462      13.203      11.827      11.118      10.850      10.866      11.053    
  11.299      11.495      11.569      11.495      11.299      11.053      10.866      10.850      11.118      11.827    
  13.203      15.462      18.607      22.571      30.052      42.952      58.762      71.961      34.347      32.670    
  28.557      24.040      20.611      17.898      15.462      13.596      12.414      11.864      11.827      12.182    
  12.812      13.579      14.316      14.848      15.042      14.848      14.316      13.579      12.812      12.182    
  11.827      11.864      12.414      13.596      15.462      17.898      20.611      24.040      28.557      32.670    
  20.370      20.003      19.030      17.622      16.002      14.449      13.203      12.414      12.146      12.414    
  13.203      14.449      16.002      17.622      19.030      20.003      20.370      20.003      19.030      17.622    
  16.002      14.449      13.203      12.414      12.146      12.414      13.203      14.449      16.002      17.622    
  19.030      20.003      15.042      14.848      14.316      13.579      12.812      12.182      11.827      11.864    
  12.414      13.596      15.462      17.898      20.611      24.040      28.557      32.670      34.347      32.670    
  28.557      24.040      20.611      17.898      15.462      13.596      12.414      11.864      11.827      12.182    
  12.812      13.579      14.316      14.848      11.569      11.495      11.299      11.053      10.866      10.850    
  11.118      11.827      13.203      15.462      18.607      22.571      30.052      42.952      58.762      71.961    
  77.110      71.961      58.762      42.952      30.052      22.571      18.607      15.462      13.203      11.827    
  11.118      10.850      10.866      11.053      11.299      11.495      9.4299      9.4425      9.4740      9.5392    
  9.7121      10.104      10.850      12.182      14.449      17.898      22.571      32.935      54.818      87.719    
  124.28      153.17      164.16      153.17      124.28      87.719      54.818      32.935      22.571      17.898    
  14.449      12.182      10.850      10.104      9.7121      9.5392      9.4740      9.4425      8.2026      8.2718    
  8.4379      8.6660      9.0387      9.7121      10.866      12.812      16.002      20.611      30.052      54.818    
  100.42      162.73      228.30      278.61      297.53      278.61      228.30      162.73      100.42      54.818    
  30.052      20.611      16.002      12.812      10.866      9.7121      9.0387      8.6660      8.4379      8.2718    
  7.5974      7.6989      7.9260      8.2064      8.6660      9.5392      11.053      13.579      17.622      24.040    
  42.952      87.719      162.73      259.86      359.14      434.22      462.29      434.22      359.14      259.86    
  162.73      87.719      42.952      24.040      17.622      13.579      11.053      9.5392      8.6660      8.2064    
  7.9260      7.6989      7.2295      7.3565      7.6243      7.9260      8.4379      9.4740      11.299      14.316    
  19.030      28.557      58.762      124.28      228.30      359.14      490.96      590.05      627.00      590.05    
  490.96      359.14      228.30      124.28      58.762      28.557      19.030      14.316      11.299      9.4740    
  8.4379      7.9260      7.6243      7.3565      6.8841      7.0381      7.3565      7.6989      8.2718      9.4425    
  11.495      14.848      20.003      32.670      71.961      153.17      278.61      434.22      590.05      706.93    
  750.50      706.93      590.05      434.22      278.61      153.17      71.961      32.670      20.003      14.848    
  11.495      9.4425      8.2718      7.6989      7.3565      7.0381      6.7168      6.8841      7.2295      7.5974    
  8.2026      9.4299      11.569      15.042      20.370      34.347      77.110      164.16      297.53      462.29    
  627.00      750.50      796.52      750.50      627.00      462.29      297.53      164.16      77.110      34.347    
  20.370      15.042      11.569      9.4299      8.2026      7.5974      7.2295      6.8841      6.8841      7.0381    
  7.3565      7.6989      8.2718      9.4425      11.495      14.848      20.003      32.670      71.961      153.17    
  278.61      434.22      590.05      706.93      750.50      706.93      590.05      434.22      278.61      153.17    
  71.961      32.670      20.003      14.848      11.495      9.4425      8.2718      7.6989      7.3565      7.0381    
  7.2295      7.3565      7.6243      7.9260      8.4379      9.4740      11.299      14.316      19.030      28.557    
  58.762      124.28      228.30      359.14      490.96      590.05      627.00      590.05      490.96      359.14    
  228.30      124.28      58.762      28.557      19.030      14.316      11.299      9.4740      8.4379      7.9260    
  7.6243      7.3565      7.5974      7.6989      7.9260      8.2064      8.6660      9.5392      11.053      13.579    
  17.622      24.040      42.952      87.719      162.73      259.86      359.14      434.22      462.29      434.22    
  359.14      259.86      162.73      87.719      42.952      24.040      17.622      13.579      11.053      9.5392    
  8.6660      8.2064      7.9260      7.6989      8.2026      8.2718      8.4379      8.6660      9.0387      9.7121    
  10.866      12.812      16.002      20.611      30.052      54.818      100.42      162.73      228.30      278.61    
  297.53      278.61      228.30      162.73      100.42      54.818      30.052      20.611      16.002      12.812    
  10.866      9.7121      9.0387      8.6660      8.4379      8.2718      9.4299      9.4425      9.4740      9.5392    
  9.7121      10.104      10.850      12.182      14.449      17.898      22.571      32.935      54.818      87.719    
  124.28      153.17      164.16      153.17      124.28      87.719      54.818      32.935      22.571      17.898    
  14.449      12.182      10.850      10.104      9.7121      9.5392      9.4740      9.4425      11.569      11.495    
  11.299      11.053      10.866      10.850      11.118      11.827      13.203      15.462      18.607      22.571    
  30.052      42.952      58.762      71.961      77.110      71.961      58.762      42.952      30.052      22.571    
  18.607      15.462      13.203      11.827      11.118      10.850      10.866      11.053      11.299      11.495    
  15.042      14.848      14.316      13.579      12.812      12.182      11.827      11.864      12.414      13.596    
  15.462      17.898      20.611      24.040      28.557      32.670      34.347      32.670      28.557      24.040    
  20.611      17.898      15.462      13.596      12.414      11.864      11.827      12.182      12.812      13.579    
  14.316      14.848      20.370      20.003      19.030      17.622      16.002      14.449      13.203      12.414    
  12.146      12.414      13.203      14.449      16.002      17.622      19.030      20.003      20.370      20.003    
  19.030      17.622      16.002      14.449      13.203      12.414      12.146      12.414      13.203      14.449    
  16.002      17.622      19.030      20.003      34.347      32.670      28.557      24.040      20.611      17.898    
  15.462      13.596      12.414      11.864      11.827      12.182      12.812      13.579      14.316      14.848    
  15.042      14.848      14.316      13.579      12.812      12.182      11.827      11.864      12.414      13.596    
  15.462      17.898      20.611      24.040      28.557      32.670      77.110      71.961      58.762      42.952    
  30.052      22.571      18.607      15.462      13.203      11.827      11.118      10.850      10.866      11.053    
  11.299      11.495      11.569      11.495      11.299      11.053      10.866      10.850      11.118      11.827    
  13.203      15.462      18.607      22.571      30.052      42.952      58.762      71.961      164.16      153.17    
  124.28      87.719      54.818      32.935      22.571      17.898      14.449      12.182      10.850      10.104    
  9.7121      9.5392      9.4740      9.4425      9.4299      9.4425      9.4740      9.5392      9.7121      10.104    
  10.850      12.182      14.449      17.898      22.571      32.935      54.818      87.719      124.28      153.17    
  297.53      278.61      228.30      162.73      100.42      54.818      30.052      20.611      16.002      12.812    
  10.866      9.7121      9.0387      8.6660      8.4379      8.2718      8.2026      8.2718      8.4379      8.6660    
  9.0387      9.7121      10.866      12.812      16.002      20.611      30.052      54.818      100.42      162.73    
  228.30      278.61      462.29      434.22      359.14      259.86      162.73      87.719      42.952      24.040    
  17.622      13.579      11.053      9.5392      8.6660      8.2064      7.9260      7.6989      7.5974      7.6989    
  7.9260      8.2064      8.6660      9.5392      11.053      13.579      17.622      24.040      42.952      87.719    
  162.73      259.86      359.14      434.22      627.00      590.05      490.96      359.14      228.30      124.28    
  58.762      28.557      19.030      14.316      11.299      9.4740      8.4379      7.9260      7.6243      7.3565    
  7.2295      7.3565      7.6243      7.9260      8.4379      9.4740      11.299      14.316      19.030      28.557    
  58.762      124.28      228.30      359.14      490.96      590.05      750.50      706.93      590.05      434.22    
  278.61      153.17      71.961      32.670      20.003      14.848      11.495      9.4425      8.2718      7.6989    
  7.3565      7.0381      6.8841      7.0381      7.3565      7.6989      8.2718      9.4425      11.495      14.848    
  20.003      32.670      71.961      153.17      278.61      434.22      590.05      706.93      666.05      627.00    
  522.26      382.81      244.10      133.28      62.821      29.797      19.350      14.496      11.369      9.4679    
  8.3829      7.8433      7.5200      7.2295      7.0914      7.2295      7.5200      7.8433      8.3829      9.4679    
  11.369      14.496      19.350      29.797      62.821      133.28      244.10      382.81      522.26      627.00    
  627.00      590.05      490.96      359.14      228.30      124.28      58.762      28.557      19.030      14.316    
  11.299      9.4740      8.4379      7.9260      7.6243      7.3565      7.2295      7.3565      7.6243      7.9260    
  8.4379      9.4740      11.299      14.316      19.030      28.557      58.762      124.28      228.30      359.14    
  490.96      590.05      522.26      490.96      407.11      295.91      186.41      100.76      48.443      25.537    
  18.131      13.825      11.114      9.4917      8.5733      8.1153      7.8491      7.6243      7.5200      7.6243    
  7.8491      8.1153      8.5733      9.4917      11.114      13.825      18.131      25.537      48.443      100.76    
  186.41      295.91      407.11      490.96      382.81      359.14      295.91      212.75      132.24      71.331    
  36.302      22.231      16.815      13.148      10.886      9.5418      8.7690      8.3601      8.1153      7.9260    
  7.8433      7.9260      8.1153      8.3601      8.7690      9.5418      10.886      13.148      16.815      22.231    
  36.302      71.331      132.24      212.75      295.91      359.14      244.10      228.30      186.41      132.24    
  81.531      45.427      26.675      19.533      15.321      12.449      10.714      9.6914      9.0971      8.7690    
  8.5733      8.4379      8.3829      8.4379      8.5733      8.7690      9.0971      9.6914      10.714      12.449    
  15.321      19.533      26.675      45.427      81.531      132.24      186.41      228.30      133.28      124.28    
  100.76      71.331      45.427      28.813      21.148      17.030      13.908      11.881      10.697      10.036    
  9.6914      9.5418      9.4917      9.4740      9.4679      9.4740      9.4917      9.5418      9.6914      10.036    
  10.697      11.881      13.908      17.030      21.148      28.813      45.427      71.331      100.76      124.28    
  62.821      58.762      48.443      36.302      26.675      21.148      17.672      14.810      12.787      11.563    
  10.934      10.697      10.714      10.886      11.114      11.299      11.369      11.299      11.114      10.886    
  10.714      10.697      10.934      11.563      12.787      14.810      17.672      21.148      26.675      36.302    
  48.443      58.762      29.797      28.557      25.537      22.231      19.533      17.030      14.810      13.134    
  12.082      11.595      11.563      11.881      12.449      13.148      13.825      14.316      14.496      14.316    
  13.825      13.148      12.449      11.881      11.563      11.595      12.082      13.134      14.810      17.030    
  19.533      22.231      25.537      28.557      19.350      19.030      18.131      16.815      15.321      13.908    
  12.787      12.082      11.844      12.082      12.787      13.908      15.321      16.815      18.131      19.030    
  19.350      19.030      18.131      16.815      15.321      13.908      12.787      12.082      11.844      12.082    
  12.787      13.908      15.321      16.815      18.131      19.030      14.496      14.316      13.825      13.148    
  12.449      11.881      11.563      11.595      12.082      13.134      14.810      17.030      19.533      22.231    
  25.537      28.557      29.797      28.557      25.537      22.231      19.533      17.030      14.810      13.134    
  12.082      11.595      11.563      11.881      12.449      13.148      13.825      14.316      11.369      11.299    
  11.114      10.886      10.714      10.697      10.934      11.563      12.787      14.810      17.672      21.148    
  26.675      36.302      48.443      58.762      62.821      58.762      48.443      36.302      26.675      21.148    
  17.672      14.810      12.787      11.563      10.934      10.697      10.714      10.886      11.114      11.299    
  9.4679      9.4740      9.4917      9.5418      9.6914      10.036      10.697      11.881      13.908      17.030    
  21.148      28.813      45.427      71.331      100.76      124.28      133.28      124.28      100.76      71.331    
  45.427      28.813      21.148      17.030      13.908      11.881      10.697      10.036      9.6914      9.5418    
  9.4917      9.4740      8.3829      8.4379      8.5733      8.7690      9.0971      9.6914      10.714      12.449    
  15.321      19.533      26.675      45.427      81.531      132.24      186.41      228.30      244.10      228.30    