unknown system                          
   1.00000000000000     
     3.635000    0.000000    0.000000
     0.000000    3.635000    0.000000
     0.000000    0.000000    3.635000
   Cu
     4
Direct
  0.000000  0.000000  0.000000
  0.500000  0.500000  0.000000
  0.500000  0.000000  0.500000
  0.000000  0.500000  0.500000
 
   32   32   32
 0.84515017663E+03 0.79652256256E+03 0.66605346677E+03 0.49197192236E+03 0.31759023810E+03
 0.17589850593E+03 0.82669628230E+02 0.36195601006E+02 0.20763245756E+02 0.15240081381E+02
 0.11644384305E+02 0.94143097465E+01 0.81270165943E+01 0.74870005064E+01 0.70913786703E+01
 0.67167646847E+01 0.65352670432E+01 0.67167646847E+01 0.70913786703E+01 0.74870005064E+01
 0.81270165943E+01 0.94143097465E+01 0.11644384305E+02 0.15240081381E+02 0.20763245756E+02
 0.36195601006E+02 0.82669628230E+02 0.17589850593E+03 0.31759023810E+03 0.49197192236E+03
 0.66605346677E+03 0.79652256256E+03 0.79652256256E+03 0.75049603025E+03 0.62700344519E+03
 0.46228556992E+03 0.29752563332E+03 0.16416295578E+03 0.77109755046E+02 0.34347074889E+02
 0.20369832901E+02 0.15041644376E+02 0.11569361724E+02 0.94299290484E+01 0.82026108934E+01
 0.75973803536E+01 0.72294791966E+01 0.68840560423E+01 0.67167646847E+01 0.68840560423E+01
 0.72294791966E+01 0.75973803536E+01 0.82026108934E+01 0.94299290484E+01 0.11569361724E+02
 0.15041644376E+02 0.20369832901E+02 0.34347074889E+02 0.77109755046E+02 0.16416295578E+03
 0.29752563332E+03 0.46228556992E+03 0.62700344519E+03 0.75049603025E+03 0.66605346677E+03
 0.62700344519E+03 0.52226408398E+03 0.38280934982E+03 0.24409766612E+03 0.13328382797E+03
 0.62820560924E+02 0.29797477151E+02 0.19349757469E+02 0.14496199142E+02 0.11369034683E+02
 0.94679437759E+01 0.83828961522E+01 0.78433367768E+01 0.75199705412E+01 0.72294791966E+01
 0.70913786703E+01 0.72294791966E+01 0.75199705412E+01 0.78433367768E+01 0.83828961522E+01
 0.94679437759E+01 0.11369034683E+02 0.14496199142E+02 0.19349757469E+02 0.29797477151E+02
 0.62820560924E+02 0.13328382797E+03 0.24409766612E+03 0.38280934982E+03 0.52226408398E+03
 0.62700344519E+03 0.49197192236E+03 0.46228556992E+03 0.38280934982E+03 0.27758472158E+03
 0.17431138206E+03 0.94055374911E+02 0.45607105460E+02 0.24779971643E+02 0.17909871526E+02
 0.13737992313E+02 0.11117422522E+02 0.95400974299E+01 0.86265259758E+01 0.81428340452E+01
 0.78433367768E+01 0.75973803536E+01 0.74870005064E+01 0.75973803536E+01 0.78433367768E+01
 0.81428340452E+01 0.86265259758E+01 0.95400974299E+01 0.11117422522E+02 0.13737992313E+02
 0.17909871526E+02 0.24779971643E+02 0.45607105460E+02 0.94055374911E+02 0.17431138206E+03
 0.27758472158E+03 0.38280934982E+03 0.46228556992E+03 0.31759023810E+03 0.29752563332E+03
 0.24409766612E+03 0.17431138206E+03 0.10768251333E+03 0.58516237074E+02 0.31428954608E+02
 0.21011991771E+02 0.16246790279E+02 0.12945183797E+02 0.10924766679E+02 0.97226199370E+01
 0.90184434266E+01 0.86265259758E+01 0.83828961522E+01 0.82026108934E+01 0.81270165943E+01
 0.82026108934E+01 0.83828961522E+01 0.86265259758E+01 0.90184434266E+01 0.97226199370E+01
 0.10924766679E+02 0.12945183797E+02 0.16246790279E+02 0.21011991771E+02 0.31428954608E+02
 0.58516237074E+02 0.10768251333E+03 0.17431138206E+03 0.24409766612E+03 0.29752563332E+03
 0.17589850593E+03 0.16416295578E+03 0.13328382797E+03 0.94055374911E+02 0.58516237074E+02
 0.34605224961E+02 0.23135305916E+02 0.18206322937E+02 0.14645209262E+02 0.12292505978E+02
 0.10908538735E+02 0.10131788451E+02 0.97226199370E+01 0.95400974299E+01 0.94679437759E+01
 0.94299290484E+01 0.94143097465E+01 0.94299290484E+01 0.94679437759E+01 0.95400974299E+01
 0.97226199370E+01 0.10131788451E+02 0.10908538735E+02 0.12292505978E+02 0.14645209262E+02
 0.18206322937E+02 0.23135305916E+02 0.34605224961E+02 0.58516237074E+02 0.94055374911E+02
 0.13328382797E+03 0.16416295578E+03 0.82669628230E+02 0.77109755046E+02 0.62820560924E+02
 0.45607105460E+02 0.31428954608E+02 0.23135305916E+02 0.18937595562E+02 0.15695901698E+02
 0.13354428163E+02 0.11924107432E+02 0.11187409159E+02 0.10908538735E+02 0.10924766679E+02
 0.11117422522E+02 0.11369034683E+02 0.11569361724E+02 0.11644384305E+02 0.11569361724E+02
 0.11369034683E+02 0.11117422522E+02 0.10924766679E+02 0.10908538735E+02 0.11187409159E+02
 0.11924107432E+02 0.13354428163E+02 0.15695901698E+02 0.18937595562E+02 0.23135305916E+02
 0.31428954608E+02 0.45607105460E+02 0.62820560924E+02 0.77109755046E+02 0.36195601006E+02
 0.34347074889E+02 0.29797477151E+02 0.24779971643E+02 0.21011991771E+02 0.18206322937E+02
 0.15695901698E+02 0.13762915852E+02 0.12534359114E+02 0.11962519591E+02 0.11924107432E+02
 0.12292505978E+02 0.12945183797E+02 0.13737992313E+02 0.14496199142E+02 0.15041644376E+02
 0.15240081381E+02 0.15041644376E+02 0.14496199142E+02 0.13737992313E+02 0.12945183797E+02
 0.12292505978E+02 0.11924107432E+02 0.11962519591E+02 0.12534359114E+02 0.13762915852E+02
 0.15695901698E+02 0.18206322937E+02 0.21011991771E+02 0.24779971643E+02 0.29797477151E+02
 0.34347074889E+02 0.20763245756E+02 0.20369832901E+02 0.19349757469E+02 0.17909871526E+02
 0.16246790279E+02 0.14645209262E+02 0.13354428163E+02 0.12534359114E+02 0.12255482858E+02
 0.12534359114E+02 0.13354428163E+02 0.14645209262E+02 0.16246790279E+02 0.17909871526E+02
 0.19349757469E+02 0.20369832901E+02 0.20763245756E+02 0.20369832901E+02 0.19349757469E+02
 0.17909871526E+02 0.16246790279E+02 0.14645209262E+02 0.13354428163E+02 0.12534359114E+02
 0.12255482858E+02 0.12534359114E+02 0.13354428163E+02 0.14645209262E+02 0.16246790279E+02
 0.17909871526E+02 0.19349757469E+02 0.20369832901E+02 0.15240081381E+02 0.15041644376E+02
 0.14496199142E+02 0.13737992313E+02 0.12945183797E+02 0.12292505978E+02 0.11924107432E+02
 0.11962519591E+02 0.12534359114E+02 0.13762915852E+02 0.15695901698E+02 0.18206322937E+02
 0.21011991771E+02 0.24779971643E+02 0.29797477151E+02 0.34347074889E+02 0.36195601006E+02
 0.34347074889E+02 0.29797477151E+02 0.24779971643E+02 0.21011991771E+02 0.18206322937E+02
 0.15695901698E+02 0.13762915852E+02 0.12534359114E+02 0.11962519591E+02 0.11924107432E+02
 0.12292505978E+02 0.12945183797E+02 0.13737992313E+02 0.14496199142E+02 0.15041644376E+02
 0.11644384305E+02 0.11569361724E+02 0.11369034683E+02 0.11117422522E+02 0.10924766679E+02
 0.10908538735E+02 0.11187409159E+02 0.11924107432E+02 0.13354428163E+02 0.15695901698E+02
 0.18937595562E+02 0.23135305916E+02 0.31428954608E+02 0.45607105460E+02 0.62820560924E+02
 0.77109755046E+02 0.82669628230E+02 0.77109755046E+02 0.62820560924E+02 0.45607105460E+02
 0.31428954608E+02 0.23135305916E+02 0.18937595562E+02 0.15695901698E+02 0.13354428163E+02
 0.11924107432E+02 0.11187409159E+02 0.10908538735E+02 0.10924766679E+02 0.11117422522E+02
 0.11369034683E+02 0.11569361724E+02 0.94143097465E+01 0.94299290484E+01 0.94679437759E+01
 0.95400974299E+01 0.97226199370E+01 0.10131788451E+02 0.10908538735E+02 0.12292505978E+02
 0.14645209262E+02 0.18206322937E+02 0.23135305916E+02 0.34605224961E+02 0.58516237074E+02
 0.94055374911E+02 0.13328382797E+03 0.16416295578E+03 0.17589850593E+03 0.16416295578E+03
 0.13328382797E+03 0.94055374911E+02 0.58516237074E+02 0.34605224961E+02 0.23135305916E+02
 0.18206322937E+02 0.14645209262E+02 0.12292505978E+02 0.10908538735E+02 0.10131788451E+02
 0.97226199370E+01 0.95400974299E+01 0.94679437759E+01 0.94299290484E+01 0.81270165943E+01
 0.82026108934E+01 0.83828961522E+01 0.86265259758E+01 0.90184434266E+01 0.97226199370E+01
 0.10924766679E+02 0.12945183797E+02 0.16246790279E+02 0.21011991771E+02 0.31428954608E+02
 0.58516237074E+02 0.10768251333E+03 0.17431138206E+03 0.24409766612E+03 0.29752563332E+03
 0.31759023810E+03 0.29752563332E+03 0.24409766612E+03 0.17431138206E+03 0.10768251333E+03
 0.58516237074E+02 0.31428954608E+02 0.21011991771E+02 0.16246790279E+02 0.12945183797E+02
 0.10924766679E+02 0.97226199370E+01 0.90184434266E+01 0.86265259758E+01 0.83828961522E+01
 0.82026108934E+01 0.74870005064E+01 0.75973803536E+01 0.78433367768E+01 0.81428340452E+01
 0.86265259758E+01 0.95400974299E+01 0.11117422522E+02 0.13737992313E+02 0.17909871526E+02
 0.24779971643E+02 0.45607105460E+02 0.94055374911E+02 0.17431138206E+03 0.27758472158E+03
 0.38280934982E+03 0.46228556992E+03 0.49197192236E+03 0.46228556992E+03 0.38280934982E+03
 0.27758472158E+03 0.17431138206E+03 0.94055374911E+02 0.45607105460E+02 0.24779971643E+02
 0.17909871526E+02 0.13737992313E+02 0.11117422522E+02 0.95400974299E+01 0.86265259758E+01
 0.81428340452E+01 0.78433367768E+01 0.75973803536E+01 0.70913786703E+01 0.72294791966E+01
 0.75199705412E+01 0.78433367768E+01 0.83828961522E+01 0.94679437759E+01 0.11369034683E+02
 0.14496199142E+02 0.19349757469E+02 0.29797477151E+02 0.62820560924E+02 0.13328382797E+03
 0.24409766612E+03 0.38280934982E+03 0.52226408398E+03 0.62700344519E+03 0.66605346677E+03
 0.62700344519E+03 0.52226408398E+03 0.38280934982E+03 0.24409766612E+03 0.13328382797E+03
 0.62820560924E+02 0.29797477151E+02 0.19349757469E+02 0.14496199142E+02 0.11369034683E+02
 0.94679437759E+01 0.83828961522E+01 0.78433367768E+01 0.75199705412E+01 0.72294791966E+01
 0.67167646847E+01 0.68840560423E+01 0.72294791966E+01 0.75973803536E+01 0.82026108934E+01
 0.94299290484E+01 0.11569361724E+02 0.15041644376E+02 0.20369832901E+02 0.34347074889E+02
 0.77109755046E+02 0.16416295578E+03 0.29752563332E+03 0.46228556992E+03 0.62700344519E+03
 0.75049603025E+03 0.79652256256E+03 0.75049603025E+03 0.62700344519E+03 0.46228556992E+03
 0.29752563332E+03 0.16416295578E+03 0.77109755046E+02 0.34347074889E+02 0.20369832901E+02
 0.15041644376E+02 0.11569361724E+02 0.94299290484E+01 0.82026108934E+01 0.75973803536E+01
 0.72294791966E+01 0.68840560423E+01 0.65352670432E+01 0.67167646847E+01 0.70913786703E+01
 0.74870005064E+01 0.81270165943E+01 0.94143097465E+01 0.11644384305E+02 0.15240081381E+02
 0.20763245756E+02 0.36195601006E+02 0.82669628230E+02 0.17589850593E+03 0.31759023810E+03
 0.49197192236E+03 0.66605346677E+03 0.79652256256E+03 0.84515017663E+03 0.79652256256E+03
 0.66605346677E+03 0.49197192236E+03 0.31759023810E+03 0.17589850593E+03 0.82669628230E+02
 0.36195601006E+02 0.20763245756E+02 0.15240081381E+02 0.11644384305E+02 0.94143097465E+01
 0.81270165943E+01 0.74870005064E+01 0.70913786703E+01 0.67167646847E+01 0.67167646847E+01
 0.68840560423E+01 0.72294791966E+01 0.75973803536E+01 0.82026108934E+01 0.94299290484E+01
 0.11569361724E+02 0.15041644376E+02 0.20369832901E+02 0.34347074889E+02 0.77109755046E+02
 0.16416295578E+03 0.29752563332E+03 0.46228556992E+03 0.62700344519E+03 0.75049603025E+03
 0.79652256256E+03 0.75049603025E+03 0.62700344519E+03 0.46228556992E+03 0.29752563332E+03
 0.16416295578E+03 0.77109755046E+02 0.34347074889E+02 0.20369832901E+02 0.15041644376E+02
 0.11569361724E+02 0.94299290484E+01 0.82026108934E+01 0.75973803536E+01 0.72294791966E+01
 0.68840560423E+01 0.70913786703E+01 0.72294791966E+01 0.75199705412E+01 0.78433367768E+01
 0.83828961522E+01 0.94679437759E+01 0.11369034683E+02 0.14496199142E+02 0.19349757469E+02
 0.29797477151E+02 0.62820560924E+02 0.13328382797E+03 0.24409766612E+03 0.38280934982E+03
 0.52226408398E+03 0.62700344519E+03 0.66605346677E+03 0.62700344519E+03 0.52226408398E+03
 0.38280934982E+03 0.24409766612E+03 0.13328382797E+03 0.62820560924E+02 0.29797477151E+02
 0.19349757469E+02 0.14496199142E+02 0.11369034683E+02 0.94679437759E+01 0.83828961522E+01
 0.78433367768E+01 0.75199705412E+01 0.72294791966E+01 0.74870005064E+01 0.75973803536E+01
 0.78433367768E+01 0.81428340452E+01 0.86265259758E+01 0.95400974299E+01 0.11117422522E+02
 0.13737992313E+02 0.17909871526E+02 0.24779971643E+02 0.45607105460E+02 0.94055374911E+02
 0.17431138206E+03 0.27758472158E+03 0.38280934982E+03 0.46228556992E+03 0.49197192236E+03
 0.46228556992E+03 0.38280934982E+03 0.27758472158E+03 0.17431138206E+03 0.94055374911E+02
 0.45607105460E+02 0.24779971643E+02 0.17909871526E+02 0.13737992313E+02 0.11117422522E+02
 0.95400974299E+01 0.86265259758E+01 0.81428340452E+01 0.78433367768E+01 0.75973803536E+01
 0.81270165943E+01 0.82026108934E+01 0.83828961522E+01 0.86265259758E+01 0.90184434266E+01
 0.97226199370E+01 0.10924766679E+02 0.12945183797E+02 0.16246790279E+02 0.21011991771E+02
 0.31428954608E+02 0.58516237074E+02 0.10768251333E+03 0.17431138206E+03 0.24409766612E+03
 0.29752563332E+03 0.31759023810E+03 0.29752563332E+03 0.24409766612E+03 0.17431138206E+03
 0.10768251333E+03 0.58516237074E+02 0.31428954608E+02 0.21011991771E+02 0.16246790279E+02
 0.12945183797E+02 0.10924766679E+02 0.97226199370E+01 0.90184434266E+01 0.86265259758E+01
 0.83828961522E+01 0.82026108934E+01 0.94143097465E+01 0.94299290484E+01 0.94679437759E+01
 0.95400974299E+01 0.97226199370E+01 0.10131788451E+02 0.10908538735E+02 0.12292505978E+02
 0.14645209262E+02 0.18206322937E+02 0.23135305916E+02 0.34605224961E+02 0.58516237074E+02
 0.94055374911E+02 0.13328382797E+03 0.16416295578E+03 0.17589850593E+03 0.16416295578E+03
 0.13328382797E+03 0.94055374911E+02 0.58516237074E+02 0.34605224961E+02 0.23135305916E+02
 0.18206322937E+02 0.14645209262E+02 0.12292505978E+02 0.10908538735E+02 0.10131788451E+02
 0.97226199370E+01 0.95400974299E+01 0.94679437759E+01 0.94299290484E+01 0.11644384305E+02
 0.11569361724E+02 0.11369034683E+02 0.11117422522E+02 0.10924766679E+02 0.10908538735E+02
 0.11187409159E+02 0.11924107432E+02 0.13354428163E+02 0.15695901698E+02 0.18937595562E+02
 0.23135305916E+02 0.31428954608E+02 0.45607105460E+02 0.62820560924E+02 0.77109755046E+02
 0.82669628230E+02 0.77109755046E+02 0.62820560924E+02 0.45607105460E+02 0.31428954608E+02
 0.23135305916E+02 0.18937595562E+02 0.15695901698E+02 0.13354428163E+02 0.11924107432E+02
 0.11187409159E+02 0.10908538735E+02 0.10924766679E+02 0.11117422522E+02 0.11369034683E+02
 0.11569361724E+02 0.15240081381E+02 0.15041644376E+02 0.14496199142E+02 0.13737992313E+02
 0.12945183797E+02 0.12292505978E+02 0.11924107432E+02 0.11962519591E+02 0.12534359114E+02
 0.13762915852E+02 0.15695901698E+02 0.18206322937E+02 0.21011991771E+02 0.24779971643E+02
 0.29797477151E+02 0.34347074889E+02 0.36195601006E+02 0.34347074889E+02 0.29797477151E+02
 0.24779971643E+02 0.21011991771E+02 0.18206322937E+02 0.15695901698E+02 0.13762915852E+02
 0.12534359114E+02 0.11962519591E+02 0.11924107432E+02 0.12292505978E+02 0.12945183797E+02
 0.13737992313E+02 0.14496199142E+02 0.15041644376E+02 0.20763245756E+02 0.20369832901E+02
 0.19349757469E+02 0.17909871526E+02 0.16246790279E+02 0.14645209262E+02 0.13354428163E+02
 0.12534359114E+02 0.12255482858E+02 0.12534359114E+02 0.13354428163E+02 0.14645209262E+02
 0.16246790279E+02 0.17909871526E+02 0.19349757469E+02 0.20369832901E+02 0.20763245756E+02
 0.20369832901E+02 0.19349757469E+02 0.17909871526E+02 0.16246790279E+02 0.14645209262E+02
 0.13354428163E+02 0.12534359114E+02 0.12255482858E+02 0.12534359114E+02 0.13354428163E+02
 0.14645209262E+02 0.16246790279E+02 0.17909871526E+02 0.19349757469E+02 0.20369832901E+02
 0.36195601006E+02 0.34347074889E+02 0.29797477151E+02 0.24779971643E+02 0.21011991771E+02
 0.18206322937E+02 0.15695901698E+02 0.13762915852E+02 0.12534359114E+02 0.11962519591E+02
 0.11924107432E+02 0.12292505978E+02 0.12945183797E+02 0.13737992313E+02 0.14496199142E+02
 0.15041644376E+02 0.15240081381E+02 0.15041644376E+02 0.14496199142E+02 0.13737992313E+02
 0.12945183797E+02 0.12292505978E+02 0.11924107432E+02 0.11962519591E+02 0.12534359114E+02
 0.13762915852E+02 0.15695901698E+02 0.18206322937E+02 0.21011991771E+02 0.24779971643E+02
 0.29797477151E+02 0.34347074889E+02 0.82669628230E+02 0.77109755046E+02 0.62820560924E+02
 0.45607105460E+02 0.31428954608E+02 0.23135305916E+02 0.18937595562E+02 0.15695901698E+02
 0.13354428163E+02 0.11924107432E+02 0.11187409159E+02 0.10908538735E+02 0.10924766679E+02
 0.11117422522E+02 0.11369034683E+02 0.11569361724E+02 0.11644384305E+02 0.11569361724E+02
 0.11369034683E+02 0.11117422522E+02 0.10924766679E+02 0.10908538735E+02 0.11187409159E+02
 0.11924107432E+02 0.13354428163E+02 0.15695901698E+02 0.18937595562E+02 0.23135305916E+02
 0.31428954608E+02 0.45607105460E+02 0.62820560924E+02 0.77109755046E+02 0.17589850593E+03
 0.16416295578E+03 0.13328382797E+03 0.94055374911E+02 0.58516237074E+02 0.34605224961E+02
 0.23135305916E+02 0.18206322937E+02 0.14645209262E+02 0.12292505978E+02 0.10908538735E+02
 0.10131788451E+02 0.97226199370E+01 0.95400974299E+01 0.94679437759E+01 0.94299290484E+01
 0.94143097465E+01 0.94299290484E+01 0.94679437759E+01 0.95400974299E+01 0.97226199370E+01
 0.10131788451E+02 0.10908538735E+02 0.12292505978E+02 0.14645209262E+02 0.18206322937E+02
 0.23135305916E+02 0.34605224961E+02 0.58516237074E+02 0.94055374911E+02 0.13328382797E+03
 0.16416295578E+03 0.31759023810E+03 0.29752563332E+03 0.24409766612E+03 0.17431138206E+03
 0.10768251333E+03 0.58516237074E+02 0.31428954608E+02 0.21011991771E+02 0.16246790279E+02
 0.12945183797E+02 0.10924766679E+02 0.97226199370E+01 0.90184434266E+01 0.86265259758E+01
 0.83828961522E+01 0.82026108934E+01 0.81270165943E+01 0.82026108934E+01 0.83828961522E+01
 0.86265259758E+01 0.90184434266E+01 0.97226199370E+01 0.10924766679E+02 0.12945183797E+02
 0.16246790279E+02 0.21011991771E+02 0.31428954608E+02 0.58516237074E+02 0.10768251333E+03
 0.17431138206E+03 0.24409766612E+03 0.29752563332E+03 0.49197192236E+03 0.46228556992E+03
 0.38280934982E+03 0.27758472158E+03 0.17431138206E+03 0.94055374911E+02 0.45607105460E+02
 0.24779971643E+02 0.17909871526E+02 0.13737992313E+02 0.11117422522E+02 0.95400974299E+01
 0.86265259758E+01 0.81428340452E+01 0.78433367768E+01 0.75973803536E+01 0.74870005064E+01
 0.75973803536E+01 0.78433367768E+01 0.81428340452E+01 0.86265259758E+01 0.95400974299E+01
 0.11117422522E+02 0.13737992313E+02 0.17909871526E+02 0.24779971643E+02 0.45607105460E+02
 0.94055374911E+02 0.17431138206E+03 0.27758472158E+03 0.38280934982E+03 0.46228556992E+03
 0.66605346677E+03 0.62700344519E+03 0.52226408398E+03 0.38280934982E+03 0.24409766612E+03
 0.13328382797E+03 0.62820560924E+02 0.29797477151E+02 0.19349757469E+02 0.14496199142E+02
 0.11369034683E+02 0.94679437759E+01 0.83828961522E+01 0.78433367768E+01 0.75199705412E+01
 0.72294791966E+01 0.70913786703E+01 0.72294791966E+01 0.75199705412E+01 0.78433367768E+01
 0.83828961522E+01 0.94679437759E+01 0.11369034683E+02 0.14496199142E+02 0.19349757469E+02
 0.29797477151E+02 0.62820560924E+02 0.13328382797E+03 0.24409766612E+03 0.38280934982E+03
 0.52226408398E+03 0.62700344519E+03 0.79652256256E+03 0.75049603025E+03 0.62700344519E+03
 0.46228556992E+03 0.29752563332E+03 0.16416295578E+03 0.77109755046E+02 0.34347074889E+02
 0.20369832901E+02 0.15041644376E+02 0.11569361724E+02 0.94299290484E+01 0.82026108934E+01
 0.75973803536E+01 0.72294791966E+01 0.68840560423E+01 0.67167646847E+01 0.68840560423E+01
 0.72294791966E+01 0.75973803536E+01 0.82026108934E+01 0.94299290484E+01 0.11569361724E+02
 0.15041644376E+02 0.20369832901E+02 0.34347074889E+02 0.77109755046E+02 0.16416295578E+03
 0.29752563332E+03 0.46228556992E+03 0.62700344519E+03 0.75049603025E+03 0.79652256256E+03
 0.75049603025E+03 0.62700344519E+03 0.46228556992E+03 0.29752563332E+03 0.16416295578E+03
 0.77109755046E+02 0.34347074889E+02 0.20369832901E+02 0.15041644376E+02 0.11569361724E+02
 0.94299290484E+01 0.82026108934E+01 0.75973803536E+01 0.72294791966E+01 0.68840560423E+01
 0.67167646847E+01 0.68840560423E+01 0.72294791966E+01 0.75973803536E+01 0.82026108934E+01
 0.94299290484E+01 0.11569361724E+02 0.15041644376E+02 0.20369832901E+02 0.34347074889E+02
 0.77109755046E+02 0.16416295578E+03 0.29752563332E+03 0.46228556992E+03 0.62700344519E+03
 0.75049603025E+03 0.75049603025E+03 0.70693207487E+03 0.59005150793E+03 0.43422365279E+03
 0.27861279768E+03 0.15316799810E+03 0.71961141492E+02 0.32670471446E+02 0.20003443674E+02
 0.14847900368E+02 0.11495402786E+02 0.94425481205E+01 0.82717873507E+01 0.76988906817E+01
 0.73565381354E+01 0.70381479394E+01 0.68840560423E+01 0.70381479394E+01 0.73565381354E+01
 0.76988906817E+01 0.82717873507E+01 0.94425481205E+01 0.11495402786E+02 0.14847900368E+02
 0.20003443674E+02 0.32670471446E+02 0.71961141492E+02 0.15316799810E+03 0.27861279768E+03
 0.43422365279E+03 0.59005150793E+03 0.70693207487E+03 0.62700344519E+03 0.59005150793E+03
 0.49096124366E+03 0.35913526269E+03 0.22829944130E+03 0.12428269609E+03 0.58762264083E+02
 0.28556974205E+02 0.19030361320E+02 0.14316263395E+02 0.11298750033E+02 0.94740376303E+01
 0.84378574719E+01 0.79259992788E+01 0.76243197254E+01 0.73565381354E+01 0.72294791966E+01
 0.73565381354E+01 0.76243197254E+01 0.79259992788E+01 0.84378574719E+01 0.94740376303E+01
 0.11298750033E+02 0.14316263395E+02 0.19030361320E+02 0.28556974205E+02 0.58762264083E+02
 0.12428269609E+03 0.22829944130E+03 0.35913526269E+03 0.49096124366E+03 0.59005150793E+03
 0.46228556992E+03 0.43422365279E+03 0.35913526269E+03 0.25986100183E+03 0.16273256779E+03
 0.87719423031E+02 0.42951586628E+02 0.24039705139E+02 0.17621641660E+02 0.13579404396E+02
 0.11053213006E+02 0.95391766542E+01 0.86660494097E+01 0.82064042179E+01 0.79259992788E+01
 0.76988906817E+01 0.75973803536E+01 0.76988906817E+01 0.79259992788E+01 0.82064042179E+01
 0.86660494097E+01 0.95391766542E+01 0.11053213006E+02 0.13579404396E+02 0.17621641660E+02
 0.24039705139E+02 0.42951586628E+02 0.87719423031E+02 0.16273256779E+03 0.25986100183E+03
 0.35913526269E+03 0.43422365279E+03 0.29752563332E+03 0.27861279768E+03 0.22829944130E+03
 0.16273256779E+03 0.10041685987E+03 0.54817784042E+02 0.30052353238E+02 0.20610569818E+02
 0.16001837619E+02 0.12811545292E+02 0.10866054755E+02 0.97121420755E+01 0.90387152388E+01
 0.86660494097E+01 0.84378574719E+01 0.82717873507E+01 0.82026108934E+01 0.82717873507E+01
 0.84378574719E+01 0.86660494097E+01 0.90387152388E+01 0.97121420755E+01 0.10866054755E+02
 0.12811545292E+02 0.16001837619E+02 0.20610569818E+02 0.30052353238E+02 0.54817784042E+02
 0.10041685987E+03 0.16273256779E+03 0.22829944130E+03 0.27861279768E+03 0.16416295578E+03
 0.15316799810E+03 0.12428269609E+03 0.87719423031E+02 0.54817784042E+02 0.32935330810E+02
 0.22570716710E+02 0.17897794599E+02 0.14449431453E+02 0.12181523643E+02 0.10849909895E+02
 0.10103864870E+02 0.97121420755E+01 0.95391766542E+01 0.94740376303E+01 0.94425481205E+01
 0.94299290484E+01 0.94425481205E+01 0.94740376303E+01 0.95391766542E+01 0.97121420755E+01
 0.10103864870E+02 0.10849909895E+02 0.12181523643E+02 0.14449431453E+02 0.17897794599E+02
 0.22570716710E+02 0.32935330810E+02 0.54817784042E+02 0.87719423031E+02 0.12428269609E+03
 0.15316799810E+03 0.77109755046E+02 0.71961141492E+02 0.58762264083E+02 0.42951586628E+02
 0.30052353238E+02 0.22570716710E+02 0.18606558685E+02 0.15462001426E+02 0.13203424740E+02
 0.11827052760E+02 0.11118265885E+02 0.10849909895E+02 0.10866054755E+02 0.11053213006E+02
 0.11298750033E+02 0.11495402786E+02 0.11569361724E+02 0.11495402786E+02 0.11298750033E+02
 0.11053213006E+02 0.10866054755E+02 0.10849909895E+02 0.11118265885E+02 0.11827052760E+02
 0.13203424740E+02 0.15462001426E+02 0.18606558685E+02 0.22570716710E+02 0.30052353238E+02
 0.42951586628E+02 0.58762264083E+02 0.71961141492E+02 0.34347074889E+02 0.32670471446E+02
 0.28556974205E+02 0.24039705139E+02 0.20610569818E+02 0.17897794599E+02 0.15462001426E+02
 0.13596302504E+02 0.12414186411E+02 0.11864379017E+02 0.11827052760E+02 0.12181523643E+02
 0.12811545292E+02 0.13579404396E+02 0.14316263395E+02 0.14847900368E+02 0.15041644376E+02
 0.14847900368E+02 0.14316263395E+02 0.13579404396E+02 0.12811545292E+02 0.12181523643E+02
 0.11827052760E+02 0.11864379017E+02 0.12414186411E+02 0.13596302504E+02 0.15462001426E+02
 0.17897794599E+02 0.20610569818E+02 0.24039705139E+02 0.28556974205E+02 0.32670471446E+02
 0.20369832901E+02 0.20003443674E+02 0.19030361320E+02 0.17621641660E+02 0.16001837619E+02
 0.14449431453E+02 0.13203424740E+02 0.12414186411E+02 0.12146225650E+02 0.12414186411E+02
 0.13203424740E+02 0.14449431453E+02 0.16001837619E+02 0.17621641660E+02 0.19030361320E+02
 0.20003443674E+02 0.20369832901E+02 0.20003443674E+02 0.19030361320E+02 0.17621641660E+02
 0.16001837619E+02 0.14449431453E+02 0.13203424740E+02 0.12414186411E+02 0.12146225650E+02
 0.12414186411E+02 0.13203424740E+02 0.14449431453E+02 0.16001837619E+02 0.17621641660E+02
 0.19030361320E+02 0.20003443674E+02 0.15041644376E+02 0.14847900368E+02 0.14316263395E+02
 0.13579404396E+02 0.12811545292E+02 0.12181523643E+02 0.11827052760E+02 0.11864379017E+02
 0.12414186411E+02 0.13596302504E+02 0.15462001426E+02 0.17897794599E+02 0.20610569818E+02
 0.24039705139E+02 0.28556974205E+02 0.32670471446E+02 0.34347074889E+02 0.32670471446E+02
 0.28556974205E+02 0.24039705139E+02 0.20610569818E+02 0.17897794599E+02 0.15462001426E+02
 0.13596302504E+02 0.12414186411E+02 0.11864379017E+02 0.11827052760E+02 0.12181523643E+02
 0.12811545292E+02 0.13579404396E+02 0.14316263395E+02 0.14847900368E+02 0.11569361724E+02
 0.11495402786E+02 0.11298750033E+02 0.11053213006E+02 0.10866054755E+02 0.10849909895E+02
 0.11118265885E+02 0.11827052760E+02 0.13203424740E+02 0.15462001426E+02 0.18606558685E+02
 0.22570716710E+02 0.30052353238E+02 0.42951586628E+02 0.58762264083E+02 0.71961141492E+02
 0.77109755046E+02 0.71961141492E+02 0.58762264083E+02 0.42951586628E+02 0.30052353238E+02
 0.22570716710E+02 0.18606558685E+02 0.15462001426E+02 0.13203424740E+02 0.11827052760E+02
 0.11118265885E+02 0.10849909895E+02 0.10866054755E+02 0.11053213006E+02 0.11298750033E+02
 0.11495402786E+02 0.94299290484E+01 0.94425481205E+01 0.94740376303E+01 0.95391766542E+01
 0.97121420755E+01 0.10103864870E+02 0.10849909895E+02 0.12181523643E+02 0.14449431453E+02
 0.17897794599E+02 0.22570716710E+02 0.32935330810E+02 0.54817784042E+02 0.87719423031E+02
 0.12428269609E+03 0.15316799810E+03 0.16416295578E+03 0.15316799810E+03 0.12428269609E+03
 0.87719423031E+02 0.54817784042E+02 0.32935330810E+02 0.22570716710E+02 0.17897794599E+02
 0.14449431453E+02 0.12181523643E+02 0.10849909895E+02 0.10103864870E+02 0.97121420755E+01
 0.95391766542E+01 0.94740376303E+01 0.94425481205E+01 0.82026108934E+01 0.82717873507E+01
 0.84378574719E+01 0.86660494097E+01 0.90387152388E+01 0.97121420755E+01 0.10866054755E+02
 0.12811545292E+02 0.16001837619E+02 0.20610569818E+02 0.30052353238E+02 0.54817784042E+02
 0.10041685987E+03 0.16273256779E+03 0.22829944130E+03 0.27861279768E+03 0.29752563332E+03
 0.27861279768E+03 0.22829944130E+03 0.16273256779E+03 0.10041685987E+03 0.54817784042E+02
 0.30052353238E+02 0.20610569818E+02 0.16001837619E+02 0.12811545292E+02 0.10866054755E+02
 0.97121420755E+01 0.90387152388E+01 0.86660494097E+01 0.84378574719E+01 0.82717873507E+01
 0.75973803536E+01 0.76988906817E+01 0.79259992788E+01 0.82064042179E+01 0.86660494097E+01
 0.95391766542E+01 0.11053213006E+02 0.13579404396E+02 0.17621641660E+02 0.24039705139E+02
 0.42951586628E+02 0.87719423031E+02 0.16273256779E+03 0.25986100183E+03 0.35913526269E+03
 0.43422365279E+03 0.46228556992E+03 0.43422365279E+03 0.35913526269E+03 0.25986100183E+03
 0.16273256779E+03 0.87719423031E+02 0.42951586628E+02 0.24039705139E+02 0.17621641660E+02
 0.13579404396E+02 0.11053213006E+02 0.95391766542E+01 0.86660494097E+01 0.82064042179E+01
 0.79259992788E+01 0.76988906817E+01 0.72294791966E+01 0.73565381354E+01 0.76243197254E+01
 0.79259992788E+01 0.84378574719E+01 0.94740376303E+01 0.11298750033E+02 0.14316263395E+02
 0.19030361320E+02 0.28556974205E+02 0.58762264083E+02 0.12428269609E+03 0.22829944130E+03
 0.35913526269E+03 0.49096124366E+03 0.59005150793E+03 0.62700344519E+03 0.59005150793E+03
 0.49096124366E+03 0.35913526269E+03 0.22829944130E+03 0.12428269609E+03 0.58762264083E+02
 0.28556974205E+02 0.19030361320E+02 0.14316263395E+02 0.11298750033E+02 0.94740376303E+01
 0.84378574719E+01 0.79259992788E+01 0.76243197254E+01 0.73565381354E+01 0.68840560423E+01
 0.70381479394E+01 0.73565381354E+01 0.76988906817E+01 0.82717873507E+01 0.94425481205E+01
 0.11495402786E+02 0.14847900368E+02 0.20003443674E+02 0.32670471446E+02 0.71961141492E+02
 0.15316799810E+03 0.27861279768E+03 0.43422365279E+03 0.59005150793E+03 0.70693207487E+03
 0.75049603025E+03 0.70693207487E+03 0.59005150793E+03 0.43422365279E+03 0.27861279768E+03
 0.15316799810E+03 0.71961141492E+02 0.32670471446E+02 0.20003443674E+02 0.14847900368E+02
 0.11495402786E+02 0.94425481205E+01 0.82717873507E+01 0.76988906817E+01 0.73565381354E+01
 0.70381479394E+01 0.67167646847E+01 0.68840560423E+01 0.72294791966E+01 0.75973803536E+01
 0.82026108934E+01 0.94299290484E+01 0.11569361724E+02 0.15041644376E+02 0.20369832901E+02
 0.34347074889E+02 0.77109755046E+02 0.16416295578E+03 0.29752563332E+03 0.46228556992E+03
 0.62700344519E+03 0.75049603025E+03 0.79652256256E+03 0.75049603025E+03 0.62700344519E+03
 0.46228556992E+03 0.29752563332E+03 0.16416295578E+03 0.77109755046E+02 0.34347074889E+02
 0.20369832901E+02 0.15041644376E+02 0.11569361724E+02 0.94299290484E+01 0.82026108934E+01
 0.75973803536E+01 0.72294791966E+01 0.68840560423E+01 0.68840560423E+01 0.70381479394E+01
 0.73565381354E+01 0.76988906817E+01 0.82717873507E+01 0.94425481205E+01 0.11495402786E+02
 0.14847900368E+02 0.20003443674E+02 0.32670471446E+02 0.71961141492E+02 0.15316799810E+03
 0.27861279768E+03 0.43422365279E+03 0.59005150793E+03 0.70693207487E+03 0.75049603025E+03
 0.70693207487E+03 0.59005150793E+03 0.43422365279E+03 0.27861279768E+03 0.15316799810E+03
 0.71961141492E+02 0.32670471446E+02 0.20003443674E+02 0.14847900368E+02 0.11495402786E+02
 0.94425481205E+01 0.82717873507E+01 0.76988906817E+01 0.73565381354E+01 0.70381479394E+01
 0.72294791966E+01 0.73565381354E+01 0.76243197254E+01 0.79259992788E+01 0.84378574719E+01
 0.94740376303E+01 0.11298750033E+02 0.14316263395E+02 0.19030361320E+02 0.28556974205E+02
 0.58762264083E+02 0.12428269609E+03 0.22829944130E+03 0.35913526269E+03 0.49096124366E+03
 0.59005150793E+03 0.62700344519E+03 0.59005150793E+03 0.49096124366E+03 0.35913526269E+03
 0.22829944130E+03 0.12428269609E+03 0.58762264083E+02 0.28556974205E+02 0.19030361320E+02