    4    4    1    1
  0.1200752E+02  0.3635000E-09  0.3635000E-09  0.3635000E-09  0.5000000E-15
  1.000000000000000E-004
  CAR 
 unknown system                          
     44     20     30
 
  0.0000000E+00  0.0000000E+00  0.0000000E+00  0.2915452E-02
    1       -1.847039   1.000000
    2        2.601416   1.000000
    3        2.601416   1.000000
    4        2.601416   1.000000
    5        3.046998   1.000000
    6        3.046998   1.000000
    7        3.046998   1.000000
    8        4.404840   1.000000
    9        4.404840   1.000000
   10        4.404840   1.000000
   11        5.210541   1.000000
   12        5.210541   1.000000
   13        5.745770   1.000000
   14        5.745770   1.000000
   15        5.745770   1.000000
   16        5.897709   1.000000
   17        5.897709   1.000000
   18        5.897709   1.000000
   19        5.897709   1.000000
   20        5.897709   1.000000
   21        5.897709   1.000000
   22        8.889636  -0.000000
   23        8.889636  -0.000000
   24        8.889636  -0.000000
   25       14.379599   0.000000
   26       14.379599   0.000000
   27       14.379599   0.000000
   28       20.331643   0.000000
   29       20.331643   0.000000
   30       20.331643   0.000000
 
  0.1428571E+00  0.0000000E+00  0.0000000E+00  0.1749271E-01
    1       -1.602538   1.000000
    2        2.589238   1.000000
    3        2.712466   1.000000
    4        2.712466   1.000000
    5        3.110895   1.000000
    6        3.115040   1.000000
    7        3.115040   1.000000
    8        4.333945   1.000000
    9        4.461875   1.000000
   10        4.461875   1.000000
   11        5.146825   1.000000
   12        5.236455   1.000000
   13        5.521213   1.000000
   14        5.521213   1.000000
   15        5.663077   1.000000
   16        5.663077   1.000000
   17        5.718752   1.000000
   18        5.800729   1.000000
   19        5.800729   1.000000
   20        5.897904   1.000000
   21        5.897904   1.000000
   22        7.617186  -0.009211
   23        9.486286  -0.000000
   24        9.486286  -0.000000
   25       14.471741   0.000000
   26       14.471741   0.000000
   27       16.143265   0.000000
   28       18.966810   0.000000
   29       18.966815   0.000000
   30       19.398042   0.000000
 
  0.2857143E+00  0.0000000E+00  0.0000000E+00  0.1749271E-01
    1       -0.885582   1.000000
    2        2.387177   1.000000
    3        2.995606   1.000000
    4        2.995606   1.000000
    5        3.291070   1.000000
    6        3.322532   1.000000
    7        3.322532   1.000000
    8        4.137458   1.000000
    9        4.628807   1.000000
   10        4.628807   1.000000
   11        4.828733   1.000000
   12        4.828733   1.000000
   13        4.978421   1.000000
   14        5.309387   1.000000
   15        5.442449   1.000000
   16        5.442449   1.000000
   17        5.545818   1.000000
   18        5.545818   1.000000
   19        5.643169   1.000000
   20        5.772400   1.000000
   21        5.898145   1.000000
   22        5.898145   1.000000
   23       10.834432  -0.000000
   24       10.834432  -0.000000
   25       14.772957   0.000000
   26       14.772957   0.000000
   27       16.725785   0.000000
   28       16.725785   0.000000
   29       17.768614   0.000000
   30       17.768614   0.000000
 
  0.4285714E+00  0.0000000E+00  0.0000000E+00  0.1749271E-01
    1        0.234977   1.000000
    2        1.530105   1.000000
    3        3.277424   1.000000
    4        3.277424   1.000000
    5        3.556834   1.000000
    6        3.677386   1.000000
    7        3.677386   1.000000
    8        3.858753   1.000000
    9        4.184461   1.000000
   10        4.184461   1.000000
   11        4.795466   1.000000
   12        4.854916   1.000000
   13        4.890633   1.000000
   14        4.890633   1.000000
   15        5.210433   1.000000
   16        5.210433   1.000000
   17        5.215332   1.000000
   18        5.215332   1.000000
   19        5.415633   1.000000
   20        5.534940   1.000000
   21        5.898422   1.000000
   22        5.898422   1.000000
   23       12.557144  -0.000000
   24       12.557144  -0.000000
   25       14.541063   0.000000
   26       14.541063   0.000000
   27       15.337823   0.000000
   28       15.337823   0.000000
   29       16.399925   0.000000
   30       16.399925   0.000000
 
  0.1428571E+00  0.1428571E+00  0.0000000E+00  0.3498542E-01
    1       -1.361061   1.000000
    2        2.708624   1.000000
    3        2.708624   1.000000
    4        2.815744   1.000000
    5        3.175056   1.000000
    6        3.175056   1.000000
    7        3.176198   1.000000
    8        4.298229   1.000000
    9        4.488141   1.000000
   10        4.501182   1.000000
   11        5.132381   1.000000
   12        5.231060   1.000000
   13        5.296094   1.000000
   14        5.346553   1.000000
   15        5.346553   1.000000
   16        5.590283   1.000000
   17        5.670214   1.000000
   18        5.670214   1.000000
   19        5.800067   1.000000
   20        5.800067   1.000000
   21        5.834619   1.000000
   22        8.196905  -0.000000
   23        8.196905  -0.000000
   24        9.996022  -0.000000
   25       14.563069   0.000000
   26       16.295917   0.000000
   27       16.295917   0.000000
   28       16.675183   0.000000
   29       19.280628   0.000000
   30       19.280628   0.000000
 
  0.2857143E+00  0.1428571E+00  0.0000000E+00  0.6997085E-01
    1       -0.654122   1.000000
    2        2.532090   1.000000
    3        3.016900   1.000000
    4        3.081831   1.000000
    5        3.344731   1.000000
    6        3.356627   1.000000
    7        3.370836   1.000000
    8        4.131199   1.000000
    9        4.599680   1.000000
   10        4.637110   1.000000
   11        4.662588   1.000000
   12        4.743532   1.000000
   13        4.926438   1.000000
   14        5.013945   1.000000
   15        5.322587   1.000000
   16        5.393612   1.000000
   17        5.454797   1.000000
   18        5.544318   1.000000
   19        5.580900   1.000000
   20        5.798596   1.000000
   21        5.801687   1.000000
   22        6.498198   1.000002
   23        9.352156  -0.000000
   24       11.240254  -0.000000
   25       14.278927   0.000000
   26       14.992432   0.000000
   27       16.773153   0.000000
   28       17.025560   0.000000
   29       18.031253   0.000000
   30       19.757098   0.000000
 
  0.4285714E+00  0.1428571E+00  0.0000000E+00  0.6997085E-01
    1        0.447000   1.000000
    2        1.710401   1.000000
    3        3.340444   1.000000
    4        3.368420   1.000000
    5        3.593775   1.000000
    6        3.630837   1.000000
    7        3.703245   1.000000
    8        3.875248   1.000000
    9        4.062880   1.000000
   10        4.170897   1.000000
   11        4.579163   1.000000
   12        4.607220   1.000000
   13        4.892891   1.000000
   14        5.034193   1.000000
   15        5.190881   1.000000
   16        5.214586   1.000000
   17        5.218278   1.000000
   18        5.321990   1.000000
   19        5.482378   1.000000
   20        5.733972   1.000000
   21        5.796005   1.000000
   22        5.796776   1.000000
   23       10.750715  -0.000000
   24       12.385819  -0.000000
   25       12.902098   0.000000
   26       14.853211   0.000000
   27       15.558463   0.000000
   28       16.559368   0.000000
   29       17.670287   0.000000
   30       18.924988   0.000000
 
  0.2857143E+00  0.2857143E+00  0.0000000E+00  0.3498542E-01
    1        0.019463   1.000000
    2        2.914703   1.000000
    3        2.914703   1.000000
    4        3.288104   1.000000
    5        3.469521   1.000000
    6        3.505990   1.000000
    7        3.505990   1.000000
    8        4.066023   1.000000
    9        4.339085   1.000000
   10        4.339085   1.000000
   11        4.483107   1.000000
   12        4.562610   1.000000
   13        4.716892   1.000000
   14        4.968807   1.000000
   15        5.252545   1.000000
   16        5.389442   1.000000
   17        5.389442   1.000000
   18        5.479853   1.000000
   19        5.541991   1.000000
   20        5.541991   1.000000
   21        5.650734   1.000000
   22        7.449703  -0.033433
   23        7.449703  -0.033433
   24       11.953289  -0.000000
   25       12.319280  -0.000000
   26       15.333739   0.000000
   27       17.879880   0.000000
   28       17.879880   0.000000
   29       18.749853   0.000000
   30       18.749853   0.000000
 
  0.4285714E+00  0.2857143E+00  0.0000000E+00  0.6997085E-01
    1        1.051806   1.000000
    2        2.200442   1.000000
    3        3.353162   1.000000
    4        3.500304   1.000000
    5        3.610703   1.000000
    6        3.699363   1.000000
    7        3.770985   1.000000
    8        3.889598   1.000000
    9        3.906084   1.000000
   10        4.118900   1.000000
   11        4.273983   1.000000
   12        4.452824   1.000000
   13        4.922678   1.000000
   14        4.974481   1.000000
   15        5.104427   1.000000
   16        5.163288   1.000000
   17        5.180101   1.000000
   18        5.220195   1.000000
   19        5.545583   1.000000
   20        5.571356   1.000000
   21        5.786197   1.000000
   22        6.312551   1.000000
   23        8.590087  -0.000000
   24       10.050232  -0.000000
   25       13.859996   0.000000
   26       15.737239   0.000000
   27       16.055401   0.000000
   28       17.188340   0.000000
   29       19.190751   0.000000
   30       19.948666   0.000000
 
  0.4285714E+00  0.4285714E+00  0.0000000E+00  0.3498542E-01
    1        1.930500   1.000000
    2        2.817076   1.000000
    3        2.817076   1.000000
    4        3.271425   1.000000
    5        3.852577   1.000000
    6        3.852577   1.000000
    7        3.885875   1.000000
    8        3.906311   1.000000
    9        4.008747   1.000000
   10        4.076834   1.000000
   11        4.076834   1.000000
   12        4.322145   1.000000
   13        4.874341   1.000000
   14        4.967297   1.000000
   15        4.988585   1.000000
   16        4.988585   1.000000
   17        5.034994   1.000000
   18        5.258246   1.000000
   19        5.258246   1.000000
   20        5.368859   1.000000
   21        6.279464   1.000000
   22        7.103493   0.925821
   23        7.103493   0.925821
   24        8.283028  -0.000000
   25       15.289577   0.000000
   26       16.926104   0.000000
   27       17.086948   0.000000
   28       17.086948   0.000000
   29       18.221036   0.000000
   30       18.221036   0.000000
 
  0.1428571E+00  0.1428571E+00  0.1428571E+00  0.2332362E-01
    1       -1.123364   1.000000
    2        2.816162   1.000000
    3        2.816162   1.000000
    4        2.816162   1.000000
    5        3.233903   1.000000
    6        3.233903   1.000000
    7        3.233903   1.000000
    8        4.271187   1.000000
    9        4.516121   1.000000
   10        4.516121   1.000000
   11        5.141918   1.000000
   12        5.141918   1.000000
   13        5.141918   1.000000
   14        5.180804   1.000000
   15        5.180804   1.000000
   16        5.486379   1.000000
   17        5.486379   1.000000
   18        5.486379   1.000000
   19        5.832609   1.000000
   20        5.832609   1.000000
   21        5.832609   1.000000
   22        8.640492  -0.000000
   23        8.640492  -0.000000
   24        8.640492  -0.000000
   25       16.438414   0.000000
   26       16.438414   0.000000
   27       16.438414   0.000000
   28       16.981604   0.000000
   29       16.981604   0.000000
   30       16.981604   0.000000
 
  0.2857143E+00  0.1428571E+00  0.1428571E+00  0.6997085E-01
    1       -0.428841   1.000000
    2        2.652758   1.000000
    3        3.091236   1.000000
    4        3.091236   1.000000
    5        3.399727   1.000000
    6        3.406491   1.000000
    7        3.406491   1.000000
    8        4.134266   1.000000
    9        4.589868   1.000000
   10        4.607710   1.000000
   11        4.610934   1.000000
   12        4.610934   1.000000
   13        4.740611   1.000000
   14        5.091306   1.000000
   15        5.258493   1.000000
   16        5.309518   1.000000
   17        5.323410   1.000000
   18        5.323410   1.000000
   19        5.775409   1.000000
   20        5.790059   1.000000
   21        5.790059   1.000000
   22        6.835324   1.009250
   23        9.657922  -0.000000
   24        9.657922  -0.000000
   25       14.667269   0.000000
   26       14.667269   0.000000
   27       16.967843   0.000000
   28       16.967843   0.000000
   29       17.796724   0.000000
   30       19.976206   0.000000
 
  0.4285714E+00  0.1428571E+00  0.1428571E+00  0.6997085E-01
    1        0.646842   1.000000
    2        1.867456   1.000000
    3        3.413795   1.000000
    4        3.413795   1.000000
    5        3.600393   1.000000
    6        3.600393   1.000000
    7        3.641088   1.000000
    8        3.904234   1.000000
    9        4.144735   1.000000
   10        4.144735   1.000000
   11        4.480447   1.000000
   12        4.553308   1.000000
   13        4.771878   1.000000
   14        5.000327   1.000000
   15        5.147192   1.000000
   16        5.147192   1.000000
   17        5.232852   1.000000
   18        5.479616   1.000000
   19        5.648306   1.000000
   20        5.756144   1.000000
   21        5.756144   1.000000
   22        5.758461   1.000000
   23       10.917300  -0.000000
   24       10.917300  -0.000000
   25       12.802349   0.000000
   26       12.802349   0.000000
   27       17.853594   0.000000
   28       17.853594   0.000000
   29       19.092060   0.000000
   30       19.161366   0.000000
 
  0.2857143E+00  0.2857143E+00  0.1428571E+00  0.6997085E-01
    1        0.223102   1.000000
    2        2.946289   1.000000
    3        2.946289   1.000000
    4        3.236160   1.000000
    5        3.540363   1.000000
    6        3.570354   1.000000
    7        3.570354   1.000000
    8        4.102864   1.000000
    9        4.350699   1.000000
   10        4.350699   1.000000
   11        4.441111   1.000000
   12        4.557110   1.000000
   13        4.618433   1.000000
   14        5.114386   1.000000
   15        5.123207   1.000000
   16        5.123207   1.000000
   17        5.125053   1.000000
   18        5.437661   1.000000
   19        5.726254   1.000000
   20        5.730361   1.000000
   21        5.730361   1.000000
   22        7.631756  -0.007291
   23        7.631756  -0.007291
   24       10.363749  -0.000000
   25       12.442891  -0.000000
   26       15.488044   0.000000
   27       15.488044   0.000000
   28       17.515425   0.000000
   29       20.394114   0.000000
   30       20.523446   0.000000
 
  0.4285714E+00  0.2857143E+00  0.1428571E+00  0.1399417E+00
    1        1.207771   1.000000
    2        2.272565   1.000000
    3        3.230994   1.000000
    4        3.325835   1.000000
    5        3.702738   1.000000
    6        3.757393   1.000000
    7        3.795789   1.000000
    8        3.985560   1.000000
    9        4.128749   1.000000
   10        4.243956   1.000000
   11        4.293630   1.000000
   12        4.453544   1.000000
   13        4.700418   1.000000
   14        4.882815   1.000000
   15        4.974788   1.000000
   16        4.998562   1.000000
   17        5.256210   1.000000
   18        5.552765   1.000000
   19        5.649886   1.000000
   20        5.650462   1.000000
   21        5.731672   1.000000
   22        6.315328   1.000000
   23        8.694377  -0.000000
   24        9.999077  -0.000000
   25       12.137276  -0.000000
   26       13.570773   0.000000
   27       16.743024   0.000000
   28       18.384823   0.000000
   29       18.470265   0.000000
   30       19.830954   0.000000
 
  0.4285714E+00  0.4285714E+00  0.1428571E+00  0.6997085E-01
    1        1.988976   1.000000
    2        2.730214   1.000000
    3        2.730214   1.000000
    4        3.073937   1.000000
    5        3.959565   1.000000
    6        4.037437   1.000000
    7        4.037437   1.000000
    8        4.075923   1.000000
    9        4.166492   1.000000
   10        4.166492   1.000000
   11        4.255103   1.000000
   12        4.348619   1.000000
   13        4.673005   1.000000
   14        4.794898   1.000000
   15        4.794898   1.000000
   16        4.810572   1.000000
   17        5.263170   1.000000
   18        5.457967   1.000000
   19        5.457967   1.000000
   20        5.510671   1.000000
   21        6.219148   1.000000
   22        7.096371   0.940691
   23        7.096371   0.940691
   24        8.288979  -0.000000
   25       13.227178   0.000000
   26       14.783383   0.000000
   27       14.783383   0.000000
   28       16.390752   0.000000
   29       19.508094   0.000000
   30       20.961303   0.000000
 
  0.2857143E+00  0.2857143E+00  0.2857143E+00  0.2332362E-01
    1        0.798663   1.000000
    2        2.978837   1.000000
    3        2.978837   1.000000
    4        2.978837   1.000000
    5        3.771696   1.000000
    6        3.771696   1.000000
    7        3.771696   1.000000
    8        4.199062   1.000000
    9        4.373985   1.000000
   10        4.373985   1.000000
   11        4.373985   1.000000
   12        4.532954   1.000000
   13        4.532954   1.000000
   14        4.875239   1.000000
   15        4.875239   1.000000
   16        4.875239   1.000000
   17        5.373592   1.000000
   18        5.373592   1.000000
   19        5.790538   1.000000
   20        5.790538   1.000000
   21        5.790538   1.000000
   22        8.140269  -0.000000
   23        8.140269  -0.000000
   24        8.140269  -0.000000
   25       13.200779   0.000000
   26       13.200779   0.000000
   27       13.200779   0.000000
   28       18.001724   0.000000
   29       21.114430   0.000000
   30       21.114430   0.000000
 
  0.4285714E+00  0.2857143E+00  0.2857143E+00  0.6997085E-01
    1        1.616813   1.000000
    2        2.424583   1.000000
    3        2.981411   1.000000
    4        2.981411   1.000000
    5        3.944106   1.000000
    6        3.944106   1.000000
    7        4.080794   1.000000
    8        4.257999   1.000000
    9        4.359919   1.000000
   10        4.441319   1.000000
   11        4.450366   1.000000
   12        4.450366   1.000000
   13        4.547313   1.000000
   14        4.668571   1.000000
   15        4.752336   1.000000
   16        4.752336   1.000000
   17        5.583724   1.000000
   18        5.598611   1.000000
   19        5.730326   1.000000
   20        5.730326   1.000000
   21        5.748453   1.000000
   22        6.479362   1.000001
   23        8.769220  -0.000000
   24        8.769220  -0.000000
   25       11.653220  -0.000000
   26       11.653220  -0.000000
   27       14.401619   0.000000
   28       16.003845   0.000000
   29       22.077586   0.000000
   30       22.077587   0.000000
 
  0.4285714E+00  0.4285714E+00  0.2857143E+00  0.6997085E-01
    1        2.120144   1.000000
    2        2.580275   1.000000
    3        2.580275   1.000000
    4        2.756033   1.000000
    5        4.143127   1.000000
    6        4.219601   1.000000
    7        4.219601   1.000000
    8        4.395012   1.000000
    9        4.482910   1.000000
   10        4.552508   1.000000
   11        4.552508   1.000000
   12        4.586549   1.000000
   13        4.644971   1.000000
   14        4.658548   1.000000
   15        4.658548   1.000000
   16        4.714269   1.000000
   17        5.525163   1.000000
   18        5.684049   1.000000
   19        5.684049   1.000000
   20        5.689109   1.000000
   21        6.028442   1.000000
   22        7.061969   0.995169
   23        7.061969   0.995169
   24        8.043119  -0.000000
   25       11.449572  -0.000000
   26       12.584387  -0.000000
   27       12.584387  -0.000000
   28       14.063453   0.000000
   29       23.104358   0.000000
   30       24.474310   0.000000
 
  0.4285714E+00  0.4285714E+00  0.4285714E+00  0.2332362E-01
    1        2.278794   1.000000
    2        2.483411   1.000000
    3        2.483411   1.000000
    4        2.483411   1.000000
    5        4.313831   1.000000
    6        4.313831   1.000000
    7        4.313831   1.000000
    8        4.398356   1.000000
    9        4.398356   1.000000
   10        4.435839   1.000000
   11        4.435839   1.000000
   12        4.435839   1.000000
   13        5.225750   1.000000
   14        5.225750   1.000000
   15        5.225750   1.000000
   16        5.648046   1.000000
   17        5.706103   1.000000
   18        5.706103   1.000000
   19        5.764525   1.000000
   20        5.764525   1.000000
   21        5.764525   1.000000
   22        6.989256   1.035192
   23        6.989256   1.035192
   24        6.989256   1.035192
   25       11.266690  -0.000000
   26       11.266690  -0.000000
   27       11.266690  -0.000000
   28       12.300370  -0.000000
   29       26.807960   0.000000
   30       26.807960   0.000000
