unknown system                          
   1.00000000000000     
     3.635000    0.000000    0.000000
     0.000000    3.635000    0.000000
     0.000000    0.000000    3.635000
   Cu
     4
Direct
  0.000000  0.000000  0.000000
  0.500000  0.500000  0.000000
  0.500000  0.000000  0.500000
  0.000000  0.500000  0.500000
 
   32   32   32
  845.11      796.49      666.03      491.96      317.59      175.90      82.673      36.194      20.753      15.219    
  11.613      9.3722      8.0755      7.4280      7.0272      6.6496      6.4671      6.6496      7.0272      7.4280    
  8.0755      9.3722      11.613      15.219      20.753      36.194      82.673      175.90      317.59      491.96    
  666.03      796.49      796.49      750.47      626.99      462.28      297.53      164.17      77.115      34.347    
  20.361      15.022      11.539      9.3891      8.1526      7.5400      7.1667      6.8180      6.6496      6.8180    
  7.1667      7.5400      8.1526      9.3891      11.539      15.022      20.361      34.347      77.115      164.17    
  297.53      462.28      626.99      750.47      666.03      626.99      522.25      382.81      244.10      133.29    
  62.828      29.800      19.344      14.480      11.342      9.4307      8.3369      7.7901      7.4610      7.1667    
  7.0272      7.1667      7.4610      7.7901      8.3369      9.4307      11.342      14.480      19.344      29.800    
  62.828      133.29      244.10      382.81      522.25      626.99      491.96      462.28      382.81      277.59    
  174.32      94.067      45.618      24.786      17.908      13.726      11.095      9.5081      8.5863      8.0955    
  7.7901      7.5400      7.4280      7.5400      7.7901      8.0955      8.5863      9.5081      11.095      13.726    
  17.908      24.786      45.618      94.067      174.32      277.59      382.81      462.28      317.59      297.53    
  244.10      174.32      107.69      58.530      31.442      21.021      16.249      12.938      10.908      9.6970    
  8.9850      8.5863      8.3369      8.1526      8.0755      8.1526      8.3369      8.5863      8.9850      9.6970    
  10.908      12.938      16.249      21.021      31.442      58.530      107.69      174.32      244.10      297.53    
  175.90      164.17      133.29      94.067      58.530      34.620      23.149      18.218      14.651      12.291    
  10.899      10.114      9.6970      9.5081      9.4307      9.3891      9.3722      9.3891      9.4307      9.5081    
  9.6970      10.114      10.899      12.291      14.651      18.218      23.149      34.620      58.530      94.067    
  133.29      164.17      82.673      77.115      62.828      45.618      31.442      23.149      18.951      15.708    
  13.363      11.927      11.184      10.899      10.908      11.095      11.342      11.539      11.613      11.539    
  11.342      11.095      10.908      10.899      11.184      11.927      13.363      15.708      18.951      23.149    
  31.442      45.618      62.828      77.115      36.194      34.347      29.800      24.786      21.021      18.218    
  15.708      13.775      12.545      11.970      11.927      12.291      12.938      13.726      14.480      15.022    
  15.219      15.022      14.480      13.726      12.938      12.291      11.927      11.970      12.545      13.775    
  15.708      18.218      21.021      24.786      29.800      34.347      20.753      20.361      19.344      17.908    
  16.249      14.651      13.363      12.545      12.266      12.545      13.363      14.651      16.249      17.908    
  19.344      20.361      20.753      20.361      19.344      17.908      16.249      14.651      13.363      12.545    
  12.266      12.545      13.363      14.651      16.249      17.908      19.344      20.361      15.219      15.022    
  14.480      13.726      12.938      12.291      11.927      11.970      12.545      13.775      15.708      18.218    
  21.021      24.786      29.800      34.347      36.194      34.347      29.800      24.786      21.021      18.218    
  15.708      13.775      12.545      11.970      11.927      12.291      12.938      13.726      14.480      15.022    
  11.613      11.539      11.342      11.095      10.908      10.899      11.184      11.927      13.363      15.708    
  18.951      23.149      31.442      45.618      62.828      77.115      82.673      77.115      62.828      45.618    
  31.442      23.149      18.951      15.708      13.363      11.927      11.184      10.899      10.908      11.095    
  11.342      11.539      9.3722      9.3891      9.4307      9.5081      9.6970      10.114      10.899      12.291    
  14.651      18.218      23.149      34.620      58.530      94.067      133.29      164.17      175.90      164.17    
  133.29      94.067      58.530      34.620      23.149      18.218      14.651      12.291      10.899      10.114    
  9.6970      9.5081      9.4307      9.3891      8.0755      8.1526      8.3369      8.5863      8.9850      9.6970    
  10.908      12.938      16.249      21.021      31.442      58.530      107.69      174.32      244.10      297.53    
  317.59      297.53      244.10      174.32      107.69      58.530      31.442      21.021      16.249      12.938    
  10.908      9.6970      8.9850      8.5863      8.3369      8.1526      7.4280      7.5400      7.7901      8.0955    
  8.5863      9.5081      11.095      13.726      17.908      24.786      45.618      94.067      174.32      277.59    
  382.81      462.28      491.96      462.28      382.81      277.59      174.32      94.067      45.618      24.786    
  17.908      13.726      11.095      9.5081      8.5863      8.0955      7.7901      7.5400      7.0272      7.1667    
  7.4610      7.7901      8.3369      9.4307      11.342      14.480      19.344      29.800      62.828      133.29    
  244.10      382.81      522.25      626.99      666.03      626.99      522.25      382.81      244.10      133.29    
  62.828      29.800      19.344      14.480      11.342      9.4307      8.3369      7.7901      7.4610      7.1667    
  6.6496      6.8180      7.1667      7.5400      8.1526      9.3891      11.539      15.022      20.361      34.347    
  77.115      164.17      297.53      462.28      626.99      750.47      796.49      750.47      626.99      462.28    
  297.53      164.17      77.115      34.347      20.361      15.022      11.539      9.3891      8.1526      7.5400    
  7.1667      6.8180      6.4671      6.6496      7.0272      7.4280      8.0755      9.3722      11.613      15.219    
  20.753      36.194      82.673      175.90      317.59      491.96      666.03      796.49      845.11      796.49    
  666.03      491.96      317.59      175.90      82.673      36.194      20.753      15.219      11.613      9.3722    
  8.0755      7.4280      7.0272      6.6496      6.6496      6.8180      7.1667      7.5400      8.1526      9.3891    
  11.539      15.022      20.361      34.347      77.115      164.17      297.53      462.28      626.99      750.47    
  796.49      750.47      626.99      462.28      297.53      164.17      77.115      34.347      20.361      15.022    
  11.539      9.3891      8.1526      7.5400      7.1667      6.8180      7.0272      7.1667      7.4610      7.7901    
  8.3369      9.4307      11.342      14.480      19.344      29.800      62.828      133.29      244.10      382.81    
  522.25      626.99      666.03      626.99      522.25      382.81      244.10      133.29      62.828      29.800    
  19.344      14.480      11.342      9.4307      8.3369      7.7901      7.4610      7.1667      7.4280      7.5400    
  7.7901      8.0955      8.5863      9.5081      11.095      13.726      17.908      24.786      45.618      94.067    
  174.32      277.59      382.81      462.28      491.96      462.28      382.81      277.59      174.32      94.067    
  45.618      24.786      17.908      13.726      11.095      9.5081      8.5863      8.0955      7.7901      7.5400    
  8.0755      8.1526      8.3369      8.5863      8.9850      9.6970      10.908      12.938      16.249      21.021    
  31.442      58.530      107.69      174.32      244.10      297.53      317.59      297.53      244.10      174.32    
  107.69      58.530      31.442      21.021      16.249      12.938      10.908      9.6970      8.9850      8.5863    
  8.3369      8.1526      9.3722      9.3891      9.4307      9.5081      9.6970      10.114      10.899      12.291    
  14.651      18.218      23.149      34.620      58.530      94.067      133.29      164.17      175.90      164.17    
  133.29      94.067      58.530      34.620      23.149      18.218      14.651      12.291      10.899      10.114    
  9.6970      9.5081      9.4307      9.3891      11.613      11.539      11.342      11.095      10.908      10.899    
  11.184      11.927      13.363      15.708      18.951      23.149      31.442      45.618      62.828      77.115    
  82.673      77.115      62.828      45.618      31.442      23.149      18.951      15.708      13.363      11.927    
  11.184      10.899      10.908      11.095      11.342      11.539      15.219      15.022      14.480      13.726    
  12.938      12.291      11.927      11.970      12.545      13.775      15.708      18.218      21.021      24.786    
  29.800      34.347      36.194      34.347      29.800      24.786      21.021      18.218      15.708      13.775    
  12.545      11.970      11.927      12.291      12.938      13.726      14.480      15.022      20.753      20.361    
  19.344      17.908      16.249      14.651      13.363      12.545      12.266      12.545      13.363      14.651    
  16.249      17.908      19.344      20.361      20.753      20.361      19.344      17.908      16.249      14.651    
  13.363      12.545      12.266      12.545      13.363      14.651      16.249      17.908      19.344      20.361    
  36.194      34.347      29.800      24.786      21.021      18.218      15.708      13.775      12.545      11.970    
  11.927      12.291      12.938      13.726      14.480      15.022      15.219      15.022      14.480      13.726    
  12.938      12.291      11.927      11.970      12.545      13.775      15.708      18.218      21.021      24.786    
  29.800      34.347      82.673      77.115      62.828      45.618      31.442      23.149      18.951      15.708    
  13.363      11.927      11.184      10.899      10.908      11.095      11.342      11.539      11.613      11.539    
  11.342      11.095      10.908      10.899      11.184      11.927      13.363      15.708      18.951      23.149    
  31.442      45.618      62.828      77.115      175.90      164.17      133.29      94.067      58.530      34.620    
  23.149      18.218      14.651      12.291      10.899      10.114      9.6970      9.5081      9.4307      9.3891    
  9.3722      9.3891      9.4307      9.5081      9.6970      10.114      10.899      12.291      14.651      18.218    
  23.149      34.620      58.530      94.067      133.29      164.17      317.59      297.53      244.10      174.32    
  107.69      58.530      31.442      21.021      16.249      12.938      10.908      9.6970      8.9850      8.5863    
  8.3369      8.1526      8.0755      8.1526      8.3369      8.5863      8.9850      9.6970      10.908      12.938    
  16.249      21.021      31.442      58.530      107.69      174.32      244.10      297.53      491.96      462.28    
  382.81      277.59      174.32      94.067      45.618      24.786      17.908      13.726      11.095      9.5081    
  8.5863      8.0955      7.7901      7.5400      7.4280      7.5400      7.7901      8.0955      8.5863      9.5081    
  11.095      13.726      17.908      24.786      45.618      94.067      174.32      277.59      382.81      462.28    
  666.03      626.99      522.25      382.81      244.10      133.29      62.828      29.800      19.344      14.480    
  11.342      9.4307      8.3369      7.7901      7.4610      7.1667      7.0272      7.1667      7.4610      7.7901    
  8.3369      9.4307      11.342      14.480      19.344      29.800      62.828      133.29      244.10      382.81    
  522.25      626.99      796.49      750.47      626.99      462.28      297.53      164.17      77.115      34.347    
  20.361      15.022      11.539      9.3891      8.1526      7.5400      7.1667      6.8180      6.6496      6.8180    
  7.1667      7.5400      8.1526      9.3891      11.539      15.022      20.361      34.347      77.115      164.17    
  297.53      462.28      626.99      750.47      796.49      750.47      626.99      462.28      297.53      164.17    
  77.115      34.347      20.361      15.022      11.539      9.3891      8.1526      7.5400      7.1667      6.8180    
  6.6496      6.8180      7.1667      7.5400      8.1526      9.3891      11.539      15.022      20.361      34.347    
  77.115      164.17      297.53      462.28      626.99      750.47      750.47      706.91      590.04      434.22    
  278.62      153.17      71.967      32.671      19.995      14.829      11.466      9.4030      8.2232      7.6430    
  7.2952      6.9733      6.8180      6.9733      7.2952      7.6430      8.2232      9.4030      11.466      14.829    
  19.995      32.671      71.967      153.17      278.62      434.22      590.04      706.91      626.99      590.04    
  490.95      359.14      228.31      124.29      58.771      28.561      19.025      14.301      11.273      9.4380    
  8.3932      7.8742      7.5668      7.2952      7.1667      7.2952      7.5668      7.8742      8.3932      9.4380    
  11.273      14.301      19.025      28.561      58.771      124.29      228.31      359.14      490.95      590.04    
  462.28      434.22      359.14      259.87      162.74      87.732      42.963      24.047      17.620      13.568    
  11.032      9.5083      8.6270      8.1604      7.8742      7.6430      7.5400      7.6430      7.8742      8.1604    
  8.6270      9.5083      11.032      13.568      17.620      24.047      42.963      87.732      162.74      259.87    
  359.14      434.22      297.53      278.62      228.31      162.74      100.43      54.832      30.066      20.620    
  16.005      12.806      10.851      9.6876      9.0064      8.6270      8.3932      8.2232      8.1526      8.2232    
  8.3932      8.6270      9.0064      9.6876      10.851      12.806      16.005      20.620      30.066      54.832    
  100.43      162.74      228.31      278.62      164.17      153.17      124.29      87.732      54.832      32.951    
  22.585      17.910      14.456      12.181      10.841      10.087      9.6876      9.5083      9.4380      9.4030    
  9.3891      9.4030      9.4380      9.5083      9.6876      10.087      10.841      12.181      14.456      17.910    
  22.585      32.951      54.832      87.732      124.29      153.17      77.115      71.967      58.771      42.963    
  30.066      22.585      18.621      15.475      13.213      11.831      11.116      10.841      10.851      11.032    
  11.273      11.466      11.539      11.466      11.273      11.032      10.851      10.841      11.116      11.831    
  13.213      15.475      18.621      22.585      30.066      42.963      58.771      71.967      34.347      32.671    
  28.561      24.047      20.620      17.910      15.475      13.609      12.425      11.872      11.831      12.181    
  12.806      13.568      14.301      14.829      15.022      14.829      14.301      13.568      12.806      12.181    
  11.831      11.872      12.425      13.609      15.475      17.910      20.620      24.047      28.561      32.671    
  20.361      19.995      19.025      17.620      16.005      14.456      13.213      12.425      12.158      12.425    
  13.213      14.456      16.005      17.620      19.025      19.995      20.361      19.995      19.025      17.620    
  16.005      14.456      13.213      12.425      12.158      12.425      13.213      14.456      16.005      17.620    
  19.025      19.995      15.022      14.829      14.301      13.568      12.806      12.181      11.831      11.872    
  12.425      13.609      15.475      17.910      20.620      24.047      28.561      32.671      34.347      32.671    
  28.561      24.047      20.620      17.910      15.475      13.609      12.425      11.872      11.831      12.181    
  12.806      13.568      14.301      14.829      11.539      11.466      11.273      11.032      10.851      10.841    
  11.116      11.831      13.213      15.475      18.621      22.585      30.066      42.963      58.771      71.967    
  77.115      71.967      58.771      42.963      30.066      22.585      18.621      15.475      13.213      11.831    
  11.116      10.841      10.851      11.032      11.273      11.466      9.3891      9.4030      9.4380      9.5083    
  9.6876      10.087      10.841      12.181      14.456      17.910      22.585      32.951      54.832      87.732    
  124.29      153.17      164.17      153.17      124.29      87.732      54.832      32.951      22.585      17.910    
  14.456      12.181      10.841      10.087      9.6876      9.5083      9.4380      9.4030      8.1526      8.2232    
  8.3932      8.6270      9.0064      9.6876      10.851      12.806      16.005      20.620      30.066      54.832    
  100.43      162.74      228.31      278.62      297.53      278.62      228.31      162.74      100.43      54.832    
  30.066      20.620      16.005      12.806      10.851      9.6876      9.0064      8.6270      8.3932      8.2232    
  7.5400      7.6430      7.8742      8.1604      8.6270      9.5083      11.032      13.568      17.620      24.047    
  42.963      87.732      162.74      259.87      359.14      434.22      462.28      434.22      359.14      259.87    
  162.74      87.732      42.963      24.047      17.620      13.568      11.032      9.5083      8.6270      8.1604    
  7.8742      7.6430      7.1667      7.2952      7.5668      7.8742      8.3932      9.4380      11.273      14.301    
  19.025      28.561      58.771      124.29      228.31      359.14      490.95      590.04      626.99      590.04    
  490.95      359.14      228.31      124.29      58.771      28.561      19.025      14.301      11.273      9.4380    
  8.3932      7.8742      7.5668      7.2952      6.8180      6.9733      7.2952      7.6430      8.2232      9.4030    
  11.466      14.829      19.995      32.671      71.967      153.17      278.62      434.22      590.04      706.91    
  750.47      706.91      590.04      434.22      278.62      153.17      71.967      32.671      19.995      14.829    
  11.466      9.4030      8.2232      7.6430      7.2952      6.9733      6.6496      6.8180      7.1667      7.5400    
  8.1526      9.3891      11.539      15.022      20.361      34.347      77.115      164.17      297.53      462.28    
  626.99      750.47      796.49      750.47      626.99      462.28      297.53      164.17      77.115      34.347    
  20.361      15.022      11.539      9.3891      8.1526      7.5400      7.1667      6.8180      6.8180      6.9733    
  7.2952      7.6430      8.2232      9.4030      11.466      14.829      19.995      32.671      71.967      153.17    
  278.62      434.22      590.04      706.91      750.47      706.91      590.04      434.22      278.62      153.17    
  71.967      32.671      19.995      14.829      11.466      9.4030      8.2232      7.6430      7.2952      6.9733    
  7.1667      7.2952      7.5668      7.8742      8.3932      9.4380      11.273      14.301      19.025      28.561    
  58.771      124.29      228.31      359.14      490.95      590.04      626.99      590.04      490.95      359.14    
  228.31      124.29      58.771      28.561      19.025      14.301      11.273      9.4380      8.3932      7.8742    
  7.5668      7.2952      7.5400      7.6430      7.8742      8.1604      8.6270      9.5083      11.032      13.568    
  17.620      24.047      42.963      87.732      162.74      259.87      359.14      434.22      462.28      434.22    
  359.14      259.87      162.74      87.732      42.963      24.047      17.620      13.568      11.032      9.5083    
  8.6270      8.1604      7.8742      7.6430      8.1526      8.2232      8.3932      8.6270      9.0064      9.6876    
  10.851      12.806      16.005      20.620      30.066      54.832      100.43      162.74      228.31      278.62    
  297.53      278.62      228.31      162.74      100.43      54.832      30.066      20.620      16.005      12.806    
  10.851      9.6876      9.0064      8.6270      8.3932      8.2232      9.3891      9.4030      9.4380      9.5083    
  9.6876      10.087      10.841      12.181      14.456      17.910      22.585      32.951      54.832      87.732    
  124.29      153.17      164.17      153.17      124.29      87.732      54.832      32.951      22.585      17.910    
  14.456      12.181      10.841      10.087      9.6876      9.5083      9.4380      9.4030      11.539      11.466    
  11.273      11.032      10.851      10.841      11.116      11.831      13.213      15.475      18.621      22.585    
  30.066      42.963      58.771      71.967      77.115      71.967      58.771      42.963      30.066      22.585    
  18.621      15.475      13.213      11.831      11.116      10.841      10.851      11.032      11.273      11.466    
  15.022      14.829      14.301      13.568      12.806      12.181      11.831      11.872      12.425      13.609    
  15.475      17.910      20.620      24.047      28.561      32.671      34.347      32.671      28.561      24.047    
  20.620      17.910      15.475      13.609      12.425      11.872      11.831      12.181      12.806      13.568    
  14.301      14.829      20.361      19.995      19.025      17.620      16.005      14.456      13.213      12.425    
  12.158      12.425      13.213      14.456      16.005      17.620      19.025      19.995      20.361      19.995    
  19.025      17.620      16.005      14.456      13.213      12.425      12.158      12.425      13.213      14.456    
  16.005      17.620      19.025      19.995      34.347      32.671      28.561      24.047      20.620      17.910    
  15.475      13.609      12.425      11.872      11.831      12.181      12.806      13.568      14.301      14.829    
  15.022      14.829      14.301      13.568      12.806      12.181      11.831      11.872      12.425      13.609    
  15.475      17.910      20.620      24.047      28.561      32.671      77.115      71.967      58.771      42.963    
  30.066      22.585      18.621      15.475      13.213      11.831      11.116      10.841      10.851      11.032    
  11.273      11.466      11.539      11.466      11.273      11.032      10.851      10.841      11.116      11.831    
  13.213      15.475      18.621      22.585      30.066      42.963      58.771      71.967      164.17      153.17    
  124.29      87.732      54.832      32.951      22.585      17.910      14.456      12.181      10.841      10.087    
  9.6876      9.5083      9.4380      9.4030      9.3891      9.4030      9.4380      9.5083      9.6876      10.087    
  10.841      12.181      14.456      17.910      22.585      32.951      54.832      87.732      124.29      153.17    
  297.53      278.62      228.31      162.74      100.43      54.832      30.066      20.620      16.005      12.806    
  10.851      9.6876      9.0064      8.6270      8.3932      8.2232      8.1526      8.2232      8.3932      8.6270    
  9.0064      9.6876      10.851      12.806      16.005      20.620      30.066      54.832      100.43      162.74    
  228.31      278.62      462.28      434.22      359.14      259.87      162.74      87.732      42.963      24.047    
  17.620      13.568      11.032      9.5083      8.6270      8.1604      7.8742      7.6430      7.5400      7.6430    
  7.8742      8.1604      8.6270      9.5083      11.032      13.568      17.620      24.047      42.963      87.732    
  162.74      259.87      359.14      434.22      626.99      590.04      490.95      359.14      228.31      124.29    
  58.771      28.561      19.025      14.301      11.273      9.4380      8.3932      7.8742      7.5668      7.2952    
  7.1667      7.2952      7.5668      7.8742      8.3932      9.4380      11.273      14.301      19.025      28.561    
  58.771      124.29      228.31      359.14      490.95      590.04      750.47      706.91      590.04      434.22    
  278.62      153.17      71.967      32.671      19.995      14.829      11.466      9.4030      8.2232      7.6430    
  7.2952      6.9733      6.8180      6.9733      7.2952      7.6430      8.2232      9.4030      11.466      14.829    
  19.995      32.671      71.967      153.17      278.62      434.22      590.04      706.91      666.03      626.99    
  522.25      382.81      244.10      133.29      62.828      29.800      19.344      14.480      11.342      9.4307    
  8.3369      7.7901      7.4610      7.1667      7.0272      7.1667      7.4610      7.7901      8.3369      9.4307    
  11.342      14.480      19.344      29.800      62.828      133.29      244.10      382.81      522.25      626.99    
  626.99      590.04      490.95      359.14      228.31      124.29      58.771      28.561      19.025      14.301    
  11.273      9.4380      8.3932      7.8742      7.5668      7.2952      7.1667      7.2952      7.5668      7.8742    
  8.3932      9.4380      11.273      14.301      19.025      28.561      58.771      124.29      228.31      359.14    
  490.95      590.04      522.25      490.95      407.11      295.92      186.42      100.77      48.454      25.543    
  18.129      13.812      11.091      9.4589      8.5324      8.0673      7.7956      7.5668      7.4610      7.5668    
  7.7956      8.0673      8.5324      9.4589      11.091      13.812      18.129      25.543      48.454      100.77    
  186.42      295.92      407.11      490.95      382.81      359.14      295.92      212.76      132.26      71.346    
  36.316      22.240      16.816      13.140      10.868      9.5141      8.7334      8.3178      8.0673      7.8742    
  7.7901      7.8742      8.0673      8.3178      8.7334      9.5141      10.868      13.140      16.816      22.240    
  36.316      71.346      132.26      212.76      295.92      359.14      244.10      228.31      186.42      132.26    
  81.548      45.444      26.691      19.544      15.326      12.446      10.701      9.6701      9.0682      8.7334    
  8.5324      8.3932      8.3369      8.3932      8.5324      8.7334      9.0682      9.6701      10.701      12.446    
  15.326      19.544      26.691      45.444      81.548      132.26      186.42      228.31      133.29      124.29    
  100.77      71.346      45.444      28.830      21.165      17.044      13.917      11.882      10.690      10.022    
  9.6701      9.5141      9.4589      9.4380      9.4307      9.4380      9.4589      9.5141      9.6701      10.022    
  10.690      11.882      13.917      17.044      21.165      28.830      45.444      71.346      100.77      124.29    
  62.828      58.771      48.454      36.316      26.691      21.165      17.688      14.824      12.798      11.569    
  10.934      10.690      10.701      10.868      11.091      11.273      11.342      11.273      11.091      10.868    
  10.701      10.690      10.934      11.569      12.798      14.824      17.688      21.165      26.691      36.316    
  48.454      58.771      29.800      28.561      25.543      22.240      19.544      17.044      14.824      13.148    
  12.095      11.605      11.569      11.882      12.446      13.140      13.812      14.301      14.480      14.301    
  13.812      13.140      12.446      11.882      11.569      11.605      12.095      13.148      14.824      17.044    
  19.544      22.240      25.543      28.561      19.344      19.025      18.129      16.816      15.326      13.917    
  12.798      12.095      11.857      12.095      12.798      13.917      15.326      16.816      18.129      19.025    
  19.344      19.025      18.129      16.816      15.326      13.917      12.798      12.095      11.857      12.095    
  12.798      13.917      15.326      16.816      18.129      19.025      14.480      14.301      13.812      13.140    
  12.446      11.882      11.569      11.605      12.095      13.148      14.824      17.044      19.544      22.240    
  25.543      28.561      29.800      28.561      25.543      22.240      19.544      17.044      14.824      13.148    
  12.095      11.605      11.569      11.882      12.446      13.140      13.812      14.301      11.342      11.273    
  11.091      10.868      10.701      10.690      10.934      11.569      12.798      14.824      17.688      21.165    
  26.691      36.316      48.454      58.771      62.828      58.771      48.454      36.316      26.691      21.165    
  17.688      14.824      12.798      11.569      10.934      10.690      10.701      10.868      11.091      11.273    
  9.4307      9.4380      9.4589      9.5141      9.6701      10.022      10.690      11.882      13.917      17.044    
  21.165      28.830      45.444      71.346      100.77      124.29      133.29      124.29      100.77      71.346    
  45.444      28.830      21.165      17.044      13.917      11.882      10.690      10.022      9.6701      9.5141    
  9.4589      9.4380      8.3369      8.3932      8.5324      8.7334      9.0682      9.6701      10.701      12.446    
  15.326      19.544      26.691      45.444      81.548      132.26      186.42      228.31      244.10      228.31    