unknown system                          
   1.00000000000000     
     3.635000    0.000000    0.000000
     0.000000    3.635000    0.000000
     0.000000    0.000000    3.635000
   Cu
     4
Direct
  0.000000  0.000000  0.000000
  0.500000  0.500000  0.000000
  0.500000  0.000000  0.500000
  0.000000  0.500000  0.500000
 
   32   32   32
 0.84511403398E+03 0.79649093283E+03 0.66603265688E+03 0.49196269744E+03 0.31758949175E+03
 0.17590209856E+03 0.82673181906E+02 0.36194299967E+02 0.20753058294E+02 0.15219445456E+02
 0.11612934951E+02 0.93722435489E+01 0.80755099181E+01 0.74280420952E+01 0.70272318164E+01
 0.66495960293E+01 0.64671063418E+01 0.66495960293E+01 0.70272318164E+01 0.74280420952E+01
 0.80755099181E+01 0.93722435489E+01 0.11612934951E+02 0.15219445456E+02 0.20753058294E+02
 0.36194299967E+02 0.82673181906E+02 0.17590209856E+03 0.31758949175E+03 0.49196269744E+03
 0.66603265688E+03 0.79649093283E+03 0.79649093283E+03 0.75046860190E+03 0.62698606108E+03
 0.46227888299E+03 0.29752672148E+03 0.16416796153E+03 0.77114522588E+02 0.34346908945E+02
 0.20360751089E+02 0.15022082307E+02 0.11539005193E+02 0.93891338283E+01 0.81525916603E+01
 0.75399630140E+01 0.71667008108E+01 0.68179994031E+01 0.66495960293E+01 0.68179994031E+01
 0.71667008108E+01 0.75399630140E+01 0.81525916603E+01 0.93891338283E+01 0.11539005193E+02
 0.15022082307E+02 0.20360751089E+02 0.34346908945E+02 0.77114522588E+02 0.16416796153E+03
 0.29752672148E+03 0.46227888299E+03 0.62698606108E+03 0.75046860190E+03 0.66603265688E+03
 0.62698606108E+03 0.52225481729E+03 0.38280858631E+03 0.24410296264E+03 0.13329206462E+03
 0.62828192439E+02 0.29800168895E+02 0.19343666574E+02 0.14479668611E+02 0.11341802036E+02
 0.94306941432E+01 0.83369217882E+01 0.77901031411E+01 0.74610167128E+01 0.71667008108E+01
 0.70272318164E+01 0.71667008108E+01 0.74610167128E+01 0.77901031411E+01 0.83369217882E+01
 0.94306941432E+01 0.11341802036E+02 0.14479668611E+02 0.19343666574E+02 0.29800168895E+02
 0.62828192439E+02 0.13329206462E+03 0.24410296264E+03 0.38280858631E+03 0.52225481729E+03
 0.62698606108E+03 0.49196269744E+03 0.46227888299E+03 0.38280858631E+03 0.27758998852E+03
 0.17432081654E+03 0.94066759837E+02 0.45617723213E+02 0.24786075491E+02 0.17907865518E+02
 0.13725937505E+02 0.11094950417E+02 0.95080777451E+01 0.85862760455E+01 0.80955202392E+01
 0.77901031411E+01 0.75399630140E+01 0.74280420952E+01 0.75399630140E+01 0.77901031411E+01
 0.80955202392E+01 0.85862760455E+01 0.95080777451E+01 0.11094950417E+02 0.13725937505E+02
 0.17907865518E+02 0.24786075491E+02 0.45617723213E+02 0.94066759837E+02 0.17432081654E+03
 0.27758998852E+03 0.38280858631E+03 0.46227888299E+03 0.31758949175E+03 0.29752672148E+03
 0.24410296264E+03 0.17432081654E+03 0.10769469511E+03 0.58529675676E+02 0.31441723174E+02
 0.21021101772E+02 0.16249046372E+02 0.12938363405E+02 0.10908212256E+02 0.96970243025E+01
 0.89849914489E+01 0.85862760455E+01 0.83369217882E+01 0.81525916603E+01 0.80755099181E+01
 0.81525916603E+01 0.83369217882E+01 0.85862760455E+01 0.89849914489E+01 0.96970243025E+01
 0.10908212256E+02 0.12938363405E+02 0.16249046372E+02 0.21021101772E+02 0.31441723174E+02
 0.58529675676E+02 0.10769469511E+03 0.17432081654E+03 0.24410296264E+03 0.29752672148E+03
 0.17590209856E+03 0.16416796153E+03 0.13329206462E+03 0.94066759837E+02 0.58529675676E+02
 0.34619591228E+02 0.23149205894E+02 0.18217564317E+02 0.14651165221E+02 0.12291004723E+02
 0.10898602514E+02 0.10113612922E+02 0.96970243025E+01 0.95080777451E+01 0.94306941432E+01
 0.93891338283E+01 0.93722435489E+01 0.93891338283E+01 0.94306941432E+01 0.95080777451E+01
 0.96970243025E+01 0.10113612922E+02 0.10898602514E+02 0.12291004723E+02 0.14651165221E+02
 0.18217564317E+02 0.23149205894E+02 0.34619591228E+02 0.58529675676E+02 0.94066759837E+02
 0.13329206462E+03 0.16416796153E+03 0.82673181906E+02 0.77114522588E+02 0.62828192439E+02
 0.45617723213E+02 0.31441723174E+02 0.23149205894E+02 0.18951463964E+02 0.15708144182E+02
 0.13363111471E+02 0.11927471447E+02 0.11184317426E+02 0.10898602514E+02 0.10908212256E+02
 0.11094950417E+02 0.11341802036E+02 0.11539005193E+02 0.11612934951E+02 0.11539005193E+02
 0.11341802036E+02 0.11094950417E+02 0.10908212256E+02 0.10898602514E+02 0.11184317426E+02
 0.11927471447E+02 0.13363111471E+02 0.15708144182E+02 0.18951463964E+02 0.23149205894E+02
 0.31441723174E+02 0.45617723213E+02 0.62828192439E+02 0.77114522588E+02 0.36194299967E+02
 0.34346908945E+02 0.29800168895E+02 0.24786075491E+02 0.21021101772E+02 0.18217564317E+02
 0.15708144182E+02 0.13774864296E+02 0.12544669008E+02 0.11969910421E+02 0.11927471447E+02
 0.12291004723E+02 0.12938363405E+02 0.13725937505E+02 0.14479668611E+02 0.15022082307E+02
 0.15219445456E+02 0.15022082307E+02 0.14479668611E+02 0.13725937505E+02 0.12938363405E+02
 0.12291004723E+02 0.11927471447E+02 0.11969910421E+02 0.12544669008E+02 0.13774864296E+02
 0.15708144182E+02 0.18217564317E+02 0.21021101772E+02 0.24786075491E+02 0.29800168895E+02
 0.34346908945E+02 0.20753058294E+02 0.20360751089E+02 0.19343666574E+02 0.17907865518E+02
 0.16249046372E+02 0.14651165221E+02 0.13363111471E+02 0.12544669008E+02 0.12266328455E+02
 0.12544669008E+02 0.13363111471E+02 0.14651165221E+02 0.16249046372E+02 0.17907865518E+02
 0.19343666574E+02 0.20360751089E+02 0.20753058294E+02 0.20360751089E+02 0.19343666574E+02
 0.17907865518E+02 0.16249046372E+02 0.14651165221E+02 0.13363111471E+02 0.12544669008E+02
 0.12266328455E+02 0.12544669008E+02 0.13363111471E+02 0.14651165221E+02 0.16249046372E+02
 0.17907865518E+02 0.19343666574E+02 0.20360751089E+02 0.15219445456E+02 0.15022082307E+02
 0.14479668611E+02 0.13725937505E+02 0.12938363405E+02 0.12291004723E+02 0.11927471447E+02
 0.11969910421E+02 0.12544669008E+02 0.13774864296E+02 0.15708144182E+02 0.18217564317E+02
 0.21021101772E+02 0.24786075491E+02 0.29800168895E+02 0.34346908945E+02 0.36194299967E+02
 0.34346908945E+02 0.29800168895E+02 0.24786075491E+02 0.21021101772E+02 0.18217564317E+02
 0.15708144182E+02 0.13774864296E+02 0.12544669008E+02 0.11969910421E+02 0.11927471447E+02
 0.12291004723E+02 0.12938363405E+02 0.13725937505E+02 0.14479668611E+02 0.15022082307E+02
 0.11612934951E+02 0.11539005193E+02 0.11341802036E+02 0.11094950417E+02 0.10908212256E+02
 0.10898602514E+02 0.11184317426E+02 0.11927471447E+02 0.13363111471E+02 0.15708144182E+02
 0.18951463964E+02 0.23149205894E+02 0.31441723174E+02 0.45617723213E+02 0.62828192439E+02
 0.77114522588E+02 0.82673181906E+02 0.77114522588E+02 0.62828192439E+02 0.45617723213E+02
 0.31441723174E+02 0.23149205894E+02 0.18951463964E+02 0.15708144182E+02 0.13363111471E+02
 0.11927471447E+02 0.11184317426E+02 0.10898602514E+02 0.10908212256E+02 0.11094950417E+02
 0.11341802036E+02 0.11539005193E+02 0.93722435489E+01 0.93891338283E+01 0.94306941432E+01
 0.95080777451E+01 0.96970243025E+01 0.10113612922E+02 0.10898602514E+02 0.12291004723E+02
 0.14651165221E+02 0.18217564317E+02 0.23149205894E+02 0.34619591228E+02 0.58529675676E+02
 0.94066759837E+02 0.13329206462E+03 0.16416796153E+03 0.17590209856E+03 0.16416796153E+03
 0.13329206462E+03 0.94066759837E+02 0.58529675676E+02 0.34619591228E+02 0.23149205894E+02
 0.18217564317E+02 0.14651165221E+02 0.12291004723E+02 0.10898602514E+02 0.10113612922E+02
 0.96970243025E+01 0.95080777451E+01 0.94306941432E+01 0.93891338283E+01 0.80755099181E+01
 0.81525916603E+01 0.83369217882E+01 0.85862760455E+01 0.89849914489E+01 0.96970243025E+01
 0.10908212256E+02 0.12938363405E+02 0.16249046372E+02 0.21021101772E+02 0.31441723174E+02
 0.58529675676E+02 0.10769469511E+03 0.17432081654E+03 0.24410296264E+03 0.29752672148E+03
 0.31758949175E+03 0.29752672148E+03 0.24410296264E+03 0.17432081654E+03 0.10769469511E+03
 0.58529675676E+02 0.31441723174E+02 0.21021101772E+02 0.16249046372E+02 0.12938363405E+02
 0.10908212256E+02 0.96970243025E+01 0.89849914489E+01 0.85862760455E+01 0.83369217882E+01
 0.81525916603E+01 0.74280420952E+01 0.75399630140E+01 0.77901031411E+01 0.80955202392E+01
 0.85862760455E+01 0.95080777451E+01 0.11094950417E+02 0.13725937505E+02 0.17907865518E+02
 0.24786075491E+02 0.45617723213E+02 0.94066759837E+02 0.17432081654E+03 0.27758998852E+03
 0.38280858631E+03 0.46227888299E+03 0.49196269744E+03 0.46227888299E+03 0.38280858631E+03
 0.27758998852E+03 0.17432081654E+03 0.94066759837E+02 0.45617723213E+02 0.24786075491E+02
 0.17907865518E+02 0.13725937505E+02 0.11094950417E+02 0.95080777451E+01 0.85862760455E+01
 0.80955202392E+01 0.77901031411E+01 0.75399630140E+01 0.70272318164E+01 0.71667008108E+01
 0.74610167128E+01 0.77901031411E+01 0.83369217882E+01 0.94306941432E+01 0.11341802036E+02
 0.14479668611E+02 0.19343666574E+02 0.29800168895E+02 0.62828192439E+02 0.13329206462E+03
 0.24410296264E+03 0.38280858631E+03 0.52225481729E+03 0.62698606108E+03 0.66603265688E+03
 0.62698606108E+03 0.52225481729E+03 0.38280858631E+03 0.24410296264E+03 0.13329206462E+03
 0.62828192439E+02 0.29800168895E+02 0.19343666574E+02 0.14479668611E+02 0.11341802036E+02
 0.94306941432E+01 0.83369217882E+01 0.77901031411E+01 0.74610167128E+01 0.71667008108E+01
 0.66495960293E+01 0.68179994031E+01 0.71667008108E+01 0.75399630140E+01 0.81525916603E+01
 0.93891338283E+01 0.11539005193E+02 0.15022082307E+02 0.20360751089E+02 0.34346908945E+02
 0.77114522588E+02 0.16416796153E+03 0.29752672148E+03 0.46227888299E+03 0.62698606108E+03
 0.75046860190E+03 0.79649093283E+03 0.75046860190E+03 0.62698606108E+03 0.46227888299E+03
 0.29752672148E+03 0.16416796153E+03 0.77114522588E+02 0.34346908945E+02 0.20360751089E+02
 0.15022082307E+02 0.11539005193E+02 0.93891338283E+01 0.81525916603E+01 0.75399630140E+01
 0.71667008108E+01 0.68179994031E+01 0.64671063418E+01 0.66495960293E+01 0.70272318164E+01
 0.74280420952E+01 0.80755099181E+01 0.93722435489E+01 0.11612934951E+02 0.15219445456E+02
 0.20753058294E+02 0.36194299967E+02 0.82673181906E+02 0.17590209856E+03 0.31758949175E+03
 0.49196269744E+03 0.66603265688E+03 0.79649093283E+03 0.84511403398E+03 0.79649093283E+03
 0.66603265688E+03 0.49196269744E+03 0.31758949175E+03 0.17590209856E+03 0.82673181906E+02
 0.36194299967E+02 0.20753058294E+02 0.15219445456E+02 0.11612934951E+02 0.93722435489E+01
 0.80755099181E+01 0.74280420952E+01 0.70272318164E+01 0.66495960293E+01 0.66495960293E+01
 0.68179994031E+01 0.71667008108E+01 0.75399630140E+01 0.81525916603E+01 0.93891338283E+01
 0.11539005193E+02 0.15022082307E+02 0.20360751089E+02 0.34346908945E+02 0.77114522588E+02
 0.16416796153E+03 0.29752672148E+03 0.46227888299E+03 0.62698606108E+03 0.75046860190E+03
 0.79649093283E+03 0.75046860190E+03 0.62698606108E+03 0.46227888299E+03 0.29752672148E+03
 0.16416796153E+03 0.77114522588E+02 0.34346908945E+02 0.20360751089E+02 0.15022082307E+02
 0.11539005193E+02 0.93891338283E+01 0.81525916603E+01 0.75399630140E+01 0.71667008108E+01
 0.68179994031E+01 0.70272318164E+01 0.71667008108E+01 0.74610167128E+01 0.77901031411E+01
 0.83369217882E+01 0.94306941432E+01 0.11341802036E+02 0.14479668611E+02 0.19343666574E+02
 0.29800168895E+02 0.62828192439E+02 0.13329206462E+03 0.24410296264E+03 0.38280858631E+03
 0.52225481729E+03 0.62698606108E+03 0.66603265688E+03 0.62698606108E+03 0.52225481729E+03
 0.38280858631E+03 0.24410296264E+03 0.13329206462E+03 0.62828192439E+02 0.29800168895E+02
 0.19343666574E+02 0.14479668611E+02 0.11341802036E+02 0.94306941432E+01 0.83369217882E+01
 0.77901031411E+01 0.74610167128E+01 0.71667008108E+01 0.74280420952E+01 0.75399630140E+01
 0.77901031411E+01 0.80955202392E+01 0.85862760455E+01 0.95080777451E+01 0.11094950417E+02
 0.13725937505E+02 0.17907865518E+02 0.24786075491E+02 0.45617723213E+02 0.94066759837E+02
 0.17432081654E+03 0.27758998852E+03 0.38280858631E+03 0.46227888299E+03 0.49196269744E+03
 0.46227888299E+03 0.38280858631E+03 0.27758998852E+03 0.17432081654E+03 0.94066759837E+02
 0.45617723213E+02 0.24786075491E+02 0.17907865518E+02 0.13725937505E+02 0.11094950417E+02
 0.95080777451E+01 0.85862760455E+01 0.80955202392E+01 0.77901031411E+01 0.75399630140E+01
 0.80755099181E+01 0.81525916603E+01 0.83369217882E+01 0.85862760455E+01 0.89849914489E+01
 0.96970243025E+01 0.10908212256E+02 0.12938363405E+02 0.16249046372E+02 0.21021101772E+02
 0.31441723174E+02 0.58529675676E+02 0.10769469511E+03 0.17432081654E+03 0.24410296264E+03
 0.29752672148E+03 0.31758949175E+03 0.29752672148E+03 0.24410296264E+03 0.17432081654E+03
 0.10769469511E+03 0.58529675676E+02 0.31441723174E+02 0.21021101772E+02 0.16249046372E+02
 0.12938363405E+02 0.10908212256E+02 0.96970243025E+01 0.89849914489E+01 0.85862760455E+01
 0.83369217882E+01 0.81525916603E+01 0.93722435489E+01 0.93891338283E+01 0.94306941432E+01
 0.95080777451E+01 0.96970243025E+01 0.10113612922E+02 0.10898602514E+02 0.12291004723E+02
 0.14651165221E+02 0.18217564317E+02 0.23149205894E+02 0.34619591228E+02 0.58529675676E+02
 0.94066759837E+02 0.13329206462E+03 0.16416796153E+03 0.17590209856E+03 0.16416796153E+03
 0.13329206462E+03 0.94066759837E+02 0.58529675676E+02 0.34619591228E+02 0.23149205894E+02
 0.18217564317E+02 0.14651165221E+02 0.12291004723E+02 0.10898602514E+02 0.10113612922E+02
 0.96970243025E+01 0.95080777451E+01 0.94306941432E+01 0.93891338283E+01 0.11612934951E+02
 0.11539005193E+02 0.11341802036E+02 0.11094950417E+02 0.10908212256E+02 0.10898602514E+02
 0.11184317426E+02 0.11927471447E+02 0.13363111471E+02 0.15708144182E+02 0.18951463964E+02
 0.23149205894E+02 0.31441723174E+02 0.45617723213E+02 0.62828192439E+02 0.77114522588E+02
 0.82673181906E+02 0.77114522588E+02 0.62828192439E+02 0.45617723213E+02 0.31441723174E+02
 0.23149205894E+02 0.18951463964E+02 0.15708144182E+02 0.13363111471E+02 0.11927471447E+02
 0.11184317426E+02 0.10898602514E+02 0.10908212256E+02 0.11094950417E+02 0.11341802036E+02
 0.11539005193E+02 0.15219445456E+02 0.15022082307E+02 0.14479668611E+02 0.13725937505E+02
 0.12938363405E+02 0.12291004723E+02 0.11927471447E+02 0.11969910421E+02 0.12544669008E+02
 0.13774864296E+02 0.15708144182E+02 0.18217564317E+02 0.21021101772E+02 0.24786075491E+02
 0.29800168895E+02 0.34346908945E+02 0.36194299967E+02 0.34346908945E+02 0.29800168895E+02
 0.24786075491E+02 0.21021101772E+02 0.18217564317E+02 0.15708144182E+02 0.13774864296E+02
 0.12544669008E+02 0.11969910421E+02 0.11927471447E+02 0.12291004723E+02 0.12938363405E+02
 0.13725937505E+02 0.14479668611E+02 0.15022082307E+02 0.20753058294E+02 0.20360751089E+02
 0.19343666574E+02 0.17907865518E+02 0.16249046372E+02 0.14651165221E+02 0.13363111471E+02
 0.12544669008E+02 0.12266328455E+02 0.12544669008E+02 0.13363111471E+02 0.14651165221E+02
 0.16249046372E+02 0.17907865518E+02 0.19343666574E+02 0.20360751089E+02 0.20753058294E+02
 0.20360751089E+02 0.19343666574E+02 0.17907865518E+02 0.16249046372E+02 0.14651165221E+02
 0.13363111471E+02 0.12544669008E+02 0.12266328455E+02 0.12544669008E+02 0.13363111471E+02
 0.14651165221E+02 0.16249046372E+02 0.17907865518E+02 0.19343666574E+02 0.20360751089E+02
 0.36194299967E+02 0.34346908945E+02 0.29800168895E+02 0.24786075491E+02 0.21021101772E+02
 0.18217564317E+02 0.15708144182E+02 0.13774864296E+02 0.12544669008E+02 0.11969910421E+02
 0.11927471447E+02 0.12291004723E+02 0.12938363405E+02 0.13725937505E+02 0.14479668611E+02
 0.15022082307E+02 0.15219445456E+02 0.15022082307E+02 0.14479668611E+02 0.13725937505E+02
 0.12938363405E+02 0.12291004723E+02 0.11927471447E+02 0.11969910421E+02 0.12544669008E+02
 0.13774864296E+02 0.15708144182E+02 0.18217564317E+02 0.21021101772E+02 0.24786075491E+02
 0.29800168895E+02 0.34346908945E+02 0.82673181906E+02 0.77114522588E+02 0.62828192439E+02
 0.45617723213E+02 0.31441723174E+02 0.23149205894E+02 0.18951463964E+02 0.15708144182E+02
 0.13363111471E+02 0.11927471447E+02 0.11184317426E+02 0.10898602514E+02 0.10908212256E+02
 0.11094950417E+02 0.11341802036E+02 0.11539005193E+02 0.11612934951E+02 0.11539005193E+02
 0.11341802036E+02 0.11094950417E+02 0.10908212256E+02 0.10898602514E+02 0.11184317426E+02
 0.11927471447E+02 0.13363111471E+02 0.15708144182E+02 0.18951463964E+02 0.23149205894E+02
 0.31441723174E+02 0.45617723213E+02 0.62828192439E+02 0.77114522588E+02 0.17590209856E+03
 0.16416796153E+03 0.13329206462E+03 0.94066759837E+02 0.58529675676E+02 0.34619591228E+02
 0.23149205894E+02 0.18217564317E+02 0.14651165221E+02 0.12291004723E+02 0.10898602514E+02
 0.10113612922E+02 0.96970243025E+01 0.95080777451E+01 0.94306941432E+01 0.93891338283E+01
 0.93722435489E+01 0.93891338283E+01 0.94306941432E+01 0.95080777451E+01 0.96970243025E+01
 0.10113612922E+02 0.10898602514E+02 0.12291004723E+02 0.14651165221E+02 0.18217564317E+02
 0.23149205894E+02 0.34619591228E+02 0.58529675676E+02 0.94066759837E+02 0.13329206462E+03
 0.16416796153E+03 0.31758949175E+03 0.29752672148E+03 0.24410296264E+03 0.17432081654E+03
 0.10769469511E+03 0.58529675676E+02 0.31441723174E+02 0.21021101772E+02 0.16249046372E+02
 0.12938363405E+02 0.10908212256E+02 0.96970243025E+01 0.89849914489E+01 0.85862760455E+01
 0.83369217882E+01 0.81525916603E+01 0.80755099181E+01 0.81525916603E+01 0.83369217882E+01
 0.85862760455E+01 0.89849914489E+01 0.96970243025E+01 0.10908212256E+02 0.12938363405E+02
 0.16249046372E+02 0.21021101772E+02 0.31441723174E+02 0.58529675676E+02 0.10769469511E+03
 0.17432081654E+03 0.24410296264E+03 0.29752672148E+03 0.49196269744E+03 0.46227888299E+03
 0.38280858631E+03 0.27758998852E+03 0.17432081654E+03 0.94066759837E+02 0.45617723213E+02
 0.24786075491E+02 0.17907865518E+02 0.13725937505E+02 0.11094950417E+02 0.95080777451E+01
 0.85862760455E+01 0.80955202392E+01 0.77901031411E+01 0.75399630140E+01 0.74280420952E+01
 0.75399630140E+01 0.77901031411E+01 0.80955202392E+01 0.85862760455E+01 0.95080777451E+01
 0.11094950417E+02 0.13725937505E+02 0.17907865518E+02 0.24786075491E+02 0.45617723213E+02
 0.94066759837E+02 0.17432081654E+03 0.27758998852E+03 0.38280858631E+03 0.46227888299E+03
 0.66603265688E+03 0.62698606108E+03 0.52225481729E+03 0.38280858631E+03 0.24410296264E+03
 0.13329206462E+03 0.62828192439E+02 0.29800168895E+02 0.19343666574E+02 0.14479668611E+02
 0.11341802036E+02 0.94306941432E+01 0.83369217882E+01 0.77901031411E+01 0.74610167128E+01
 0.71667008108E+01 0.70272318164E+01 0.71667008108E+01 0.74610167128E+01 0.77901031411E+01
 0.83369217882E+01 0.94306941432E+01 0.11341802036E+02 0.14479668611E+02 0.19343666574E+02
 0.29800168895E+02 0.62828192439E+02 0.13329206462E+03 0.24410296264E+03 0.38280858631E+03
 0.52225481729E+03 0.62698606108E+03 0.79649093283E+03 0.75046860190E+03 0.62698606108E+03
 0.46227888299E+03 0.29752672148E+03 0.16416796153E+03 0.77114522588E+02 0.34346908945E+02
 0.20360751089E+02 0.15022082307E+02 0.11539005193E+02 0.93891338283E+01 0.81525916603E+01
 0.75399630140E+01 0.71667008108E+01 0.68179994031E+01 0.66495960293E+01 0.68179994031E+01
 0.71667008108E+01 0.75399630140E+01 0.81525916603E+01 0.93891338283E+01 0.11539005193E+02
 0.15022082307E+02 0.20360751089E+02 0.34346908945E+02 0.77114522588E+02 0.16416796153E+03
 0.29752672148E+03 0.46227888299E+03 0.62698606108E+03 0.75046860190E+03 0.79649093283E+03
 0.75046860190E+03 0.62698606108E+03 0.46227888299E+03 0.29752672148E+03 0.16416796153E+03
 0.77114522588E+02 0.34346908945E+02 0.20360751089E+02 0.15022082307E+02 0.11539005193E+02
 0.93891338283E+01 0.81525916603E+01 0.75399630140E+01 0.71667008108E+01 0.68179994031E+01
 0.66495960293E+01 0.68179994031E+01 0.71667008108E+01 0.75399630140E+01 0.81525916603E+01
 0.93891338283E+01 0.11539005193E+02 0.15022082307E+02 0.20360751089E+02 0.34346908945E+02
 0.77114522588E+02 0.16416796153E+03 0.29752672148E+03 0.46227888299E+03 0.62698606108E+03
 0.75046860190E+03 0.75046860190E+03 0.70690856525E+03 0.59003733950E+03 0.43421937569E+03
 0.27861564916E+03 0.15317436467E+03 0.71967066082E+02 0.32671382488E+02 0.19995424791E+02
 0.14829388648E+02 0.11466125857E+02 0.94029956655E+01 0.82232088365E+01 0.76429819598E+01
 0.72951520716E+01 0.69732937321E+01 0.68179994031E+01 0.69732937321E+01 0.72951520716E+01
 0.76429819598E+01 0.82232088365E+01 0.94029956655E+01 0.11466125857E+02 0.14829388648E+02
 0.19995424791E+02 0.32671382488E+02 0.71967066082E+02 0.15317436467E+03 0.27861564916E+03
 0.43421937569E+03 0.59003733950E+03 0.70690856525E+03 0.62698606108E+03 0.59003733950E+03
 0.49095467265E+03 0.35913659769E+03 0.22830633769E+03 0.12429218153E+03 0.58770928403E+02
 0.28560608631E+02 0.19025228841E+02 0.14300723486E+02 0.11272567451E+02 0.94379689325E+01
 0.83932157948E+01 0.78741922570E+01 0.75667992368E+01 0.72951520716E+01 0.71667008108E+01
 0.72951520716E+01 0.75667992368E+01 0.78741922570E+01 0.83932157948E+01 0.94379689325E+01
 0.11272567451E+02 0.14300723486E+02 0.19025228841E+02 0.28560608631E+02 0.58770928403E+02
 0.12429218153E+03 0.22830633769E+03 0.35913659769E+03 0.49095467265E+03 0.59003733950E+03
 0.46227888299E+03 0.43421937569E+03 0.35913659769E+03 0.25986801344E+03 0.16274342936E+03
 0.87731956264E+02 0.42963126992E+02 0.24046619259E+02 0.17620474033E+02 0.13568268966E+02
 0.11031763804E+02 0.95082860689E+01 0.86270275620E+01 0.81604169537E+01 0.78741922570E+01
 0.76429819598E+01 0.75399630140E+01 0.76429819598E+01 0.78741922570E+01 0.81604169537E+01
 0.86270275620E+01 0.95082860689E+01 0.11031763804E+02 0.13568268966E+02 0.17620474033E+02
 0.24046619259E+02 0.42963126992E+02 0.87731956264E+02 0.16274342936E+03 0.25986801344E+03
 0.35913659769E+03 0.43421937569E+03 0.29752672148E+03 0.27861564916E+03 0.22830633769E+03
 0.16274342936E+03 0.10043030156E+03 0.54832284742E+02 0.30065972653E+02 0.20620403096E+02
 0.16004833453E+02 0.12805582617E+02 0.10850501717E+02 0.96876482051E+01 0.90064237397E+01
 0.86270275620E+01 0.83932157948E+01 0.82232088365E+01 0.81525916603E+01 0.82232088365E+01
 0.83932157948E+01 0.86270275620E+01 0.90064237397E+01 0.96876482051E+01 0.10850501717E+02
 0.12805582617E+02 0.16004833453E+02 0.20620403096E+02 0.30065972653E+02 0.54832284742E+02
 0.10043030156E+03 0.16274342936E+03 0.22830633769E+03 0.27861564916E+03 0.16416796153E+03
 0.15317436467E+03 0.12429218153E+03 0.87731956264E+02 0.54832284742E+02 0.32950636861E+02
 0.22585398111E+02 0.17909707673E+02 0.14456070083E+02 0.12180831833E+02 0.10840936768E+02
 0.10086751961E+02 0.96876482051E+01 0.95082860689E+01 0.94379689325E+01 0.94029956655E+01
 0.93891338283E+01 0.94029956655E+01 0.94379689325E+01 0.95082860689E+01 0.96876482051E+01
 0.10086751961E+02 0.10840936768E+02 0.12180831833E+02 0.14456070083E+02 0.17909707673E+02
 0.22585398111E+02 0.32950636861E+02 0.54832284742E+02 0.87731956264E+02 0.12429218153E+03
 0.15317436467E+03 0.77114522588E+02 0.71967066082E+02 0.58770928403E+02 0.42963126992E+02
 0.30065972653E+02 0.22585398111E+02 0.18621124162E+02 0.15474882591E+02 0.13212771142E+02
 0.11831180556E+02 0.11116055597E+02 0.10840936768E+02 0.10850501717E+02 0.11031763804E+02
 0.11272567451E+02 0.11466125857E+02 0.11539005193E+02 0.11466125857E+02 0.11272567451E+02
 0.11031763804E+02 0.10850501717E+02 0.10840936768E+02 0.11116055597E+02 0.11831180556E+02
 0.13212771142E+02 0.15474882591E+02 0.18621124162E+02 0.22585398111E+02 0.30065972653E+02
 0.42963126992E+02 0.58770928403E+02 0.71967066082E+02 0.34346908945E+02 0.32671382488E+02
 0.28560608631E+02 0.24046619259E+02 0.20620403096E+02 0.17909707673E+02 0.15474882591E+02
 0.13608885475E+02 0.12425159429E+02 0.11872482273E+02 0.11831180556E+02 0.12180831833E+02
 0.12805582617E+02 0.13568268966E+02 0.14300723486E+02 0.14829388648E+02 0.15022082307E+02
 0.14829388648E+02 0.14300723486E+02 0.13568268966E+02 0.12805582617E+02 0.12180831833E+02
 0.11831180556E+02 0.11872482273E+02 0.12425159429E+02 0.13608885475E+02 0.15474882591E+02
 0.17909707673E+02 0.20620403096E+02 0.24046619259E+02 0.28560608631E+02 0.32671382488E+02
 0.20360751089E+02 0.19995424791E+02 0.19025228841E+02 0.17620474033E+02 0.16004833453E+02
 0.14456070083E+02 0.13212771142E+02 0.12425159429E+02 0.12157736663E+02 0.12425159429E+02
 0.13212771142E+02 0.14456070083E+02 0.16004833453E+02 0.17620474033E+02 0.19025228841E+02
 0.19995424791E+02 0.20360751089E+02 0.19995424791E+02 0.19025228841E+02 0.17620474033E+02
 0.16004833453E+02 0.14456070083E+02 0.13212771142E+02 0.12425159429E+02 0.12157736663E+02
 0.12425159429E+02 0.13212771142E+02 0.14456070083E+02 0.16004833453E+02 0.17620474033E+02
 0.19025228841E+02 0.19995424791E+02 0.15022082307E+02 0.14829388648E+02 0.14300723486E+02
 0.13568268966E+02 0.12805582617E+02 0.12180831833E+02 0.11831180556E+02 0.11872482273E+02
 0.12425159429E+02 0.13608885475E+02 0.15474882591E+02 0.17909707673E+02 0.20620403096E+02
 0.24046619259E+02 0.28560608631E+02 0.32671382488E+02 0.34346908945E+02 0.32671382488E+02
 0.28560608631E+02 0.24046619259E+02 0.20620403096E+02 0.17909707673E+02 0.15474882591E+02
 0.13608885475E+02 0.12425159429E+02 0.11872482273E+02 0.11831180556E+02 0.12180831833E+02
 0.12805582617E+02 0.13568268966E+02 0.14300723486E+02 0.14829388648E+02 0.11539005193E+02
 0.11466125857E+02 0.11272567451E+02 0.11031763804E+02 0.10850501717E+02 0.10840936768E+02
 0.11116055597E+02 0.11831180556E+02 0.13212771142E+02 0.15474882591E+02 0.18621124162E+02
 0.22585398111E+02 0.30065972653E+02 0.42963126992E+02 0.58770928403E+02 0.71967066082E+02
 0.77114522588E+02 0.71967066082E+02 0.58770928403E+02 0.42963126992E+02 0.30065972653E+02
 0.22585398111E+02 0.18621124162E+02 0.15474882591E+02 0.13212771142E+02 0.11831180556E+02
 0.11116055597E+02 0.10840936768E+02 0.10850501717E+02 0.11031763804E+02 0.11272567451E+02
 0.11466125857E+02 0.93891338283E+01 0.94029956655E+01 0.94379689325E+01 0.95082860689E+01
 0.96876482051E+01 0.10086751961E+02 0.10840936768E+02 0.12180831833E+02 0.14456070083E+02
 0.17909707673E+02 0.22585398111E+02 0.32950636861E+02 0.54832284742E+02 0.87731956264E+02
 0.12429218153E+03 0.15317436467E+03 0.16416796153E+03 0.15317436467E+03 0.12429218153E+03
 0.87731956264E+02 0.54832284742E+02 0.32950636861E+02 0.22585398111E+02 0.17909707673E+02
 0.14456070083E+02 0.12180831833E+02 0.10840936768E+02 0.10086751961E+02 0.96876482051E+01
 0.95082860689E+01 0.94379689325E+01 0.94029956655E+01 0.81525916603E+01 0.82232088365E+01
 0.83932157948E+01 0.86270275620E+01 0.90064237397E+01 0.96876482051E+01 0.10850501717E+02
 0.12805582617E+02 0.16004833453E+02 0.20620403096E+02 0.30065972653E+02 0.54832284742E+02
 0.10043030156E+03 0.16274342936E+03 0.22830633769E+03 0.27861564916E+03 0.29752672148E+03
 0.27861564916E+03 0.22830633769E+03 0.16274342936E+03 0.10043030156E+03 0.54832284742E+02
 0.30065972653E+02 0.20620403096E+02 0.16004833453E+02 0.12805582617E+02 0.10850501717E+02
 0.96876482051E+01 0.90064237397E+01 0.86270275620E+01 0.83932157948E+01 0.82232088365E+01
 0.75399630140E+01 0.76429819598E+01 0.78741922570E+01 0.81604169537E+01 0.86270275620E+01
 0.95082860689E+01 0.11031763804E+02 0.13568268966E+02 0.17620474033E+02 0.24046619259E+02
 0.42963126992E+02 0.87731956264E+02 0.16274342936E+03 0.25986801344E+03 0.35913659769E+03
 0.43421937569E+03 0.46227888299E+03 0.43421937569E+03 0.35913659769E+03 0.25986801344E+03
 0.16274342936E+03 0.87731956264E+02 0.42963126992E+02 0.24046619259E+02 0.17620474033E+02
 0.13568268966E+02 0.11031763804E+02 0.95082860689E+01 0.86270275620E+01 0.81604169537E+01
 0.78741922570E+01 0.76429819598E+01 0.71667008108E+01 0.72951520716E+01 0.75667992368E+01
 0.78741922570E+01 0.83932157948E+01 0.94379689325E+01 0.11272567451E+02 0.14300723486E+02
 0.19025228841E+02 0.28560608631E+02 0.58770928403E+02 0.12429218153E+03 0.22830633769E+03
 0.35913659769E+03 0.49095467265E+03 0.59003733950E+03 0.62698606108E+03 0.59003733950E+03
 0.49095467265E+03 0.35913659769E+03 0.22830633769E+03 0.12429218153E+03 0.58770928403E+02
 0.28560608631E+02 0.19025228841E+02 0.14300723486E+02 0.11272567451E+02 0.94379689325E+01
 0.83932157948E+01 0.78741922570E+01 0.75667992368E+01 0.72951520716E+01 0.68179994031E+01
 0.69732937321E+01 0.72951520716E+01 0.76429819598E+01 0.82232088365E+01 0.94029956655E+01
 0.11466125857E+02 0.14829388648E+02 0.19995424791E+02 0.32671382488E+02 0.71967066082E+02
 0.15317436467E+03 0.27861564916E+03 0.43421937569E+03 0.59003733950E+03 0.70690856525E+03
 0.75046860190E+03 0.70690856525E+03 0.59003733950E+03 0.43421937569E+03 0.27861564916E+03
 0.15317436467E+03 0.71967066082E+02 0.32671382488E+02 0.19995424791E+02 0.14829388648E+02
 0.11466125857E+02 0.94029956655E+01 0.82232088365E+01 0.76429819598E+01 0.72951520716E+01
 0.69732937321E+01 0.66495960293E+01 0.68179994031E+01 0.71667008108E+01 0.75399630140E+01
 0.81525916603E+01 0.93891338283E+01 0.11539005193E+02 0.15022082307E+02 0.20360751089E+02
 0.34346908945E+02 0.77114522588E+02 0.16416796153E+03 0.29752672148E+03 0.46227888299E+03
 0.62698606108E+03 0.75046860190E+03 0.79649093283E+03 0.75046860190E+03 0.62698606108E+03
 0.46227888299E+03 0.29752672148E+03 0.16416796153E+03 0.77114522588E+02 0.34346908945E+02
 0.20360751089E+02 0.15022082307E+02 0.11539005193E+02 0.93891338283E+01 0.81525916603E+01
 0.75399630140E+01 0.71667008108E+01 0.68179994031E+01 0.68179994031E+01 0.69732937321E+01
 0.72951520716E+01 0.76429819598E+01 0.82232088365E+01 0.94029956655E+01 0.11466125857E+02
 0.14829388648E+02 0.19995424791E+02 0.32671382488E+02 0.71967066082E+02 0.15317436467E+03
 0.27861564916E+03 0.43421937569E+03 0.59003733950E+03 0.70690856525E+03 0.75046860190E+03
 0.70690856525E+03 0.59003733950E+03 0.43421937569E+03 0.27861564916E+03 0.15317436467E+03
 0.71967066082E+02 0.32671382488E+02 0.19995424791E+02 0.14829388648E+02 0.11466125857E+02
 0.94029956655E+01 0.82232088365E+01 0.76429819598E+01 0.72951520716E+01 0.69732937321E+01
 0.71667008108E+01 0.72951520716E+01 0.75667992368E+01 0.78741922570E+01 0.83932157948E+01
 0.94379689325E+01 0.11272567451E+02 0.14300723486E+02 0.19025228841E+02 0.28560608631E+02
 0.58770928403E+02 0.12429218153E+03 0.22830633769E+03 0.35913659769E+03 0.49095467265E+03
 0.59003733950E+03 0.62698606108E+03 0.59003733950E+03 0.49095467265E+03 0.35913659769E+03
 0.22830633769E+03 0.12429218153E+03 0.58770928403E+02 0.28560608631E+02 0.19025228841E+02