    4    4    1    1
  0.1200752E+02  0.3635000E-09  0.3635000E-09  0.3635000E-09  0.5000000E-15
  1.000000000000000E-004
  CAR 
 unknown system                          
     44     35     30
 
  0.0000000E+00  0.0000000E+00  0.0000000E+00  0.1371742E-02
    1       -1.846236   1.000000
    2        2.604536   1.000000
    3        2.604536   1.000000
    4        2.604536   1.000000
    5        3.051015   1.000000
    6        3.051015   1.000000
    7        3.051015   1.000000
    8        4.409357   1.000000
    9        4.409357   1.000000
   10        4.409357   1.000000
   11        5.214817   1.000000
   12        5.214817   1.000000
   13        5.750181   1.000000
   14        5.750181   1.000000
   15        5.750181   1.000000
   16        5.902640   1.000000
   17        5.902640   1.000000
   18        5.902640   1.000000
   19        5.902640   1.000000
   20        5.902640   1.000000
   21        5.902640   1.000000
   22        8.890373  -0.000000
   23        8.890373  -0.000000
   24        8.890373  -0.000000
   25       14.381806   0.000000
   26       14.381806   0.000000
   27       14.381806   0.000000
   28       20.332439   0.000000
   29       20.332439   0.000000
   30       20.332439   0.000000
 
  0.1111111E+00  0.0000000E+00  0.0000000E+00  0.8230453E-02
    1       -1.698023   1.000000
    2        2.599770   1.000000
    3        2.672670   1.000000
    4        2.672670   1.000000
    5        3.089899   1.000000
    6        3.092245   1.000000
    7        3.092245   1.000000
    8        4.366116   1.000000
    9        4.443970   1.000000
   10        4.443970   1.000000
   11        5.176040   1.000000
   12        5.230596   1.000000
   13        5.659114   1.000000
   14        5.659114   1.000000
   15        5.699716   1.000000
   16        5.699716   1.000000
   17        5.733717   1.000000
   18        5.843136   1.000000
   19        5.843136   1.000000
   20        5.902794   1.000000
   21        5.902794   1.000000
   22        8.040383  -0.000006
   23        9.267333  -0.000000
   24        9.267333  -0.000000
   25       14.437013   0.000000
   26       14.437013   0.000000
   27       15.526799   0.000000
   28       19.421781   0.000000
   29       19.421781   0.000000
   30       19.725194   0.000000
 
  0.2222222E+00  0.0000000E+00  0.0000000E+00  0.8230453E-02
    1       -1.259106   1.000000
    2        2.530356   1.000000
    3        2.859538   1.000000
    4        2.859538   1.000000
    5        3.202021   1.000000
    6        3.216748   1.000000
    7        3.216748   1.000000
    8        4.242570   1.000000
    9        4.546347   1.000000
   10        4.546347   1.000000
   11        5.066629   1.000000
   12        5.146457   1.000000
   13        5.146457   1.000000
   14        5.276152   1.000000
   15        5.557182   1.000000
   16        5.557182   1.000000
   17        5.678476   1.000000
   18        5.678476   1.000000
   19        5.686260   1.000000
   20        5.903067   1.000000
   21        5.903067   1.000000
   22        6.532701   1.000000
   23       10.177838  -0.000000
   24       10.177838  -0.000000
   25       14.611925   0.000000
   26       14.611925   0.000000
   27       17.735058   0.000000
   28       17.735058   0.000000
   29       17.964299   0.000000
   30       18.492257   0.000000
 
  0.3333333E+00  0.0000000E+00  0.0000000E+00  0.8230453E-02
    1       -0.550064   1.000000
    2        2.192842   1.000000
    3        3.106334   1.000000
    4        3.106334   1.000000
    5        3.376411   1.000000
    6        3.428070   1.000000
    7        3.428070   1.000000
    8        4.055319   1.000000
    9        4.605785   1.000000
   10        4.605785   1.000000
   11        4.711241   1.000000
   12        4.711241   1.000000
   13        4.915789   1.000000
   14        5.336294   1.000000
   15        5.346310   1.000000
   16        5.359786   1.000000
   17        5.359786   1.000000
   18        5.444384   1.000000
   19        5.444384   1.000000
   20        5.614093   1.000000
   21        5.903205   1.000000
   22        5.903205   1.000000
   23       11.376687  -0.000000
   24       11.376687  -0.000000
   25       14.932067   0.000000
   26       14.932067   0.000000
   27       15.981423   0.000000
   28       15.981423   0.000000
   29       17.264784   0.000000
   30       17.264784   0.000000
 
  0.4444444E+00  0.0000000E+00  0.0000000E+00  0.8230453E-02
    1        0.378401   1.000000
    2        1.394618   1.000000
    3        3.299186   1.000000
    4        3.299186   1.000000
    5        3.593845   1.000000
    6        3.730200   1.000000
    7        3.730200   1.000000
    8        3.829507   1.000000
    9        4.124748   1.000000
   10        4.124748   1.000000
   11        4.786338   1.000000
   12        4.823458   1.000000
   13        4.929043   1.000000
   14        4.929043   1.000000
   15        5.182399   1.000000
   16        5.182399   1.000000
   17        5.199002   1.000000
   18        5.199002   1.000000
   19        5.432985   1.000000
   20        5.526181   1.000000
   21        5.903369   1.000000
   22        5.903369   1.000000
   23       12.767380  -0.000000
   24       12.767380  -0.000000
   25       14.311043   0.000000
   26       14.311043   0.000000
   27       15.416433   0.000000
   28       15.416433   0.000000
   29       16.283055   0.000000
   30       16.283055   0.000000
 
  0.1111111E+00  0.1111111E+00  0.0000000E+00  0.1646091E-01
    1       -1.550911   1.000000
    2        2.670996   1.000000
    3        2.670996   1.000000
    4        2.737882   1.000000
    5        3.129502   1.000000
    6        3.129502   1.000000
    7        3.130704   1.000000
    8        4.343002   1.000000
    9        4.460177   1.000000
   10        4.472285   1.000000
   11        5.165873   1.000000
   12        5.223726   1.000000
   13        5.495191   1.000000
   14        5.548955   1.000000
   15        5.548955   1.000000
   16        5.652948   1.000000
   17        5.713518   1.000000
   18        5.713518   1.000000
   19        5.842881   1.000000
   20        5.842881   1.000000
   21        5.864349   1.000000
   22        8.409392  -0.000000
   23        8.409392  -0.000000
   24        9.603203  -0.000000
   25       14.492746   0.000000
   26       15.610325   0.000000
   27       15.610325   0.000000
   28       17.747500   0.000000
   29       19.618197   0.000000
   30       19.618197   0.000000
 
  0.2222222E+00  0.1111111E+00  0.0000000E+00  0.3292181E-01
    1       -1.115463   1.000000
    2        2.610972   1.000000
    3        2.866831   1.000000
    4        2.917010   1.000000
    5        3.237984   1.000000
    6        3.246758   1.000000
    7        3.249935   1.000000
    8        4.234025   1.000000
    9        4.552140   1.000000
   10        4.552713   1.000000
   11        5.034832   1.000000
   12        5.064916   1.000000
   13        5.076654   1.000000
   14        5.271164   1.000000
   15        5.294056   1.000000
   16        5.520316   1.000000
   17        5.567200   1.000000
   18        5.669680   1.000000
   19        5.677865   1.000000
   20        5.842357   1.000000
   21        5.843917   1.000000
   22        6.966427   1.010219
   23        9.240081  -0.000000
   24       10.453178  -0.000000
   25       14.658367   0.000000
   26       15.871094   0.000000
   27       15.948404   0.000000
   28       17.918579   0.000000
   29       18.068099   0.000000
   30       18.663725   0.000000
 
  0.3333333E+00  0.1111111E+00  0.0000000E+00  0.3292181E-01
    1       -0.412766   1.000000
    2        2.288515   1.000000
    3        3.128882   1.000000
    4        3.158461   1.000000
    5        3.405841   1.000000
    6        3.436307   1.000000
    7        3.453799   1.000000
    8        4.057062   1.000000
    9        4.508491   1.000000
   10        4.572060   1.000000
   11        4.653316   1.000000
   12        4.713809   1.000000
   13        4.900462   1.000000
   14        4.973213   1.000000
   15        5.336165   1.000000
   16        5.358699   1.000000
   17        5.370993   1.000000
   18        5.443469   1.000000
   19        5.545702   1.000000
   20        5.839681   1.000000
   21        5.841503   1.000000
   22        5.971136   1.000000
   23       10.278665  -0.000000
   24       11.610340  -0.000000
   25       14.202082   0.000000
   26       15.083750   0.000000
   27       16.164940   0.000000
   28       16.330675   0.000000
   29       17.416344   0.000000
   30       19.196318   0.000000
 
  0.4444444E+00  0.1111111E+00  0.0000000E+00  0.3292181E-01
    1        0.505530   1.000000
    2        1.507008   1.000000
    3        3.342327   1.000000
    4        3.355233   1.000000
    5        3.614984   1.000000
    6        3.694895   1.000000
    7        3.743963   1.000000
    8        3.841282   1.000000
    9        4.052053   1.000000
   10        4.120156   1.000000
   11        4.644468   1.000000
   12        4.648580   1.000000
   13        4.929741   1.000000
   14        5.040854   1.000000
   15        5.181899   1.000000
   16        5.190279   1.000000
   17        5.204558   1.000000
   18        5.284647   1.000000
   19        5.472216   1.000000
   20        5.619480   1.000000
   21        5.839533   1.000000
   22        5.840375   1.000000
   23       11.453673  -0.000000
   24       12.761314  -0.000000
   25       12.974946   0.000000
   26       14.502689   0.000000
   27       15.582194   0.000000
   28       16.334778   0.000000
   29       17.085738   0.000000
   30       18.030513   0.000000
 
  0.2222222E+00  0.2222222E+00  0.0000000E+00  0.1646091E-01
    1       -0.691033   1.000000
    2        2.834991   1.000000
    3        2.834991   1.000000
    4        3.073571   1.000000
    5        3.337834   1.000000
    6        3.346036   1.000000
    7        3.346036   1.000000
    8        4.177394   1.000000
    9        4.573080   1.000000
   10        4.604777   1.000000
   11        4.764013   1.000000
   12        4.764013   1.000000
   13        4.817912   1.000000
   14        5.046709   1.000000
   15        5.320112   1.000000
   16        5.413746   1.000000
   17        5.542337   1.000000
   18        5.542337   1.000000
   19        5.676063   1.000000
   20        5.676063   1.000000
   21        5.751486   1.000000
   22        7.732755  -0.010570
   23        7.732755  -0.010570
   24       11.195391  -0.000000
   25       13.919990   0.000000
   26       14.964221   0.000000
   27       18.374185   0.000000
   28       18.374185   0.000000
   29       18.451421   0.000000
   30       18.451421   0.000000
 
  0.3333333E+00  0.2222222E+00  0.0000000E+00  0.3292181E-01
    1       -0.008965   1.000000
    2        2.556150   1.000000
    3        3.143902   1.000000
    4        3.290483   1.000000
    5        3.473080   1.000000
    6        3.493931   1.000000
    7        3.527384   1.000000
    8        4.048029   1.000000
    9        4.287338   1.000000
   10        4.465750   1.000000
   11        4.480258   1.000000
   12        4.579733   1.000000
   13        4.738204   1.000000
   14        4.987489   1.000000
   15        5.262173   1.000000
   16        5.357605   1.000000
   17        5.430811   1.000000
   18        5.441869   1.000000
   19        5.459289   1.000000
   20        5.674001   1.000000
   21        5.699706   1.000000
   22        6.588792   1.000000
   23        8.622845  -0.000000
   24       12.264417  -0.000000
   25       12.265310  -0.000000
   26       15.309851   0.000000
   27       16.697396   0.000000
   28       17.814204   0.000000
   29       18.969646   0.000000
   30       19.289188   0.000000
 
  0.4444444E+00  0.2222222E+00  0.0000000E+00  0.3292181E-01
    1        0.875344   1.000000
    2        1.827282   1.000000
    3        3.425595   1.000000
    4        3.510659   1.000000
    5        3.596454   1.000000
    6        3.676444   1.000000
    7        3.781753   1.000000
    8        3.870350   1.000000
    9        3.890827   1.000000
   10        4.102128   1.000000
   11        4.404576   1.000000
   12        4.499479   1.000000
   13        4.939346   1.000000
   14        5.048438   1.000000
   15        5.148958   1.000000
   16        5.183538   1.000000
   17        5.188240   1.000000
   18        5.234677   1.000000
   19        5.661562   1.000000
   20        5.673778   1.000000
   21        5.679493   1.000000
   22        5.972711   1.000000
   23        9.643323  -0.000000
   24       10.841005  -0.000000
   25       13.567885   0.000000
   26       15.056116   0.000000
   27       15.891204   0.000000
   28       16.722829   0.000000
   29       19.748567   0.000000
   30       20.380319   0.000000
 
  0.3333333E+00  0.3333333E+00  0.0000000E+00  0.1646091E-01
    1        0.632961   1.000000
    2        2.930357   1.000000
    3        2.930357   1.000000
    4        3.410187   1.000000
    5        3.581391   1.000000
    6        3.638669   1.000000
    7        3.638669   1.000000
    8        3.998668   1.000000
    9        4.141236   1.000000
   10        4.141236   1.000000
   11        4.285429   1.000000
   12        4.517637   1.000000
   13        4.821132   1.000000
   14        4.926287   1.000000
   15        5.145912   1.000000
   16        5.261236   1.000000
   17        5.261236   1.000000
   18        5.443485   1.000000
   19        5.443485   1.000000
   20        5.570757   1.000000
   21        5.676481   1.000000
   22        7.295851   0.722757
   23        7.295851   0.722757
   24       10.585290  -0.000000
   25       13.246838   0.000000
   26       15.748163   0.000000
   27       17.535207   0.000000
   28       17.535207   0.000000
   29       18.522176   0.000000
   30       18.522176   0.000000
 
  0.4444444E+00  0.3333333E+00  0.0000000E+00  0.3292181E-01
    1        1.447830   1.000000
    2        2.296709   1.000000
    3        3.281172   1.000000
    4        3.440267   1.000000
    5        3.728686   1.000000
    6        3.770171   1.000000
    7        3.832880   1.000000
    8        3.892800   1.000000
    9        3.899300   1.000000
   10        4.059772   1.000000
   11        4.223056   1.000000
   12        4.396116   1.000000
   13        4.944285   1.000000
   14        4.979655   1.000000
   15        5.055238   1.000000
   16        5.090007   1.000000
   17        5.100879   1.000000
   18        5.197917   1.000000
   19        5.455804   1.000000
   20        5.492248   1.000000
   21        5.984881   1.000000
   22        6.459749   1.000000
   23        8.144961  -0.000000
   24        9.218197  -0.000000
   25       14.481837   0.000000
   26       15.921599   0.000000
   27       16.412956   0.000000
   28       17.334023   0.000000
   29       18.630669   0.000000
   30       19.482064   0.000000
 
  0.4444444E+00  0.4444444E+00  0.0000000E+00  0.1646091E-01
    1        2.137150   1.000000
    2        2.799392   1.000000
    3        2.799392   1.000000
    4        3.193778   1.000000
    5        3.880749   1.000000
    6        3.880749   1.000000
    7        3.906047   1.000000
    8        3.943375   1.000000
    9        3.984292   1.000000
   10        4.094128   1.000000
   11        4.094128   1.000000
   12        4.284819   1.000000
   13        4.878299   1.000000
   14        4.950505   1.000000
   15        4.957918   1.000000
   16        4.957918   1.000000
   17        5.077390   1.000000
   18        5.242660   1.000000
   19        5.242660   1.000000
   20        5.338137   1.000000
   21        6.426191   1.000000
   22        7.090759   1.034676
   23        7.090759   1.034676
   24        7.973993  -0.000048
   25       15.656015   0.000000
   26       17.048080   0.000000
   27       17.048080   0.000000
   28       17.174119   0.000000
   29       18.195379   0.000000
   30       18.195379   0.000000
 
  0.1111111E+00  0.1111111E+00  0.1111111E+00  0.1097394E-01
    1       -1.405017   1.000000
    2        2.738466   1.000000
    3        2.738466   1.000000
    4        2.738466   1.000000
    5        3.167050   1.000000
    6        3.167050   1.000000
    7        3.167050   1.000000
    8        4.322737   1.000000
    9        4.484491   1.000000
   10        4.484491   1.000000
   11        5.189788   1.000000
   12        5.189788   1.000000
   13        5.403592   1.000000
   14        5.403592   1.000000
   15        5.403592   1.000000
   16        5.597814   1.000000
   17        5.597814   1.000000
   18        5.597814   1.000000
   19        5.850493   1.000000
   20        5.850493   1.000000
   21        5.850493   1.000000
   22        8.721183  -0.000000
   23        8.721183  -0.000000
   24        8.721183  -0.000000
   25       15.694750   0.000000
   26       15.694750   0.000000
   27       15.694750   0.000000
   28       17.931599   0.000000
   29       17.931599   0.000000
   30       17.931599   0.000000
 
  0.2222222E+00  0.1111111E+00  0.1111111E+00  0.3292181E-01
    1       -0.973519   1.000000
    2        2.685115   1.000000
    3        2.923556   1.000000
    4        2.923556   1.000000
    5        3.272739   1.000000
    6        3.279719   1.000000
    7        3.279719   1.000000
    8        4.227527   1.000000
    9        4.552969   1.000000
   10        4.557705   1.000000
   11        4.966007   1.000000
   12        4.966007   1.000000
   13        5.102405   1.000000
   14        5.131236   1.000000
   15        5.257218   1.000000
   16        5.453419   1.000000
   17        5.481497   1.000000
   18        5.481497   1.000000
   19        5.801743   1.000000
   20        5.828280   1.000000
   21        5.828280   1.000000
   22        7.259071   0.846301
   23        9.476384  -0.000000
   24        9.476384  -0.000000
   25       15.897911   0.000000
   26       15.897911   0.000000
   27       16.176819   0.000000
   28       16.176819   0.000000
   29       18.151605   0.000000
   30       18.489182   0.000000
 
  0.3333333E+00  0.1111111E+00  0.1111111E+00  0.3292181E-01
    1       -0.278191   1.000000
    2        2.374752   1.000000
    3        3.175640   1.000000
    4        3.175640   1.000000
    5        3.436677   1.000000
    6        3.459954   1.000000
    7        3.459954   1.000000
    8        4.062461   1.000000
    9        4.491208   1.000000
   10        4.491208   1.000000
   11        4.632275   1.000000
   12        4.679298   1.000000
   13        4.755125   1.000000
   14        5.042041   1.000000
   15        5.257188   1.000000
   16        5.319261   1.000000
   17        5.319261   1.000000
   18        5.358492   1.000000
   19        5.716227   1.000000
   20        5.808207   1.000000
   21        5.808207   1.000000
   22        6.159938   1.000000
   23       10.460553  -0.000000
   24       10.460553  -0.000000
   25       14.442904   0.000000
   26       14.442904   0.000000
   27       16.461019   0.000000
   28       16.461019   0.000000
   29       19.291004   0.000000
   30       19.353440   0.000000
 
  0.4444444E+00  0.1111111E+00  0.1111111E+00  0.3292181E-01
    1        0.628006   1.000000
    2        1.611735   1.000000
    3        3.397405   1.000000
    4        3.397405   1.000000
    5        3.639629   1.000000
    6        3.670056   1.000000
    7        3.670056   1.000000
    8        3.857186   1.000000
    9        4.095752   1.000000
   10        4.095752   1.000000
   11        4.560585   1.000000
   12        4.594771   1.000000
   13        4.845390   1.000000
   14        5.044853   1.000000
   15        5.175963   1.000000
   16        5.175963   1.000000
   17        5.184896   1.000000
   18        5.479315   1.000000
   19        5.539816   1.000000
   20        5.603905   1.000000
   21        5.799483   1.000000
   22        5.799483   1.000000
   23       11.558789  -0.000000
   24       11.558789  -0.000000
   25       13.027592   0.000000
   26       13.027592   0.000000
   27       17.176165   0.000000
   28       17.176165   0.000000
   29       18.172742   0.000000
   30       18.172742   0.000000
 
  0.2222222E+00  0.2222222E+00  0.1111111E+00  0.3292181E-01
    1       -0.554670   1.000000
    2        2.887714   1.000000
    3        2.887714   1.000000
    4        3.074901   1.000000
    5        3.370685   1.000000
    6        3.377871   1.000000
    7        3.377871   1.000000
    8        4.180739   1.000000
    9        4.570485   1.000000
   10        4.587805   1.000000
   11        4.714626   1.000000
   12        4.714626   1.000000
   13        4.743445   1.000000
   14        5.104846   1.000000
   15        5.295010   1.000000
   16        5.330728   1.000000
   17        5.353506   1.000000
   18        5.353506   1.000000
   19        5.781990   1.000000
   20        5.781990   1.000000
   21        5.783125   1.000000
   22        7.918555  -0.000223
   23        7.918555  -0.000223
   24       10.094444  -0.000000
   25       14.178234   0.000000
   26       16.276018   0.000000
   27       16.614604   0.000000
   28       16.614604   0.000000
   29       18.509998   0.000000
   30       18.509998   0.000000
 
  0.3333333E+00  0.2222222E+00  0.1111111E+00  0.6584362E-01
    1        0.116612   1.000000
    2        2.609845   1.000000
    3        3.160192   1.000000
    4        3.276473   1.000000
    5        3.504790   1.000000
    6        3.531804   1.000000
    7        3.543831   1.000000
    8        4.066552   1.000000
    9        4.309326   1.000000
   10        4.430081   1.000000
   11        4.454406   1.000000
   12        4.573767   1.000000
   13        4.668866   1.000000
   14        5.094128   1.000000
   15        5.162286   1.000000
   16        5.191339   1.000000
   17        5.236456   1.000000
   18        5.435846   1.000000
   19        5.687093   1.000000
   20        5.729159   1.000000
   21        5.729768   1.000000
   22        6.684639   1.000013
   23        8.753176  -0.000000
   24       10.895254  -0.000000
   25       12.596321  -0.000000
   26       14.956764   0.000000
   27       16.787616   0.000000
   28       17.424219   0.000000
   29       19.054264   0.000000
   30       19.830367   0.000000
 
  0.4444444E+00  0.2222222E+00  0.1111111E+00  0.6584362E-01
    1        0.982227   1.000000
    2        1.905743   1.000000
    3        3.419172   1.000000
    4        3.488992   1.000000
    5        3.576272   1.000000
    6        3.660123   1.000000
    7        3.715977   1.000000
    8        3.902450   1.000000
    9        4.063650   1.000000
   10        4.158885   1.000000
   11        4.392557   1.000000
   12        4.489879   1.000000
   13        4.792208   1.000000
   14        4.962098   1.000000
   15        5.088351   1.000000
   16        5.111377   1.000000
   17        5.245092   1.000000
   18        5.504576   1.000000
   19        5.631200   1.000000
   20        5.697500   1.000000
   21        5.697856   1.000000
   22        5.961871   1.000000
   23        9.727690  -0.000000
   24       10.799467  -0.000000
   25       12.361800  -0.000000
   26       13.516677   0.000000
   27       17.550280   0.000000
   28       18.486884   0.000000
   29       18.565966   0.000000
   30       19.775915   0.000000
 
  0.3333333E+00  0.3333333E+00  0.1111111E+00  0.3292181E-01
    1        0.740384   1.000000
    2        2.916440   1.000000
    3        2.916440   1.000000
    4        3.330927   1.000000
    5        3.637264   1.000000
    6        3.692477   1.000000
    7        3.692477   1.000000
    8        4.040237   1.000000
    9        4.186312   1.000000
   10        4.186312   1.000000
   11        4.320199   1.000000
   12        4.518604   1.000000
   13        4.686236   1.000000
   14        5.050631   1.000000
   15        5.076430   1.000000
   16        5.076430   1.000000
   17        5.090858   1.000000
   18        5.605510   1.000000
   19        5.605510   1.000000
   20        5.637798   1.000000
   21        5.645137   1.000000
   22        7.356693   0.474728
   23        7.356693   0.474728
   24       10.484902  -0.000000
   25       12.144056  -0.000000
   26       15.746911   0.000000
   27       15.746911   0.000000
   28       17.351821   0.000000
   29       19.559365   0.000000
   30       20.540244   0.000000
 
  0.4444444E+00  0.3333333E+00  0.1111111E+00  0.6584362E-01
    1        1.522520   1.000000
    2        2.320957   1.000000
    3        3.176984   1.000000
    4        3.310022   1.000000
    5        3.777733   1.000000
    6        3.838056   1.000000
    7        3.847444   1.000000
    8        3.965833   1.000000
    9        4.067498   1.000000
   10        4.187062   1.000000
   11        4.245938   1.000000
   12        4.403971   1.000000
   13        4.752126   1.000000
   14        4.893507   1.000000
   15        4.958077   1.000000
   16        4.980690   1.000000
   17        5.200143   1.000000
   18        5.413885   1.000000
   19        5.554522   1.000000
   20        5.567572   1.000000
   21        5.949783   1.000000
   22        6.448747   1.000000
   23        8.185656  -0.000000
   24        9.234321  -0.000000
   25       13.066642   0.000000
   26       14.292211   0.000000
   27       16.788740   0.000000
   28       18.062304   0.000000
   29       18.172050   0.000000
   30       19.249505   0.000000
 
  0.4444444E+00  0.4444444E+00  0.1111111E+00  0.3292181E-01
    1        2.154851   1.000000
    2        2.741470   1.000000
    3        2.741470   1.000000
    4        3.070620   1.000000
    5        3.983087   1.000000
    6        4.013067   1.000000
    7        4.013067   1.000000
    8        4.019196   1.000000
    9        4.138495   1.000000
   10        4.138495   1.000000
   11        4.155018   1.000000
   12        4.304940   1.000000
   13        4.737508   1.000000
   14        4.826885   1.000000
   15        4.826885   1.000000
   16        4.841873   1.000000
   17        5.231932   1.000000
   18        5.378330   1.000000
   19        5.378330   1.000000
   20        5.440835   1.000000
   21        6.391757   1.000000
   22        7.080965   1.033467
   23        7.080965   1.033467
   24        7.977529  -0.000043
   25       14.075003   0.000000
   26       15.317574   0.000000
   27       15.317574   0.000000
   28       16.575569   0.000000
   29       19.053887   0.000000
   30       20.191524   0.000000
 
  0.2222222E+00  0.2222222E+00  0.2222222E+00  0.1097394E-01
    1       -0.153947   1.000000
    2        3.018036   1.000000
    3        3.018036   1.000000
    4        3.018036   1.000000
    5        3.479720   1.000000
    6        3.479720   1.000000
    7        3.479720   1.000000
    8        4.172512   1.000000
    9        4.555677   1.000000
   10        4.555677   1.000000
   11        4.555677   1.000000
   12        4.569941   1.000000
   13        4.569941   1.000000
   14        5.157012   1.000000
   15        5.157012   1.000000
   16        5.157012   1.000000
   17        5.242573   1.000000
   18        5.242573   1.000000
   19        5.812262   1.000000
   20        5.812262   1.000000
   21        5.812262   1.000000
   22        8.410806  -0.000000
   23        8.410806  -0.000000
   24        8.410806  -0.000000
   25       14.702801   0.000000
   26       14.702801   0.000000
   27       14.702801   0.000000
   28       18.845948   0.000000
   29       18.845948   0.000000
   30       18.845948   0.000000
 
  0.3333333E+00  0.2222222E+00  0.2222222E+00  0.3292181E-01
    1        0.481560   1.000000
    2        2.738345   1.000000
    3        3.162950   1.000000
    4        3.162950   1.000000
    5        3.634963   1.000000
    6        3.634963   1.000000
    7        3.655531   1.000000
    8        4.117590   1.000000
    9        4.356231   1.000000
   10        4.356231   1.000000
   11        4.378955   1.000000
   12        4.552276   1.000000
   13        4.590799   1.000000
   14        4.965973   1.000000
   15        5.032964   1.000000
   16        5.032964   1.000000
   17        5.258862   1.000000
   18        5.409016   1.000000
   19        5.767129   1.000000
   20        5.767129   1.000000
   21        5.787516   1.000000
   22        7.008391   1.018043
   23        9.091755  -0.000000
   24        9.091755  -0.000000
   25       13.082900   0.000000
   26       13.082900   0.000000
   27       15.498108   0.000000
   28       19.321821   0.000000
   29       19.418602   0.000000
   30       19.418602   0.000000
 
  0.4444444E+00  0.2222222E+00  0.2222222E+00  0.3292181E-01
    1        1.284327   1.000000
    2        2.113023   1.000000
    3        3.266481   1.000000
    4        3.266481   1.000000
    5        3.732239   1.000000
    6        3.732239   1.000000
    7        3.847091   1.000000
    8        4.006365   1.000000
    9        4.262646   1.000000
   10        4.262646   1.000000
   11        4.356751   1.000000
   12        4.459791   1.000000
   13        4.665946   1.000000
   14        4.794828   1.000000
   15        4.946353   1.000000
   16        4.946353   1.000000
   17        5.498216   1.000000
   18        5.570834   1.000000
   19        5.703354   1.000000
   20        5.717395   1.000000
   21        5.717395   1.000000
   22        6.051438   1.000000
   23        9.786774  -0.000000
   24        9.786774  -0.000000
   25       11.916430  -0.000000
   26       11.916430  -0.000000
   27       16.543971   0.000000
   28       17.821040   0.000000
   29       20.225048   0.000000
   30       20.225048   0.000000
 
  0.3333333E+00  0.3333333E+00  0.2222222E+00  0.3292181E-01
    1        1.044962   1.000000
    2        2.872365   1.000000
    3        2.872365   1.000000
    4        3.119224   1.000000
    5        3.796738   1.000000
    6        3.848074   1.000000
    7        3.848074   1.000000