unknown system                          
   1.00000000000000     
     3.635000    0.000000    0.000000
     0.000000    3.635000    0.000000
     0.000000    0.000000    3.635000
   Cu
     4
Direct
  0.000000  0.000000  0.000000
  0.500000  0.500000  0.000000
  0.500000  0.000000  0.500000
  0.000000  0.500000  0.500000
 
   32   32   32
  845.10      796.47      666.00      491.92      317.55      175.89      82.694      36.227      20.769      15.212    
  11.600      9.3680      8.0810      7.4355      7.0335      6.6566      6.4753      6.6566      7.0335      7.4355    
  8.0810      9.3680      11.600      15.212      20.769      36.227      82.694      175.89      317.55      491.92    
  666.00      796.47      796.47      750.44      626.95      462.24      297.50      164.16      77.139      34.379    
  20.374      15.015      11.526      9.3858      8.1586      7.5478      7.1729      6.8243      6.6566      6.8243    
  7.1729      7.5478      8.1586      9.3858      11.526      15.015      20.374      34.379      77.139      164.16    
  297.50      462.24      626.95      750.44      666.00      626.95      522.22      382.78      244.09      133.31    
  62.860      29.829      19.352      14.471      11.331      9.4296      8.3443      7.7991      7.4681      7.1729    
  7.0335      7.1729      7.4681      7.7991      8.3443      9.4296      11.331      14.471      19.352      29.829    
  62.860      133.31      244.09      382.78      522.22      626.95      491.92      462.24      382.78      277.58    
  174.34      94.100      45.654      24.808      17.910      13.716      11.087      9.5092      8.5946      8.1057    
  7.7991      7.5478      7.4355      7.5478      7.7991      8.1057      8.5946      9.5092      11.087      13.716    
  17.910      24.808      45.654      94.100      174.34      277.58      382.78      462.24      317.55      297.50    
  244.09      174.34      107.73      58.571      31.473      21.034      16.245      12.928      10.902      9.6985    
  8.9918      8.5946      8.3443      8.1586      8.0810      8.1586      8.3443      8.5946      8.9918      9.6985    
  10.902      12.928      16.245      21.034      31.473      58.571      107.73      174.34      244.09      297.50    
  175.89      164.16      133.31      94.100      58.571      34.655      23.169      18.220      14.642      12.280    
  10.892      10.112      9.6985      9.5092      9.4296      9.3858      9.3680      9.3858      9.4296      9.5092    
  9.6985      10.112      10.892      12.280      14.642      18.220      23.169      34.655      58.571      94.100    
  133.31      164.16      82.694      77.139      62.860      45.654      31.473      23.169      18.957      15.703    
  13.352      11.917      11.176      10.892      10.902      11.087      11.331      11.526      11.600      11.526    
  11.331      11.087      10.902      10.892      11.176      11.917      13.352      15.703      18.957      23.169    
  31.473      45.654      62.860      77.139      36.227      34.379      29.829      24.808      21.034      18.220    
  15.703      13.765      12.533      11.959      11.917      12.280      12.928      13.716      14.471      15.015    
  15.212      15.015      14.471      13.716      12.928      12.280      11.917      11.959      12.533      13.765    
  15.703      18.220      21.034      24.808      29.829      34.379      20.769      20.374      19.352      17.910    
  16.245      14.642      13.352      12.533      12.255      12.533      13.352      14.642      16.245      17.910    
  19.352      20.374      20.769      20.374      19.352      17.910      16.245      14.642      13.352      12.533    
  12.255      12.533      13.352      14.642      16.245      17.910      19.352      20.374      15.212      15.015    
  14.471      13.716      12.928      12.280      11.917      11.959      12.533      13.765      15.703      18.220    
  21.034      24.808      29.829      34.379      36.227      34.379      29.829      24.808      21.034      18.220    
  15.703      13.765      12.533      11.959      11.917      12.280      12.928      13.716      14.471      15.015    
  11.600      11.526      11.331      11.087      10.902      10.892      11.176      11.917      13.352      15.703    
  18.957      23.169      31.473      45.654      62.860      77.139      82.694      77.139      62.860      45.654    
  31.473      23.169      18.957      15.703      13.352      11.917      11.176      10.892      10.902      11.087    
  11.331      11.526      9.3680      9.3858      9.4296      9.5092      9.6985      10.112      10.892      12.280    
  14.642      18.220      23.169      34.655      58.571      94.100      133.31      164.16      175.89      164.16    
  133.31      94.100      58.571      34.655      23.169      18.220      14.642      12.280      10.892      10.112    
  9.6985      9.5092      9.4296      9.3858      8.0810      8.1586      8.3443      8.5946      8.9918      9.6985    
  10.902      12.928      16.245      21.034      31.473      58.571      107.73      174.34      244.09      297.50    
  317.55      297.50      244.09      174.34      107.73      58.571      31.473      21.034      16.245      12.928    
  10.902      9.6985      8.9918      8.5946      8.3443      8.1586      7.4355      7.5478      7.7991      8.1057    
  8.5946      9.5092      11.087      13.716      17.910      24.808      45.654      94.100      174.34      277.58    
  382.78      462.24      491.92      462.24      382.78      277.58      174.34      94.100      45.654      24.808    
  17.910      13.716      11.087      9.5092      8.5946      8.1057      7.7991      7.5478      7.0335      7.1729    
  7.4681      7.7991      8.3443      9.4296      11.331      14.471      19.352      29.829      62.860      133.31    
  244.09      382.78      522.22      626.95      666.00      626.95      522.22      382.78      244.09      133.31    
  62.860      29.829      19.352      14.471      11.331      9.4296      8.3443      7.7991      7.4681      7.1729    
  6.6566      6.8243      7.1729      7.5478      8.1586      9.3858      11.526      15.015      20.374      34.379    
  77.139      164.16      297.50      462.24      626.95      750.44      796.47      750.44      626.95      462.24    
  297.50      164.16      77.139      34.379      20.374      15.015      11.526      9.3858      8.1586      7.5478    
  7.1729      6.8243      6.4753      6.6566      7.0335      7.4355      8.0810      9.3680      11.600      15.212    
  20.769      36.227      82.694      175.89      317.55      491.92      666.00      796.47      845.10      796.47    
  666.00      491.92      317.55      175.89      82.694      36.227      20.769      15.212      11.600      9.3680    
  8.0810      7.4355      7.0335      6.6566      6.6566      6.8243      7.1729      7.5478      8.1586      9.3858    
  11.526      15.015      20.374      34.379      77.139      164.16      297.50      462.24      626.95      750.44    
  796.47      750.44      626.95      462.24      297.50      164.16      77.139      34.379      20.374      15.015    
  11.526      9.3858      8.1586      7.5478      7.1729      6.8243      7.0335      7.1729      7.4681      7.7991    
  8.3443      9.4296      11.331      14.471      19.352      29.829      62.860      133.31      244.09      382.78    
  522.22      626.95      666.00      626.95      522.22      382.78      244.09      133.31      62.860      29.829    
  19.352      14.471      11.331      9.4296      8.3443      7.7991      7.4681      7.1729      7.4355      7.5478    
  7.7991      8.1057      8.5946      9.5092      11.087      13.716      17.910      24.808      45.654      94.100    
  174.34      277.58      382.78      462.24      491.92      462.24      382.78      277.58      174.34      94.100    
  45.654      24.808      17.910      13.716      11.087      9.5092      8.5946      8.1057      7.7991      7.5478    
  8.0810      8.1586      8.3443      8.5946      8.9918      9.6985      10.902      12.928      16.245      21.034    
  31.473      58.571      107.73      174.34      244.09      297.50      317.55      297.50      244.09      174.34    
  107.73      58.571      31.473      21.034      16.245      12.928      10.902      9.6985      8.9918      8.5946    
  8.3443      8.1586      9.3680      9.3858      9.4296      9.5092      9.6985      10.112      10.892      12.280    
  14.642      18.220      23.169      34.655      58.571      94.100      133.31      164.16      175.89      164.16    
  133.31      94.100      58.571      34.655      23.169      18.220      14.642      12.280      10.892      10.112    
  9.6985      9.5092      9.4296      9.3858      11.600      11.526      11.331      11.087      10.902      10.892    
  11.176      11.917      13.352      15.703      18.957      23.169      31.473      45.654      62.860      77.139    
  82.694      77.139      62.860      45.654      31.473      23.169      18.957      15.703      13.352      11.917    
  11.176      10.892      10.902      11.087      11.331      11.526      15.212      15.015      14.471      13.716    
  12.928      12.280      11.917      11.959      12.533      13.765      15.703      18.220      21.034      24.808    
  29.829      34.379      36.227      34.379      29.829      24.808      21.034      18.220      15.703      13.765    
  12.533      11.959      11.917      12.280      12.928      13.716      14.471      15.015      20.769      20.374    
  19.352      17.910      16.245      14.642      13.352      12.533      12.255      12.533      13.352      14.642    
  16.245      17.910      19.352      20.374      20.769      20.374      19.352      17.910      16.245      14.642    
  13.352      12.533      12.255      12.533      13.352      14.642      16.245      17.910      19.352      20.374    
  36.227      34.379      29.829      24.808      21.034      18.220      15.703      13.765      12.533      11.959    
  11.917      12.280      12.928      13.716      14.471      15.015      15.212      15.015      14.471      13.716    
  12.928      12.280      11.917      11.959      12.533      13.765      15.703      18.220      21.034      24.808    
  29.829      34.379      82.694      77.139      62.860      45.654      31.473      23.169      18.957      15.703    
  13.352      11.917      11.176      10.892      10.902      11.087      11.331      11.526      11.600      11.526    
  11.331      11.087      10.902      10.892      11.176      11.917      13.352      15.703      18.957      23.169    
  31.473      45.654      62.860      77.139      175.89      164.16      133.31      94.100      58.571      34.655    
  23.169      18.220      14.642      12.280      10.892      10.112      9.6985      9.5092      9.4296      9.3858    
  9.3680      9.3858      9.4296      9.5092      9.6985      10.112      10.892      12.280      14.642      18.220    
  23.169      34.655      58.571      94.100      133.31      164.16      317.55      297.50      244.09      174.34    
  107.73      58.571      31.473      21.034      16.245      12.928      10.902      9.6985      8.9918      8.5946    
  8.3443      8.1586      8.0810      8.1586      8.3443      8.5946      8.9918      9.6985      10.902      12.928    
  16.245      21.034      31.473      58.571      107.73      174.34      244.09      297.50      491.92      462.24    
  382.78      277.58      174.34      94.100      45.654      24.808      17.910      13.716      11.087      9.5092    
  8.5946      8.1057      7.7991      7.5478      7.4355      7.5478      7.7991      8.1057      8.5946      9.5092    
  11.087      13.716      17.910      24.808      45.654      94.100      174.34      277.58      382.78      462.24    
  666.00      626.95      522.22      382.78      244.09      133.31      62.860      29.829      19.352      14.471    
  11.331      9.4296      8.3443      7.7991      7.4681      7.1729      7.0335      7.1729      7.4681      7.7991    
  8.3443      9.4296      11.331      14.471      19.352      29.829      62.860      133.31      244.09      382.78    
  522.22      626.95      796.47      750.44      626.95      462.24      297.50      164.16      77.139      34.379    
  20.374      15.015      11.526      9.3858      8.1586      7.5478      7.1729      6.8243      6.6566      6.8243    
  7.1729      7.5478      8.1586      9.3858      11.526      15.015      20.374      34.379      77.139      164.16    
  297.50      462.24      626.95      750.44      796.47      750.44      626.95      462.24      297.50      164.16    
  77.139      34.379      20.374      15.015      11.526      9.3858      8.1586      7.5478      7.1729      6.8243    
  6.6566      6.8243      7.1729      7.5478      8.1586      9.3858      11.526      15.015      20.374      34.379    
  77.139      164.16      297.50      462.24      626.95      750.44      750.44      706.88      590.01      434.19    
  278.59      153.18      71.995      32.702      20.007      14.821      11.454      9.4007      8.2299      7.6513    
  7.3015      6.9792      6.8243      6.9792      7.3015      7.6513      8.2299      9.4007      11.454      14.821    
  20.007      32.702      71.995      153.18      278.59      434.19      590.01      706.88      626.95      590.01    
  490.93      359.12      228.30      124.31      58.804      28.588      19.032      14.292      11.263      9.4380    
  8.4015      7.8841      7.5746      7.3015      7.1729      7.3015      7.5746      7.8841      8.4015      9.4380    
  11.263      14.292      19.032      28.588      58.804      124.31      228.30      359.12      490.93      590.01    
  462.24      434.19      359.12      259.87      162.77      87.768      42.998      24.067      17.621      13.558    
  11.025      9.5104      8.6365      8.1717      7.8841      7.6513      7.5478      7.6513      7.8841      8.1717    
  8.6365      9.5104      11.025      13.558      17.621      24.067      42.998      87.768      162.77      259.87    
  359.12      434.19      297.50      278.59      228.30      162.77      100.47      54.873      30.095      20.631    
  15.999      12.795      10.845      9.6900      9.0144      8.6365      8.4015      8.2299      8.1586      8.2299    
  8.4015      8.6365      9.0144      9.6900      10.845      12.795      15.999      20.631      30.095      54.873    
  100.47      162.77      228.30      278.59      164.16      153.18      124.31      87.768      54.873      32.984    
  22.602      17.910      14.446      12.170      10.835      10.086      9.6900      9.5104      9.4380      9.4007    
  9.3858      9.4007      9.4380      9.5104      9.6900      10.086      10.835      12.170      14.446      17.910    
  22.602      32.984      54.873      87.768      124.31      153.18      77.139      71.995      58.804      42.998    
  30.095      22.602      18.624      15.468      13.201      11.820      11.108      10.835      10.845      11.025    
  11.263      11.454      11.526      11.454      11.263      11.025      10.845      10.835      11.108      11.820    
  13.201      15.468      18.624      22.602      30.095      42.998      58.804      71.995      34.379      32.702    
  28.588      24.067      20.631      17.910      15.468      13.598      12.413      11.861      11.820      12.170    
  12.795      13.558      14.292      14.821      15.015      14.821      14.292      13.558      12.795      12.170    
  11.820      11.861      12.413      13.598      15.468      17.910      20.631      24.067      28.588      32.702    
  20.374      20.007      19.032      17.621      15.999      14.446      13.201      12.413      12.145      12.413    
  13.201      14.446      15.999      17.621      19.032      20.007      20.374      20.007      19.032      17.621    
  15.999      14.446      13.201      12.413      12.145      12.413      13.201      14.446      15.999      17.621    
  19.032      20.007      15.015      14.821      14.292      13.558      12.795      12.170      11.820      11.861    
  12.413      13.598      15.468      17.910      20.631      24.067      28.588      32.702      34.379      32.702    
  28.588      24.067      20.631      17.910      15.468      13.598      12.413      11.861      11.820      12.170    
  12.795      13.558      14.292      14.821      11.526      11.454      11.263      11.025      10.845      10.835    
  11.108      11.820      13.201      15.468      18.624      22.602      30.095      42.998      58.804      71.995    
  77.139      71.995      58.804      42.998      30.095      22.602      18.624      15.468      13.201      11.820    
  11.108      10.835      10.845      11.025      11.263      11.454      9.3858      9.4007      9.4380      9.5104    
  9.6900      10.086      10.835      12.170      14.446      17.910      22.602      32.984      54.873      87.768    
  124.31      153.18      164.16      153.18      124.31      87.768      54.873      32.984      22.602      17.910    
  14.446      12.170      10.835      10.086      9.6900      9.5104      9.4380      9.4007      8.1586      8.2299    
  8.4015      8.6365      9.0144      9.6900      10.845      12.795      15.999      20.631      30.095      54.873    
  100.47      162.77      228.30      278.59      297.50      278.59      228.30      162.77      100.47      54.873    
  30.095      20.631      15.999      12.795      10.845      9.6900      9.0144      8.6365      8.4015      8.2299    
  7.5478      7.6513      7.8841      8.1717      8.6365      9.5104      11.025      13.558      17.621      24.067    
  42.998      87.768      162.77      259.87      359.12      434.19      462.24      434.19      359.12      259.87    
  162.77      87.768      42.998      24.067      17.621      13.558      11.025      9.5104      8.6365      8.1717    
  7.8841      7.6513      7.1729      7.3015      7.5746      7.8841      8.4015      9.4380      11.263      14.292    
  19.032      28.588      58.804      124.31      228.30      359.12      490.93      590.01      626.95      590.01    
  490.93      359.12      228.30      124.31      58.804      28.588      19.032      14.292      11.263      9.4380    
  8.4015      7.8841      7.5746      7.3015      6.8243      6.9792      7.3015      7.6513      8.2299      9.4007    
  11.454      14.821      20.007      32.702      71.995      153.18      278.59      434.19      590.01      706.88    
  750.44      706.88      590.01      434.19      278.59      153.18      71.995      32.702      20.007      14.821    
  11.454      9.4007      8.2299      7.6513      7.3015      6.9792      6.6566      6.8243      7.1729      7.5478    
  8.1586      9.3858      11.526      15.015      20.374      34.379      77.139      164.16      297.50      462.24    
  626.95      750.44      796.47      750.44      626.95      462.24      297.50      164.16      77.139      34.379    
  20.374      15.015      11.526      9.3858      8.1586      7.5478      7.1729      6.8243      6.8243      6.9792    
  7.3015      7.6513      8.2299      9.4007      11.454      14.821      20.007      32.702      71.995      153.18    
  278.59      434.19      590.01      706.88      750.44      706.88      590.01      434.19      278.59      153.18    
  71.995      32.702      20.007      14.821      11.454      9.4007      8.2299      7.6513      7.3015      6.9792    
  7.1729      7.3015      7.5746      7.8841      8.4015      9.4380      11.263      14.292      19.032      28.588    
  58.804      124.31      228.30      359.12      490.93      590.01      626.95      590.01      490.93      359.12    
  228.30      124.31      58.804      28.588      19.032      14.292      11.263      9.4380      8.4015      7.8841    
  7.5746      7.3015      7.5478      7.6513      7.8841      8.1717      8.6365      9.5104      11.025      13.558    
  17.621      24.067      42.998      87.768      162.77      259.87      359.12      434.19      462.24      434.19    
  359.12      259.87      162.77      87.768      42.998      24.067      17.621      13.558      11.025      9.5104    
  8.6365      8.1717      7.8841      7.6513      8.1586      8.2299      8.4015      8.6365      9.0144      9.6900    
  10.845      12.795      15.999      20.631      30.095      54.873      100.47      162.77      228.30      278.59    
  297.50      278.59      228.30      162.77      100.47      54.873      30.095      20.631      15.999      12.795    
  10.845      9.6900      9.0144      8.6365      8.4015      8.2299      9.3858      9.4007      9.4380      9.5104    
  9.6900      10.086      10.835      12.170      14.446      17.910      22.602      32.984      54.873      87.768    
  124.31      153.18      164.16      153.18      124.31      87.768      54.873      32.984      22.602      17.910    
  14.446      12.170      10.835      10.086      9.6900      9.5104      9.4380      9.4007      11.526      11.454    
  11.263      11.025      10.845      10.835      11.108      11.820      13.201      15.468      18.624      22.602    
  30.095      42.998      58.804      71.995      77.139      71.995      58.804      42.998      30.095      22.602    
  18.624      15.468      13.201      11.820      11.108      10.835      10.845      11.025      11.263      11.454    
  15.015      14.821      14.292      13.558      12.795      12.170      11.820      11.861      12.413      13.598    
  15.468      17.910      20.631      24.067      28.588      32.702      34.379      32.702      28.588      24.067    
  20.631      17.910      15.468      13.598      12.413      11.861      11.820      12.170      12.795      13.558    
  14.292      14.821      20.374      20.007      19.032      17.621      15.999      14.446      13.201      12.413    
  12.145      12.413      13.201      14.446      15.999      17.621      19.032      20.007      20.374      20.007    
  19.032      17.621      15.999      14.446      13.201      12.413      12.145      12.413      13.201      14.446    
  15.999      17.621      19.032      20.007      34.379      32.702      28.588      24.067      20.631      17.910    
  15.468      13.598      12.413      11.861      11.820      12.170      12.795      13.558      14.292      14.821    
  15.015      14.821      14.292      13.558      12.795      12.170      11.820      11.861      12.413      13.598    
  15.468      17.910      20.631      24.067      28.588      32.702      77.139      71.995      58.804      42.998    
  30.095      22.602      18.624      15.468      13.201      11.820      11.108      10.835      10.845      11.025    
  11.263      11.454      11.526      11.454      11.263      11.025      10.845      10.835      11.108      11.820    
  13.201      15.468      18.624      22.602      30.095      42.998      58.804      71.995      164.16      153.18    
  124.31      87.768      54.873      32.984      22.602      17.910      14.446      12.170      10.835      10.086    
  9.6900      9.5104      9.4380      9.4007      9.3858      9.4007      9.4380      9.5104      9.6900      10.086    
  10.835      12.170      14.446      17.910      22.602      32.984      54.873      87.768      124.31      153.18    
  297.50      278.59      228.30      162.77      100.47      54.873      30.095      20.631      15.999      12.795    
  10.845      9.6900      9.0144      8.6365      8.4015      8.2299      8.1586      8.2299      8.4015      8.6365    
  9.0144      9.6900      10.845      12.795      15.999      20.631      30.095      54.873      100.47      162.77    
  228.30      278.59      462.24      434.19      359.12      259.87      162.77      87.768      42.998      24.067    
  17.621      13.558      11.025      9.5104      8.6365      8.1717      7.8841      7.6513      7.5478      7.6513    
  7.8841      8.1717      8.6365      9.5104      11.025      13.558      17.621      24.067      42.998      87.768    
  162.77      259.87      359.12      434.19      626.95      590.01      490.93      359.12      228.30      124.31    
  58.804      28.588      19.032      14.292      11.263      9.4380      8.4015      7.8841      7.5746      7.3015    
  7.1729      7.3015      7.5746      7.8841      8.4015      9.4380      11.263      14.292      19.032      28.588    
  58.804      124.31      228.30      359.12      490.93      590.01      750.44      706.88      590.01      434.19    
  278.59      153.18      71.995      32.702      20.007      14.821      11.454      9.4007      8.2299      7.6513    
  7.3015      6.9792      6.8243      6.9792      7.3015      7.6513      8.2299      9.4007      11.454      14.821    
  20.007      32.702      71.995      153.18      278.59      434.19      590.01      706.88      666.00      626.95    
  522.22      382.78      244.09      133.31      62.860      29.829      19.352      14.471      11.331      9.4296    
  8.3443      7.7991      7.4681      7.1729      7.0335      7.1729      7.4681      7.7991      8.3443      9.4296    
  11.331      14.471      19.352      29.829      62.860      133.31      244.09      382.78      522.22      626.95    
  626.95      590.01      490.93      359.12      228.30      124.31      58.804      28.588      19.032      14.292    
  11.263      9.4380      8.4015      7.8841      7.5746      7.3015      7.1729      7.3015      7.5746      7.8841    
  8.4015      9.4380      11.263      14.292      19.032      28.588      58.804      124.31      228.30      359.12    
  490.93      590.01      522.22      490.93      407.09      295.91      186.43      100.80      48.489      25.565    
  18.131      13.802      11.083      9.4614      8.5429      8.0795      7.8055      7.5746      7.4681      7.5746    
  7.8055      8.0795      8.5429      9.4614      11.083      13.802      18.131      25.565      48.489      100.80    
  186.43      295.91      407.09      490.93      382.78      359.12      295.91      212.77      132.29      71.386    
  36.348      22.254      16.812      13.129      10.862      9.5188      8.7455      8.3317      8.0795      7.8841    
  7.7991      7.8841      8.0795      8.3317      8.7455      9.5188      10.862      13.129      16.812      22.254    
  36.348      71.386      132.29      212.77      295.91      359.12      244.09      228.30      186.43      132.29    
  81.590      45.482      26.713      19.548      15.317      12.435      10.697      9.6749      9.0789      8.7455    
  8.5429      8.4015      8.3443      8.4015      8.5429      8.7455      9.0789      9.6749      10.697      12.435    
  15.317      19.548      26.713      45.482      81.590      132.29      186.43      228.30      133.31      124.31    
  100.80      71.386      45.482      28.856      21.174      17.038      13.904      11.871      10.686      10.024    
  9.6749      9.5188      9.4614      9.4380      9.4296      9.4380      9.4614      9.5188      9.6749      10.024    
  10.686      11.871      13.904      17.038      21.174      28.856      45.482      71.386      100.80      124.31    
  62.860      58.804      48.489      36.348      26.713      21.174      17.684      14.812      12.783      11.557    
  10.926      10.686      10.697      10.862      11.083      11.263      11.331      11.263      11.083      10.862    
  10.697      10.686      10.926      11.557      12.783      14.812      17.684      21.174      26.713      36.348    
  48.489      58.804      29.829      28.588      25.565      22.254      19.548      17.038      14.812      13.134    
  12.080      11.592      11.557      11.871      12.435      13.129      13.802      14.292      14.471      14.292    
  13.802      13.129      12.435      11.871      11.557      11.592      12.080      13.134      14.812      17.038    
  19.548      22.254      25.565      28.588      19.352      19.032      18.131      16.812      15.317      13.904    
  12.783      12.080      11.843      12.080      12.783      13.904      15.317      16.812      18.131      19.032    
  19.352      19.032      18.131      16.812      15.317      13.904      12.783      12.080      11.843      12.080    
  12.783      13.904      15.317      16.812      18.131      19.032      14.471      14.292      13.802      13.129    
  12.435      11.871      11.557      11.592      12.080      13.134      14.812      17.038      19.548      22.254    
  25.565      28.588      29.829      28.588      25.565      22.254      19.548      17.038      14.812      13.134    
  12.080      11.592      11.557      11.871      12.435      13.129      13.802      14.292      11.331      11.263    
  11.083      10.862      10.697      10.686      10.926      11.557      12.783      14.812      17.684      21.174    
  26.713      36.348      48.489      58.804      62.860      58.804      48.489      36.348      26.713      21.174    
  17.684      14.812      12.783      11.557      10.926      10.686      10.697      10.862      11.083      11.263    
  9.4296      9.4380      9.4614      9.5188      9.6749      10.024      10.686      11.871      13.904      17.038    
  21.174      28.856      45.482      71.386      100.80      124.31      133.31      124.31      100.80      71.386    
  45.482      28.856      21.174      17.038      13.904      11.871      10.686      10.024      9.6749      9.5188    
  9.4614      9.4380      8.3443      8.4015      8.5429      8.7455      9.0789      9.6749      10.697      12.435    
  15.317      19.548      26.713      45.482      81.590      132.29      186.43      228.30      244.09      228.30    