unknown system                          
   1.00000000000000     
     3.635000    0.000000    0.000000
     0.000000    3.635000    0.000000
     0.000000    0.000000    3.635000
   Cu
     4
Direct
  0.000000  0.000000  0.000000
  0.500000  0.500000  0.000000
  0.500000  0.000000  0.500000
  0.000000  0.500000  0.500000
 
   32   32   32
 0.84509515798E+03 0.79646873620E+03 0.66600031341E+03 0.49191935912E+03 0.31754996142E+03
 0.17588956667E+03 0.82694235482E+02 0.36226994690E+02 0.20768556749E+02 0.15212331090E+02
 0.11599557490E+02 0.93679936110E+01 0.80809806162E+01 0.74355344744E+01 0.70334596346E+01
 0.66566421933E+01 0.64752955593E+01 0.66566421933E+01 0.70334596346E+01 0.74355344744E+01
 0.80809806162E+01 0.93679936110E+01 0.11599557490E+02 0.15212331090E+02 0.20768556749E+02
 0.36226994690E+02 0.82694235482E+02 0.17588956667E+03 0.31754996142E+03 0.49191935912E+03
 0.66600031341E+03 0.79646873620E+03 0.79646873620E+03 0.75044389602E+03 0.62695406716E+03
 0.46224051020E+03 0.29749578680E+03 0.16416350696E+03 0.77139259768E+02 0.34378904437E+02
 0.20374419200E+02 0.15014545699E+02 0.11526477344E+02 0.93858285147E+01 0.81586093564E+01
 0.75477602307E+01 0.71728615711E+01 0.68242906145E+01 0.66566421933E+01 0.68242906145E+01
 0.71728615711E+01 0.75477602307E+01 0.81586093564E+01 0.93858285147E+01 0.11526477344E+02
 0.15014545699E+02 0.20374419200E+02 0.34378904437E+02 0.77139259768E+02 0.16416350696E+03
 0.29749578680E+03 0.46224051020E+03 0.62695406716E+03 0.75044389602E+03 0.66600031341E+03
 0.62695406716E+03 0.52222427430E+03 0.38278387636E+03 0.24409388955E+03 0.13330671730E+03
 0.62860373634E+02 0.29829119199E+02 0.19352355789E+02 0.14471113807E+02 0.11331431476E+02
 0.94296485329E+01 0.83442748113E+01 0.77990522121E+01 0.74680936744E+01 0.71728615711E+01
 0.70334596346E+01 0.71728615711E+01 0.74680936744E+01 0.77990522121E+01 0.83442748113E+01
 0.94296485329E+01 0.11331431476E+02 0.14471113807E+02 0.19352355789E+02 0.29829119199E+02
 0.62860373634E+02 0.13330671730E+03 0.24409388955E+03 0.38278387636E+03 0.52222427430E+03
 0.62695406716E+03 0.49191935912E+03 0.46224051020E+03 0.38278387636E+03 0.27758491223E+03
 0.17433742169E+03 0.94100029178E+02 0.45653729133E+02 0.24808301178E+02 0.17909919479E+02
 0.13716317765E+02 0.11087067090E+02 0.95091764546E+01 0.85945897961E+01 0.81056821542E+01
 0.77990522121E+01 0.75477602307E+01 0.74355344744E+01 0.75477602307E+01 0.77990522121E+01
 0.81056821542E+01 0.85945897961E+01 0.95091764546E+01 0.11087067090E+02 0.13716317765E+02
 0.17909919479E+02 0.24808301178E+02 0.45653729133E+02 0.94100029178E+02 0.17433742169E+03
 0.27758491223E+03 0.38278387636E+03 0.46224051020E+03 0.31754996142E+03 0.29749578680E+03
 0.24409388955E+03 0.17433742169E+03 0.10773053028E+03 0.58571013230E+02 0.31473263089E+02
 0.21033575192E+02 0.16244764574E+02 0.12928057672E+02 0.10901981357E+02 0.96984651985E+01
 0.89918382338E+01 0.85945897961E+01 0.83442748113E+01 0.81586093564E+01 0.80809806162E+01
 0.81586093564E+01 0.83442748113E+01 0.85945897961E+01 0.89918382338E+01 0.96984651985E+01
 0.10901981357E+02 0.12928057672E+02 0.16244764574E+02 0.21033575192E+02 0.31473263089E+02
 0.58571013230E+02 0.10773053028E+03 0.17433742169E+03 0.24409388955E+03 0.29749578680E+03
 0.17588956667E+03 0.16416350696E+03 0.13330671730E+03 0.94100029178E+02 0.58571013230E+02
 0.34655165155E+02 0.23169036307E+02 0.18219909031E+02 0.14642406847E+02 0.12280393713E+02
 0.10892250074E+02 0.10112398463E+02 0.96984651985E+01 0.95091764546E+01 0.94296485329E+01
 0.93858285147E+01 0.93679936110E+01 0.93858285147E+01 0.94296485329E+01 0.95091764546E+01
 0.96984651985E+01 0.10112398463E+02 0.10892250074E+02 0.12280393713E+02 0.14642406847E+02
 0.18219909031E+02 0.23169036307E+02 0.34655165155E+02 0.58571013230E+02 0.94100029178E+02
 0.13330671730E+03 0.16416350696E+03 0.82694235482E+02 0.77139259768E+02 0.62860373634E+02
 0.45653729133E+02 0.31473263089E+02 0.23169036307E+02 0.18957183987E+02 0.15702602660E+02
 0.13352206234E+02 0.11916600044E+02 0.11175946870E+02 0.10892250074E+02 0.10901981357E+02
 0.11087067090E+02 0.11331431476E+02 0.11526477344E+02 0.11599557490E+02 0.11526477344E+02
 0.11331431476E+02 0.11087067090E+02 0.10901981357E+02 0.10892250074E+02 0.11175946870E+02
 0.11916600044E+02 0.13352206234E+02 0.15702602660E+02 0.18957183987E+02 0.23169036307E+02
 0.31473263089E+02 0.45653729133E+02 0.62860373634E+02 0.77139259768E+02 0.36226994690E+02
 0.34378904437E+02 0.29829119199E+02 0.24808301178E+02 0.21033575192E+02 0.18219909031E+02
 0.15702602660E+02 0.13764892752E+02 0.12533255396E+02 0.11958616820E+02 0.11916600044E+02
 0.12280393713E+02 0.12928057672E+02 0.13716317765E+02 0.14471113807E+02 0.15014545699E+02
 0.15212331090E+02 0.15014545699E+02 0.14471113807E+02 0.13716317765E+02 0.12928057672E+02
 0.12280393713E+02 0.11916600044E+02 0.11958616820E+02 0.12533255396E+02 0.13764892752E+02
 0.15702602660E+02 0.18219909031E+02 0.21033575192E+02 0.24808301178E+02 0.29829119199E+02
 0.34378904437E+02 0.20768556749E+02 0.20374419200E+02 0.19352355789E+02 0.17909919479E+02
 0.16244764574E+02 0.14642406847E+02 0.13352206234E+02 0.12533255396E+02 0.12254922884E+02
 0.12533255396E+02 0.13352206234E+02 0.14642406847E+02 0.16244764574E+02 0.17909919479E+02
 0.19352355789E+02 0.20374419200E+02 0.20768556749E+02 0.20374419200E+02 0.19352355789E+02
 0.17909919479E+02 0.16244764574E+02 0.14642406847E+02 0.13352206234E+02 0.12533255396E+02
 0.12254922884E+02 0.12533255396E+02 0.13352206234E+02 0.14642406847E+02 0.16244764574E+02
 0.17909919479E+02 0.19352355789E+02 0.20374419200E+02 0.15212331090E+02 0.15014545699E+02
 0.14471113807E+02 0.13716317765E+02 0.12928057672E+02 0.12280393713E+02 0.11916600044E+02
 0.11958616820E+02 0.12533255396E+02 0.13764892752E+02 0.15702602660E+02 0.18219909031E+02
 0.21033575192E+02 0.24808301178E+02 0.29829119199E+02 0.34378904437E+02 0.36226994690E+02
 0.34378904437E+02 0.29829119199E+02 0.24808301178E+02 0.21033575192E+02 0.18219909031E+02
 0.15702602660E+02 0.13764892752E+02 0.12533255396E+02 0.11958616820E+02 0.11916600044E+02
 0.12280393713E+02 0.12928057672E+02 0.13716317765E+02 0.14471113807E+02 0.15014545699E+02
 0.11599557490E+02 0.11526477344E+02 0.11331431476E+02 0.11087067090E+02 0.10901981357E+02
 0.10892250074E+02 0.11175946870E+02 0.11916600044E+02 0.13352206234E+02 0.15702602660E+02
 0.18957183987E+02 0.23169036307E+02 0.31473263089E+02 0.45653729133E+02 0.62860373634E+02
 0.77139259768E+02 0.82694235482E+02 0.77139259768E+02 0.62860373634E+02 0.45653729133E+02
 0.31473263089E+02 0.23169036307E+02 0.18957183987E+02 0.15702602660E+02 0.13352206234E+02
 0.11916600044E+02 0.11175946870E+02 0.10892250074E+02 0.10901981357E+02 0.11087067090E+02
 0.11331431476E+02 0.11526477344E+02 0.93679936110E+01 0.93858285147E+01 0.94296485329E+01
 0.95091764546E+01 0.96984651985E+01 0.10112398463E+02 0.10892250074E+02 0.12280393713E+02
 0.14642406847E+02 0.18219909031E+02 0.23169036307E+02 0.34655165155E+02 0.58571013230E+02
 0.94100029178E+02 0.13330671730E+03 0.16416350696E+03 0.17588956667E+03 0.16416350696E+03
 0.13330671730E+03 0.94100029178E+02 0.58571013230E+02 0.34655165155E+02 0.23169036307E+02
 0.18219909031E+02 0.14642406847E+02 0.12280393713E+02 0.10892250074E+02 0.10112398463E+02
 0.96984651985E+01 0.95091764546E+01 0.94296485329E+01 0.93858285147E+01 0.80809806162E+01
 0.81586093564E+01 0.83442748113E+01 0.85945897961E+01 0.89918382338E+01 0.96984651985E+01
 0.10901981357E+02 0.12928057672E+02 0.16244764574E+02 0.21033575192E+02 0.31473263089E+02
 0.58571013230E+02 0.10773053028E+03 0.17433742169E+03 0.24409388955E+03 0.29749578680E+03
 0.31754996142E+03 0.29749578680E+03 0.24409388955E+03 0.17433742169E+03 0.10773053028E+03
 0.58571013230E+02 0.31473263089E+02 0.21033575192E+02 0.16244764574E+02 0.12928057672E+02
 0.10901981357E+02 0.96984651985E+01 0.89918382338E+01 0.85945897961E+01 0.83442748113E+01
 0.81586093564E+01 0.74355344744E+01 0.75477602307E+01 0.77990522121E+01 0.81056821542E+01
 0.85945897961E+01 0.95091764546E+01 0.11087067090E+02 0.13716317765E+02 0.17909919479E+02
 0.24808301178E+02 0.45653729133E+02 0.94100029178E+02 0.17433742169E+03 0.27758491223E+03
 0.38278387636E+03 0.46224051020E+03 0.49191935912E+03 0.46224051020E+03 0.38278387636E+03
 0.27758491223E+03 0.17433742169E+03 0.94100029178E+02 0.45653729133E+02 0.24808301178E+02
 0.17909919479E+02 0.13716317765E+02 0.11087067090E+02 0.95091764546E+01 0.85945897961E+01
 0.81056821542E+01 0.77990522121E+01 0.75477602307E+01 0.70334596346E+01 0.71728615711E+01
 0.74680936744E+01 0.77990522121E+01 0.83442748113E+01 0.94296485329E+01 0.11331431476E+02
 0.14471113807E+02 0.19352355789E+02 0.29829119199E+02 0.62860373634E+02 0.13330671730E+03
 0.24409388955E+03 0.38278387636E+03 0.52222427430E+03 0.62695406716E+03 0.66600031341E+03
 0.62695406716E+03 0.52222427430E+03 0.38278387636E+03 0.24409388955E+03 0.13330671730E+03
 0.62860373634E+02 0.29829119199E+02 0.19352355789E+02 0.14471113807E+02 0.11331431476E+02
 0.94296485329E+01 0.83442748113E+01 0.77990522121E+01 0.74680936744E+01 0.71728615711E+01
 0.66566421933E+01 0.68242906145E+01 0.71728615711E+01 0.75477602307E+01 0.81586093564E+01
 0.93858285147E+01 0.11526477344E+02 0.15014545699E+02 0.20374419200E+02 0.34378904437E+02
 0.77139259768E+02 0.16416350696E+03 0.29749578680E+03 0.46224051020E+03 0.62695406716E+03
 0.75044389602E+03 0.79646873620E+03 0.75044389602E+03 0.62695406716E+03 0.46224051020E+03
 0.29749578680E+03 0.16416350696E+03 0.77139259768E+02 0.34378904437E+02 0.20374419200E+02
 0.15014545699E+02 0.11526477344E+02 0.93858285147E+01 0.81586093564E+01 0.75477602307E+01
 0.71728615711E+01 0.68242906145E+01 0.64752955593E+01 0.66566421933E+01 0.70334596346E+01
 0.74355344744E+01 0.80809806162E+01 0.93679936110E+01 0.11599557490E+02 0.15212331090E+02
 0.20768556749E+02 0.36226994690E+02 0.82694235482E+02 0.17588956667E+03 0.31754996142E+03
 0.49191935912E+03 0.66600031341E+03 0.79646873620E+03 0.84509515798E+03 0.79646873620E+03
 0.66600031341E+03 0.49191935912E+03 0.31754996142E+03 0.17588956667E+03 0.82694235482E+02
 0.36226994690E+02 0.20768556749E+02 0.15212331090E+02 0.11599557490E+02 0.93679936110E+01
 0.80809806162E+01 0.74355344744E+01 0.70334596346E+01 0.66566421933E+01 0.66566421933E+01
 0.68242906145E+01 0.71728615711E+01 0.75477602307E+01 0.81586093564E+01 0.93858285147E+01
 0.11526477344E+02 0.15014545699E+02 0.20374419200E+02 0.34378904437E+02 0.77139259768E+02
 0.16416350696E+03 0.29749578680E+03 0.46224051020E+03 0.62695406716E+03 0.75044389602E+03
 0.79646873620E+03 0.75044389602E+03 0.62695406716E+03 0.46224051020E+03 0.29749578680E+03
 0.16416350696E+03 0.77139259768E+02 0.34378904437E+02 0.20374419200E+02 0.15014545699E+02
 0.11526477344E+02 0.93858285147E+01 0.81586093564E+01 0.75477602307E+01 0.71728615711E+01
 0.68242906145E+01 0.70334596346E+01 0.71728615711E+01 0.74680936744E+01 0.77990522121E+01
 0.83442748113E+01 0.94296485329E+01 0.11331431476E+02 0.14471113807E+02 0.19352355789E+02
 0.29829119199E+02 0.62860373634E+02 0.13330671730E+03 0.24409388955E+03 0.38278387636E+03
 0.52222427430E+03 0.62695406716E+03 0.66600031341E+03 0.62695406716E+03 0.52222427430E+03
 0.38278387636E+03 0.24409388955E+03 0.13330671730E+03 0.62860373634E+02 0.29829119199E+02
 0.19352355789E+02 0.14471113807E+02 0.11331431476E+02 0.94296485329E+01 0.83442748113E+01
 0.77990522121E+01 0.74680936744E+01 0.71728615711E+01 0.74355344744E+01 0.75477602307E+01
 0.77990522121E+01 0.81056821542E+01 0.85945897961E+01 0.95091764546E+01 0.11087067090E+02
 0.13716317765E+02 0.17909919479E+02 0.24808301178E+02 0.45653729133E+02 0.94100029178E+02
 0.17433742169E+03 0.27758491223E+03 0.38278387636E+03 0.46224051020E+03 0.49191935912E+03
 0.46224051020E+03 0.38278387636E+03 0.27758491223E+03 0.17433742169E+03 0.94100029178E+02
 0.45653729133E+02 0.24808301178E+02 0.17909919479E+02 0.13716317765E+02 0.11087067090E+02
 0.95091764546E+01 0.85945897961E+01 0.81056821542E+01 0.77990522121E+01 0.75477602307E+01
 0.80809806162E+01 0.81586093564E+01 0.83442748113E+01 0.85945897961E+01 0.89918382338E+01
 0.96984651985E+01 0.10901981357E+02 0.12928057672E+02 0.16244764574E+02 0.21033575192E+02
 0.31473263089E+02 0.58571013230E+02 0.10773053028E+03 0.17433742169E+03 0.24409388955E+03
 0.29749578680E+03 0.31754996142E+03 0.29749578680E+03 0.24409388955E+03 0.17433742169E+03
 0.10773053028E+03 0.58571013230E+02 0.31473263089E+02 0.21033575192E+02 0.16244764574E+02
 0.12928057672E+02 0.10901981357E+02 0.96984651985E+01 0.89918382338E+01 0.85945897961E+01
 0.83442748113E+01 0.81586093564E+01 0.93679936110E+01 0.93858285147E+01 0.94296485329E+01
 0.95091764546E+01 0.96984651985E+01 0.10112398463E+02 0.10892250074E+02 0.12280393713E+02
 0.14642406847E+02 0.18219909031E+02 0.23169036307E+02 0.34655165155E+02 0.58571013230E+02
 0.94100029178E+02 0.13330671730E+03 0.16416350696E+03 0.17588956667E+03 0.16416350696E+03
 0.13330671730E+03 0.94100029178E+02 0.58571013230E+02 0.34655165155E+02 0.23169036307E+02
 0.18219909031E+02 0.14642406847E+02 0.12280393713E+02 0.10892250074E+02 0.10112398463E+02
 0.96984651985E+01 0.95091764546E+01 0.94296485329E+01 0.93858285147E+01 0.11599557490E+02
 0.11526477344E+02 0.11331431476E+02 0.11087067090E+02 0.10901981357E+02 0.10892250074E+02
 0.11175946870E+02 0.11916600044E+02 0.13352206234E+02 0.15702602660E+02 0.18957183987E+02
 0.23169036307E+02 0.31473263089E+02 0.45653729133E+02 0.62860373634E+02 0.77139259768E+02
 0.82694235482E+02 0.77139259768E+02 0.62860373634E+02 0.45653729133E+02 0.31473263089E+02
 0.23169036307E+02 0.18957183987E+02 0.15702602660E+02 0.13352206234E+02 0.11916600044E+02
 0.11175946870E+02 0.10892250074E+02 0.10901981357E+02 0.11087067090E+02 0.11331431476E+02
 0.11526477344E+02 0.15212331090E+02 0.15014545699E+02 0.14471113807E+02 0.13716317765E+02
 0.12928057672E+02 0.12280393713E+02 0.11916600044E+02 0.11958616820E+02 0.12533255396E+02
 0.13764892752E+02 0.15702602660E+02 0.18219909031E+02 0.21033575192E+02 0.24808301178E+02
 0.29829119199E+02 0.34378904437E+02 0.36226994690E+02 0.34378904437E+02 0.29829119199E+02
 0.24808301178E+02 0.21033575192E+02 0.18219909031E+02 0.15702602660E+02 0.13764892752E+02
 0.12533255396E+02 0.11958616820E+02 0.11916600044E+02 0.12280393713E+02 0.12928057672E+02
 0.13716317765E+02 0.14471113807E+02 0.15014545699E+02 0.20768556749E+02 0.20374419200E+02
 0.19352355789E+02 0.17909919479E+02 0.16244764574E+02 0.14642406847E+02 0.13352206234E+02
 0.12533255396E+02 0.12254922884E+02 0.12533255396E+02 0.13352206234E+02 0.14642406847E+02
 0.16244764574E+02 0.17909919479E+02 0.19352355789E+02 0.20374419200E+02 0.20768556749E+02
 0.20374419200E+02 0.19352355789E+02 0.17909919479E+02 0.16244764574E+02 0.14642406847E+02
 0.13352206234E+02 0.12533255396E+02 0.12254922884E+02 0.12533255396E+02 0.13352206234E+02
 0.14642406847E+02 0.16244764574E+02 0.17909919479E+02 0.19352355789E+02 0.20374419200E+02
 0.36226994690E+02 0.34378904437E+02 0.29829119199E+02 0.24808301178E+02 0.21033575192E+02
 0.18219909031E+02 0.15702602660E+02 0.13764892752E+02 0.12533255396E+02 0.11958616820E+02
 0.11916600044E+02 0.12280393713E+02 0.12928057672E+02 0.13716317765E+02 0.14471113807E+02
 0.15014545699E+02 0.15212331090E+02 0.15014545699E+02 0.14471113807E+02 0.13716317765E+02
 0.12928057672E+02 0.12280393713E+02 0.11916600044E+02 0.11958616820E+02 0.12533255396E+02
 0.13764892752E+02 0.15702602660E+02 0.18219909031E+02 0.21033575192E+02 0.24808301178E+02
 0.29829119199E+02 0.34378904437E+02 0.82694235482E+02 0.77139259768E+02 0.62860373634E+02
 0.45653729133E+02 0.31473263089E+02 0.23169036307E+02 0.18957183987E+02 0.15702602660E+02
 0.13352206234E+02 0.11916600044E+02 0.11175946870E+02 0.10892250074E+02 0.10901981357E+02
 0.11087067090E+02 0.11331431476E+02 0.11526477344E+02 0.11599557490E+02 0.11526477344E+02
 0.11331431476E+02 0.11087067090E+02 0.10901981357E+02 0.10892250074E+02 0.11175946870E+02
 0.11916600044E+02 0.13352206234E+02 0.15702602660E+02 0.18957183987E+02 0.23169036307E+02
 0.31473263089E+02 0.45653729133E+02 0.62860373634E+02 0.77139259768E+02 0.17588956667E+03
 0.16416350696E+03 0.13330671730E+03 0.94100029178E+02 0.58571013230E+02 0.34655165155E+02
 0.23169036307E+02 0.18219909031E+02 0.14642406847E+02 0.12280393713E+02 0.10892250074E+02
 0.10112398463E+02 0.96984651985E+01 0.95091764546E+01 0.94296485329E+01 0.93858285147E+01
 0.93679936110E+01 0.93858285147E+01 0.94296485329E+01 0.95091764546E+01 0.96984651985E+01
 0.10112398463E+02 0.10892250074E+02 0.12280393713E+02 0.14642406847E+02 0.18219909031E+02
 0.23169036307E+02 0.34655165155E+02 0.58571013230E+02 0.94100029178E+02 0.13330671730E+03
 0.16416350696E+03 0.31754996142E+03 0.29749578680E+03 0.24409388955E+03 0.17433742169E+03
 0.10773053028E+03 0.58571013230E+02 0.31473263089E+02 0.21033575192E+02 0.16244764574E+02
 0.12928057672E+02 0.10901981357E+02 0.96984651985E+01 0.89918382338E+01 0.85945897961E+01
 0.83442748113E+01 0.81586093564E+01 0.80809806162E+01 0.81586093564E+01 0.83442748113E+01
 0.85945897961E+01 0.89918382338E+01 0.96984651985E+01 0.10901981357E+02 0.12928057672E+02
 0.16244764574E+02 0.21033575192E+02 0.31473263089E+02 0.58571013230E+02 0.10773053028E+03
 0.17433742169E+03 0.24409388955E+03 0.29749578680E+03 0.49191935912E+03 0.46224051020E+03
 0.38278387636E+03 0.27758491223E+03 0.17433742169E+03 0.94100029178E+02 0.45653729133E+02
 0.24808301178E+02 0.17909919479E+02 0.13716317765E+02 0.11087067090E+02 0.95091764546E+01
 0.85945897961E+01 0.81056821542E+01 0.77990522121E+01 0.75477602307E+01 0.74355344744E+01
 0.75477602307E+01 0.77990522121E+01 0.81056821542E+01 0.85945897961E+01 0.95091764546E+01
 0.11087067090E+02 0.13716317765E+02 0.17909919479E+02 0.24808301178E+02 0.45653729133E+02
 0.94100029178E+02 0.17433742169E+03 0.27758491223E+03 0.38278387636E+03 0.46224051020E+03
 0.66600031341E+03 0.62695406716E+03 0.52222427430E+03 0.38278387636E+03 0.24409388955E+03
 0.13330671730E+03 0.62860373634E+02 0.29829119199E+02 0.19352355789E+02 0.14471113807E+02
 0.11331431476E+02 0.94296485329E+01 0.83442748113E+01 0.77990522121E+01 0.74680936744E+01
 0.71728615711E+01 0.70334596346E+01 0.71728615711E+01 0.74680936744E+01 0.77990522121E+01
 0.83442748113E+01 0.94296485329E+01 0.11331431476E+02 0.14471113807E+02 0.19352355789E+02
 0.29829119199E+02 0.62860373634E+02 0.13330671730E+03 0.24409388955E+03 0.38278387636E+03
 0.52222427430E+03 0.62695406716E+03 0.79646873620E+03 0.75044389602E+03 0.62695406716E+03
 0.46224051020E+03 0.29749578680E+03 0.16416350696E+03 0.77139259768E+02 0.34378904437E+02
 0.20374419200E+02 0.15014545699E+02 0.11526477344E+02 0.93858285147E+01 0.81586093564E+01
 0.75477602307E+01 0.71728615711E+01 0.68242906145E+01 0.66566421933E+01 0.68242906145E+01
 0.71728615711E+01 0.75477602307E+01 0.81586093564E+01 0.93858285147E+01 0.11526477344E+02
 0.15014545699E+02 0.20374419200E+02 0.34378904437E+02 0.77139259768E+02 0.16416350696E+03
 0.29749578680E+03 0.46224051020E+03 0.62695406716E+03 0.75044389602E+03 0.79646873620E+03
 0.75044389602E+03 0.62695406716E+03 0.46224051020E+03 0.29749578680E+03 0.16416350696E+03
 0.77139259768E+02 0.34378904437E+02 0.20374419200E+02 0.15014545699E+02 0.11526477344E+02
 0.93858285147E+01 0.81586093564E+01 0.75477602307E+01 0.71728615711E+01 0.68242906145E+01
 0.66566421933E+01 0.68242906145E+01 0.71728615711E+01 0.75477602307E+01 0.81586093564E+01
 0.93858285147E+01 0.11526477344E+02 0.15014545699E+02 0.20374419200E+02 0.34378904437E+02
 0.77139259768E+02 0.16416350696E+03 0.29749578680E+03 0.46224051020E+03 0.62695406716E+03
 0.75044389602E+03 0.75044389602E+03 0.70688221897E+03 0.59000651951E+03 0.43418634545E+03
 0.27859298416E+03 0.15317722046E+03 0.71994826064E+02 0.32702416375E+02 0.20007260186E+02
 0.14821432721E+02 0.11454423871E+02 0.94006723226E+01 0.82299119642E+01 0.76512950505E+01
 0.73015195661E+01 0.69791791742E+01 0.68242906145E+01 0.69791791742E+01 0.73015195661E+01
 0.76512950505E+01 0.82299119642E+01 0.94006723226E+01 0.11454423871E+02 0.14821432721E+02
 0.20007260186E+02 0.32702416375E+02 0.71994826064E+02 0.15317722046E+03 0.27859298416E+03
 0.43418634545E+03 0.59000651951E+03 0.70688221897E+03 0.62695406716E+03 0.59000651951E+03
 0.49092757999E+03 0.35911801286E+03 0.22830443279E+03 0.12431203824E+03 0.58804447945E+02
 0.28587991048E+02 0.19032123289E+02 0.14291771475E+02 0.11262960210E+02 0.94379750048E+01
 0.84015362862E+01 0.78840560027E+01 0.75745649445E+01 0.73015195661E+01 0.71728615711E+01
 0.73015195661E+01 0.75745649445E+01 0.78840560027E+01 0.84015362862E+01 0.94379750048E+01
 0.11262960210E+02 0.14291771475E+02 0.19032123289E+02 0.28587991048E+02 0.58804447945E+02
 0.12431203824E+03 0.22830443279E+03 0.35911801286E+03 0.49092757999E+03 0.59000651951E+03
 0.46224051020E+03 0.43418634545E+03 0.35911801286E+03 0.25986931202E+03 0.16276515500E+03
 0.87767562489E+02 0.42998489650E+02 0.24066715023E+02 0.17620870269E+02 0.13558306778E+02
 0.11024550678E+02 0.95104477831E+01 0.86364933381E+01 0.81717176860E+01 0.78840560027E+01
 0.76512950505E+01 0.75477602307E+01 0.76512950505E+01 0.78840560027E+01 0.81717176860E+01
 0.86364933381E+01 0.95104477831E+01 0.11024550678E+02 0.13558306778E+02 0.17620870269E+02
 0.24066715023E+02 0.42998489650E+02 0.87767562489E+02 0.16276515500E+03 0.25986931202E+03
 0.35911801286E+03 0.43418634545E+03 0.29749578680E+03 0.27859298416E+03 0.22830443279E+03
 0.16276515500E+03 0.10046846527E+03 0.54873191170E+02 0.30095352577E+02 0.20630520735E+02
 0.15999118115E+02 0.12794995917E+02 0.10844805874E+02 0.96900417271E+01 0.90144085333E+01
 0.86364933381E+01 0.84015362862E+01 0.82299119642E+01 0.81586093564E+01 0.82299119642E+01
 0.84015362862E+01 0.86364933381E+01 0.90144085333E+01 0.96900417271E+01 0.10844805874E+02
 0.12794995917E+02 0.15999118115E+02 0.20630520735E+02 0.30095352577E+02 0.54873191170E+02
 0.10046846527E+03 0.16276515500E+03 0.22830443279E+03 0.27859298416E+03 0.16416350696E+03
 0.15317722046E+03 0.12431203824E+03 0.87767562489E+02 0.54873191170E+02 0.32983941476E+02
 0.22602444318E+02 0.17909840651E+02 0.14446123955E+02 0.12169949676E+02 0.10834923229E+02
 0.10086253216E+02 0.96900417271E+01 0.95104477831E+01 0.94379750048E+01 0.94006723226E+01
 0.93858285147E+01 0.94006723226E+01 0.94379750048E+01 0.95104477831E+01 0.96900417271E+01
 0.10086253216E+02 0.10834923229E+02 0.12169949676E+02 0.14446123955E+02 0.17909840651E+02
 0.22602444318E+02 0.32983941476E+02 0.54873191170E+02 0.87767562489E+02 0.12431203824E+03
 0.15317722046E+03 0.77139259768E+02 0.71994826064E+02 0.58804447945E+02 0.42998489650E+02
 0.30095352577E+02 0.22602444318E+02 0.18624289205E+02 0.15467521326E+02 0.13200867496E+02
 0.11819948102E+02 0.11107744188E+02 0.10834923229E+02 0.10844805874E+02 0.11024550678E+02
 0.11262960210E+02 0.11454423871E+02 0.11526477344E+02 0.11454423871E+02 0.11262960210E+02
 0.11024550678E+02 0.10844805874E+02 0.10834923229E+02 0.11107744188E+02 0.11819948102E+02
 0.13200867496E+02 0.15467521326E+02 0.18624289205E+02 0.22602444318E+02 0.30095352577E+02
 0.42998489650E+02 0.58804447945E+02 0.71994826064E+02 0.34378904437E+02 0.32702416375E+02
 0.28587991048E+02 0.24066715023E+02 0.20630520735E+02 0.17909840651E+02 0.15467521326E+02
 0.13597578335E+02 0.12412848610E+02 0.11860620031E+02 0.11819948102E+02 0.12169949676E+02
 0.12794995917E+02 0.13558306778E+02 0.14291771475E+02 0.14821432721E+02 0.15014545699E+02
 0.14821432721E+02 0.14291771475E+02 0.13558306778E+02 0.12794995917E+02 0.12169949676E+02
 0.11819948102E+02 0.11860620031E+02 0.12412848610E+02 0.13597578335E+02 0.15467521326E+02
 0.17909840651E+02 0.20630520735E+02 0.24066715023E+02 0.28587991048E+02 0.32702416375E+02
 0.20374419200E+02 0.20007260186E+02 0.19032123289E+02 0.17620870269E+02 0.15999118115E+02
 0.14446123955E+02 0.13200867496E+02 0.12412848610E+02 0.12145462636E+02 0.12412848610E+02
 0.13200867496E+02 0.14446123955E+02 0.15999118115E+02 0.17620870269E+02 0.19032123289E+02
 0.20007260186E+02 0.20374419200E+02 0.20007260186E+02 0.19032123289E+02 0.17620870269E+02
 0.15999118115E+02 0.14446123955E+02 0.13200867496E+02 0.12412848610E+02 0.12145462636E+02
 0.12412848610E+02 0.13200867496E+02 0.14446123955E+02 0.15999118115E+02 0.17620870269E+02
 0.19032123289E+02 0.20007260186E+02 0.15014545699E+02 0.14821432721E+02 0.14291771475E+02
 0.13558306778E+02 0.12794995917E+02 0.12169949676E+02 0.11819948102E+02 0.11860620031E+02
 0.12412848610E+02 0.13597578335E+02 0.15467521326E+02 0.17909840651E+02 0.20630520735E+02
 0.24066715023E+02 0.28587991048E+02 0.32702416375E+02 0.34378904437E+02 0.32702416375E+02
 0.28587991048E+02 0.24066715023E+02 0.20630520735E+02 0.17909840651E+02 0.15467521326E+02
 0.13597578335E+02 0.12412848610E+02 0.11860620031E+02 0.11819948102E+02 0.12169949676E+02
 0.12794995917E+02 0.13558306778E+02 0.14291771475E+02 0.14821432721E+02 0.11526477344E+02
 0.11454423871E+02 0.11262960210E+02 0.11024550678E+02 0.10844805874E+02 0.10834923229E+02
 0.11107744188E+02 0.11819948102E+02 0.13200867496E+02 0.15467521326E+02 0.18624289205E+02
 0.22602444318E+02 0.30095352577E+02 0.42998489650E+02 0.58804447945E+02 0.71994826064E+02
 0.77139259768E+02 0.71994826064E+02 0.58804447945E+02 0.42998489650E+02 0.30095352577E+02
 0.22602444318E+02 0.18624289205E+02 0.15467521326E+02 0.13200867496E+02 0.11819948102E+02
 0.11107744188E+02 0.10834923229E+02 0.10844805874E+02 0.11024550678E+02 0.11262960210E+02
 0.11454423871E+02 0.93858285147E+01 0.94006723226E+01 0.94379750048E+01 0.95104477831E+01
 0.96900417271E+01 0.10086253216E+02 0.10834923229E+02 0.12169949676E+02 0.14446123955E+02
 0.17909840651E+02 0.22602444318E+02 0.32983941476E+02 0.54873191170E+02 0.87767562489E+02
 0.12431203824E+03 0.15317722046E+03 0.16416350696E+03 0.15317722046E+03 0.12431203824E+03
 0.87767562489E+02 0.54873191170E+02 0.32983941476E+02 0.22602444318E+02 0.17909840651E+02
 0.14446123955E+02 0.12169949676E+02 0.10834923229E+02 0.10086253216E+02 0.96900417271E+01
 0.95104477831E+01 0.94379750048E+01 0.94006723226E+01 0.81586093564E+01 0.82299119642E+01
 0.84015362862E+01 0.86364933381E+01 0.90144085333E+01 0.96900417271E+01 0.10844805874E+02
 0.12794995917E+02 0.15999118115E+02 0.20630520735E+02 0.30095352577E+02 0.54873191170E+02
 0.10046846527E+03 0.16276515500E+03 0.22830443279E+03 0.27859298416E+03 0.29749578680E+03
 0.27859298416E+03 0.22830443279E+03 0.16276515500E+03 0.10046846527E+03 0.54873191170E+02
 0.30095352577E+02 0.20630520735E+02 0.15999118115E+02 0.12794995917E+02 0.10844805874E+02
 0.96900417271E+01 0.90144085333E+01 0.86364933381E+01 0.84015362862E+01 0.82299119642E+01
 0.75477602307E+01 0.76512950505E+01 0.78840560027E+01 0.81717176860E+01 0.86364933381E+01
 0.95104477831E+01 0.11024550678E+02 0.13558306778E+02 0.17620870269E+02 0.24066715023E+02
 0.42998489650E+02 0.87767562489E+02 0.16276515500E+03 0.25986931202E+03 0.35911801286E+03
 0.43418634545E+03 0.46224051020E+03 0.43418634545E+03 0.35911801286E+03 0.25986931202E+03
 0.16276515500E+03 0.87767562489E+02 0.42998489650E+02 0.24066715023E+02 0.17620870269E+02
 0.13558306778E+02 0.11024550678E+02 0.95104477831E+01 0.86364933381E+01 0.81717176860E+01
 0.78840560027E+01 0.76512950505E+01 0.71728615711E+01 0.73015195661E+01 0.75745649445E+01
 0.78840560027E+01 0.84015362862E+01 0.94379750048E+01 0.11262960210E+02 0.14291771475E+02
 0.19032123289E+02 0.28587991048E+02 0.58804447945E+02 0.12431203824E+03 0.22830443279E+03
 0.35911801286E+03 0.49092757999E+03 0.59000651951E+03 0.62695406716E+03 0.59000651951E+03
 0.49092757999E+03 0.35911801286E+03 0.22830443279E+03 0.12431203824E+03 0.58804447945E+02
 0.28587991048E+02 0.19032123289E+02 0.14291771475E+02 0.11262960210E+02 0.94379750048E+01
 0.84015362862E+01 0.78840560027E+01 0.75745649445E+01 0.73015195661E+01 0.68242906145E+01
 0.69791791742E+01 0.73015195661E+01 0.76512950505E+01 0.82299119642E+01 0.94006723226E+01
 0.11454423871E+02 0.14821432721E+02 0.20007260186E+02 0.32702416375E+02 0.71994826064E+02
 0.15317722046E+03 0.27859298416E+03 0.43418634545E+03 0.59000651951E+03 0.70688221897E+03
 0.75044389602E+03 0.70688221897E+03 0.59000651951E+03 0.43418634545E+03 0.27859298416E+03
 0.15317722046E+03 0.71994826064E+02 0.32702416375E+02 0.20007260186E+02 0.14821432721E+02
 0.11454423871E+02 0.94006723226E+01 0.82299119642E+01 0.76512950505E+01 0.73015195661E+01
 0.69791791742E+01 0.66566421933E+01 0.68242906145E+01 0.71728615711E+01 0.75477602307E+01
 0.81586093564E+01 0.93858285147E+01 0.11526477344E+02 0.15014545699E+02 0.20374419200E+02
 0.34378904437E+02 0.77139259768E+02 0.16416350696E+03 0.29749578680E+03 0.46224051020E+03
 0.62695406716E+03 0.75044389602E+03 0.79646873620E+03 0.75044389602E+03 0.62695406716E+03
 0.46224051020E+03 0.29749578680E+03 0.16416350696E+03 0.77139259768E+02 0.34378904437E+02
 0.20374419200E+02 0.15014545699E+02 0.11526477344E+02 0.93858285147E+01 0.81586093564E+01
 0.75477602307E+01 0.71728615711E+01 0.68242906145E+01 0.68242906145E+01 0.69791791742E+01
 0.73015195661E+01 0.76512950505E+01 0.82299119642E+01 0.94006723226E+01 0.11454423871E+02
 0.14821432721E+02 0.20007260186E+02 0.32702416375E+02 0.71994826064E+02 0.15317722046E+03
 0.27859298416E+03 0.43418634545E+03 0.59000651951E+03 0.70688221897E+03 0.75044389602E+03
 0.70688221897E+03 0.59000651951E+03 0.43418634545E+03 0.27859298416E+03 0.15317722046E+03
 0.71994826064E+02 0.32702416375E+02 0.20007260186E+02 0.14821432721E+02 0.11454423871E+02
 0.94006723226E+01 0.82299119642E+01 0.76512950505E+01 0.73015195661E+01 0.69791791742E+01
 0.71728615711E+01 0.73015195661E+01 0.75745649445E+01 0.78840560027E+01 0.84015362862E+01
 0.94379750048E+01 0.11262960210E+02 0.14291771475E+02 0.19032123289E+02 0.28587991048E+02
 0.58804447945E+02 0.12431203824E+03 0.22830443279E+03 0.35911801286E+03 0.49092757999E+03
 0.59000651951E+03 0.62695406716E+03 0.59000651951E+03 0.49092757999E+03 0.35911801286E+03
 0.22830443279E+03 0.12431203824E+03 0.58804447945E+02 0.28587991048E+02 0.19032123289E+02