   4   4   0   0
  0.1200752E+02  0.3635000E-09  0.3635000E-09  0.3635000E-09  0.5000000E-15
  1.000000000000000E-004
  CAR 
 unknown system                          
     27.68234074     -3.84533291  301      7.24435246      1.00000000
     -3.845  0.0000E+00  0.0000E+00
     -3.740  0.0000E+00  0.0000E+00
     -3.635  0.0000E+00  0.0000E+00
     -3.530 -0.5522E-31 -0.5803E-32
     -3.425 -0.2746E-27 -0.2887E-28
     -3.320 -0.7828E-24 -0.8229E-25
     -3.215 -0.1278E-20 -0.1344E-21
     -3.110 -0.1194E-17 -0.1256E-18
     -3.005 -0.6202E-15 -0.6530E-16
     -2.900 -0.1872E-12 -0.1974E-13
     -2.794 -0.3218E-10 -0.3402E-11
     -2.689 -0.3130E-08 -0.3323E-09
     -2.584 -0.1710E-06 -0.1830E-07
     -2.479 -0.5183E-05 -0.5630E-06
     -2.374 -0.8530E-04 -0.9527E-05
     -2.269 -0.7252E-03 -0.8575E-04
     -2.164 -0.2748E-02 -0.3745E-03
     -2.059 -0.1126E-02 -0.4928E-03
     -1.954  0.2098E-01  0.1712E-02
     -1.849  0.5611E-01  0.7609E-02
     -1.743  0.5013E-01  0.1288E-01
     -1.638  0.3483E-02  0.1324E-01
     -1.533  0.3366E-01  0.1678E-01
     -1.428  0.2292E+00  0.4087E-01
     -1.323  0.3801E+00  0.8081E-01
     -1.218  0.2309E+00  0.1051E+00
     -1.113  0.4449E-01  0.1098E+00
     -1.008  0.2521E+00  0.1363E+00
     -0.903  0.6898E+00  0.2087E+00
     -0.798  0.6774E+00  0.2799E+00
     -0.693  0.2413E+00  0.3053E+00
     -0.587  0.1030E+00  0.3161E+00
     -0.482  0.3749E+00  0.3555E+00
     -0.377  0.4865E+00  0.4066E+00
     -0.272  0.2288E+00  0.4307E+00
     -0.167  0.6404E-01  0.4374E+00
     -0.062  0.2235E+00  0.4609E+00
      0.043  0.3406E+00  0.4967E+00
      0.148  0.1631E+00  0.5138E+00
      0.253  0.2253E+00  0.5375E+00
      0.358  0.9857E+00  0.6411E+00
      0.463  0.1490E+01  0.7977E+00
      0.569  0.9381E+00  0.8963E+00
      0.674  0.6426E+00  0.9638E+00
      0.779  0.1286E+01  0.1099E+01
      0.884  0.1398E+01  0.1246E+01
      0.989  0.5765E+00  0.1306E+01
      1.094 -0.1146E-01  0.1305E+01
      1.199 -0.9691E-01  0.1295E+01
      1.304 -0.7004E-01  0.1288E+01
      1.409  0.7088E-01  0.1295E+01
      1.514  0.5083E+00  0.1349E+01
      1.619  0.1210E+01  0.1476E+01
      1.725  0.1920E+01  0.1677E+01
      1.830  0.1821E+01  0.1869E+01
      1.935  0.9997E+00  0.1974E+01
      2.040  0.1118E+01  0.2091E+01
      2.145  0.2007E+01  0.2302E+01
      2.250  0.2197E+01  0.2533E+01
      2.355  0.1774E+01  0.2720E+01
      2.460  0.1476E+01  0.2875E+01
      2.565  0.2157E+01  0.3101E+01
      2.670  0.4087E+01  0.3531E+01
      2.775  0.6193E+01  0.4182E+01
      2.881  0.6710E+01  0.4887E+01
      2.986  0.5586E+01  0.5474E+01
      3.091  0.4429E+01  0.5939E+01
      3.196  0.5484E+01  0.6516E+01
      3.301  0.9173E+01  0.7480E+01
      3.406  0.1069E+02  0.8604E+01
      3.511  0.9138E+01  0.9564E+01
      3.616  0.9144E+01  0.1052E+02
      3.721  0.9230E+01  0.1149E+02
      3.826  0.7312E+01  0.1226E+02
      3.931  0.7529E+01  0.1305E+02
      4.037  0.1066E+02  0.1418E+02
      4.142  0.1323E+02  0.1557E+02
      4.247  0.1532E+02  0.1718E+02
      4.352  0.1674E+02  0.1894E+02
      4.457  0.1648E+02  0.2067E+02
      4.562  0.1526E+02  0.2227E+02
      4.667  0.1292E+02  0.2363E+02
      4.772  0.1126E+02  0.2481E+02
      4.877  0.1223E+02  0.2610E+02
      4.982  0.1416E+02  0.2759E+02
      5.088  0.1414E+02  0.2907E+02
      5.193  0.1428E+02  0.3057E+02
      5.298  0.1636E+02  0.3229E+02
      5.403  0.1485E+02  0.3385E+02
      5.508  0.1158E+02  0.3507E+02
      5.613  0.1434E+02  0.3658E+02
      5.718  0.1944E+02  0.3862E+02
      5.823  0.1773E+02  0.4048E+02
      5.928  0.1047E+02  0.4158E+02
      6.033  0.5168E+01  0.4213E+02
      6.138  0.3136E+01  0.4246E+02
      6.244  0.2224E+01  0.4269E+02
      6.349  0.1369E+01  0.4283E+02
      6.454  0.4301E+00  0.4288E+02
      6.559 -0.7155E-01  0.4287E+02
      6.664 -0.5758E-01  0.4287E+02
      6.769  0.1279E+00  0.4288E+02
      6.874  0.1427E+00  0.4289E+02
      6.979  0.3104E+00  0.4293E+02
      7.084  0.2158E+01  0.4315E+02
      7.189  0.5067E+01  0.4369E+02
      7.294  0.5261E+01  0.4424E+02
      7.400  0.2487E+01  0.4450E+02
      7.505  0.2377E+00  0.4453E+02
      7.610 -0.2843E+00  0.4450E+02
      7.715  0.1921E+00  0.4452E+02
      7.820  0.1153E+01  0.4464E+02
      7.925  0.1536E+01  0.4480E+02
      8.030  0.8029E+00  0.4488E+02
      8.135  0.2891E-01  0.4489E+02
      8.240 -0.1481E+00  0.4487E+02
      8.345  0.2464E+00  0.4490E+02
      8.450  0.1113E+01  0.4501E+02
      8.556  0.1431E+01  0.4516E+02
      8.661  0.8982E+00  0.4526E+02
      8.766  0.1157E+01  0.4538E+02
      8.871  0.2215E+01  0.4561E+02
      8.976  0.2037E+01  0.4583E+02
      9.081  0.7351E+00  0.4590E+02
      9.186 -0.6812E-01  0.4590E+02
      9.291 -0.1754E+00  0.4588E+02
      9.396  0.1338E+00  0.4589E+02
      9.501  0.9029E+00  0.4599E+02
      9.606  0.1411E+01  0.4614E+02
      9.712  0.1558E+01  0.4630E+02
      9.817  0.2644E+01  0.4658E+02
      9.922  0.3511E+01  0.4695E+02
     10.027  0.2331E+01  0.4719E+02
     10.132  0.6080E+00  0.4725E+02
     10.237 -0.8493E-01  0.4725E+02
     10.342 -0.1006E+00  0.4724E+02
     10.447 -0.4242E-01  0.4723E+02
     10.552 -0.4316E-01  0.4723E+02
     10.657  0.3939E-01  0.4723E+02
     10.762  0.4074E+00  0.4727E+02
     10.868  0.7695E+00  0.4735E+02
     10.973  0.5826E+00  0.4742E+02
     11.078  0.1241E+00  0.4743E+02
     11.183 -0.1075E+00  0.4742E+02
     11.288 -0.2351E-01  0.4741E+02
     11.393  0.5835E+00  0.4748E+02
     11.498  0.1378E+01  0.4762E+02
     11.603  0.1492E+01  0.4778E+02
     11.708  0.1459E+01  0.4793E+02
     11.813  0.1882E+01  0.4813E+02
     11.919  0.2086E+01  0.4835E+02
     12.024  0.1657E+01  0.4852E+02
     12.129  0.9907E+00  0.4863E+02
     12.234  0.6166E+00  0.4869E+02
     12.339  0.7589E+00  0.4877E+02
     12.444  0.1980E+01  0.4898E+02
     12.549  0.3021E+01  0.4930E+02
     12.654  0.2025E+01  0.4951E+02
     12.759  0.8661E+00  0.4960E+02
     12.864  0.1189E+01  0.4972E+02
     12.969  0.1334E+01  0.4986E+02
     13.075  0.6151E+00  0.4993E+02
     13.180  0.2817E+00  0.4996E+02
     13.285  0.4447E+00  0.5001E+02
     13.390  0.3522E+00  0.5004E+02
     13.495  0.4339E-01  0.5005E+02
     13.600 -0.1670E+00  0.5003E+02
     13.705 -0.1329E-01  0.5003E+02
     13.810  0.1211E+01  0.5016E+02
     13.915  0.2900E+01  0.5046E+02
     14.020  0.2686E+01  0.5074E+02
     14.125  0.8941E+00  0.5084E+02
     14.231 -0.1251E+00  0.5082E+02
     14.336 -0.3472E-01  0.5082E+02
     14.441  0.6992E+00  0.5089E+02
     14.546  0.1742E+01  0.5108E+02
     14.651  0.2027E+01  0.5129E+02
     14.756  0.1186E+01  0.5141E+02
     14.861  0.6587E+00  0.5148E+02
     14.966  0.1151E+01  0.5160E+02
     15.071  0.1500E+01  0.5176E+02
     15.176  0.1549E+01  0.5192E+02
     15.281  0.1901E+01  0.5212E+02
     15.387  0.2008E+01  0.5234E+02
     15.492  0.2400E+01  0.5259E+02
     15.597  0.3081E+01  0.5291E+02
     15.702  0.2175E+01  0.5314E+02
     15.807  0.4491E+00  0.5319E+02
     15.912 -0.1842E+00  0.5317E+02
     16.017  0.3536E+00  0.5321E+02
     16.122  0.1305E+01  0.5334E+02
     16.227  0.1406E+01  0.5349E+02
     16.332  0.5960E+00  0.5355E+02
     16.437  0.3365E+00  0.5359E+02
     16.543  0.9094E+00  0.5368E+02
     16.648  0.1354E+01  0.5383E+02
     16.753  0.1500E+01  0.5398E+02
     16.858  0.1753E+01  0.5417E+02
     16.963  0.2000E+01  0.5438E+02
     17.068  0.2268E+01  0.5462E+02
     17.173  0.2348E+01  0.5486E+02
     17.278  0.1732E+01  0.5504E+02
     17.383  0.8065E+00  0.5513E+02
     17.488  0.2782E+00  0.5516E+02
     17.593  0.2819E+00  0.5519E+02
     17.699  0.9181E+00  0.5528E+02
     17.804  0.1429E+01  0.5544E+02
     17.909  0.1016E+01  0.5554E+02
     18.014  0.1029E+01  0.5565E+02
     18.119  0.2184E+01  0.5588E+02
     18.224  0.2848E+01  0.5618E+02
     18.329  0.2204E+01  0.5641E+02
     18.434  0.9523E+00  0.5651E+02
     18.539  0.3653E+00  0.5655E+02
     18.644  0.1210E+01  0.5668E+02
     18.749  0.2424E+01  0.5693E+02
     18.855  0.2460E+01  0.5719E+02
     18.960  0.1450E+01  0.5734E+02
     19.065  0.1493E+01  0.5750E+02
     19.170  0.3447E+01  0.5786E+02
     19.275  0.4260E+01  0.5831E+02
     19.380  0.2284E+01  0.5855E+02
     19.485  0.2728E+00  0.5858E+02
     19.590 -0.2094E+00  0.5856E+02
     19.695 -0.9050E-01  0.5855E+02
     19.800 -0.2096E-01  0.5854E+02
     19.906 -0.4101E-01  0.5854E+02
     20.011 -0.1076E+00  0.5853E+02
     20.116  0.5230E-01  0.5853E+02
     20.221  0.9645E+00  0.5863E+02
     20.326  0.2305E+01  0.5888E+02
     20.431  0.2692E+01  0.5916E+02
     20.536  0.1670E+01  0.5934E+02
     20.641  0.4155E+00  0.5938E+02
     20.746 -0.8437E-01  0.5937E+02
     20.851 -0.7593E-01  0.5936E+02
     20.956 -0.1791E-01  0.5936E+02
     21.062 -0.2010E-02  0.5936E+02
     21.167 -0.1189E-03  0.5936E+02
     21.272 -0.3852E-05  0.5936E+02
     21.377 -0.6951E-07  0.5936E+02
     21.482 -0.3015E-08  0.5936E+02
     21.587 -0.1970E-06  0.5936E+02
     21.692 -0.9422E-05  0.5936E+02
     21.797 -0.2491E-03  0.5936E+02
     21.902 -0.3547E-02  0.5936E+02
     22.007 -0.2558E-01  0.5936E+02
     22.112 -0.7603E-01  0.5935E+02
     22.218  0.3692E-01  0.5935E+02
     22.323  0.7110E+00  0.5943E+02
     22.428  0.1503E+01  0.5959E+02
     22.533  0.1262E+01  0.5972E+02
     22.638  0.3725E+00  0.5976E+02
     22.743 -0.5555E-01  0.5975E+02
     22.848 -0.5674E-01  0.5975E+02
     22.953 -0.1281E-01  0.5974E+02
     23.058 -0.1342E-02  0.5974E+02
     23.163 -0.7349E-04  0.5974E+02
     23.268 -0.2195E-05  0.5974E+02
     23.374 -0.3648E-07  0.5974E+02
     23.479 -0.3411E-09  0.5974E+02
     23.584 -0.1804E-11  0.5974E+02
     23.689 -0.5679E-14  0.5974E+02
     23.794  0.0000E+00  0.5974E+02
     23.899  0.0000E+00  0.5974E+02
     24.004 -0.1519E-29  0.5974E+02
     24.109 -0.7301E-26  0.5974E+02
     24.214 -0.2011E-22  0.5974E+02
     24.319 -0.3171E-19  0.5974E+02
     24.424 -0.2861E-16  0.5974E+02
     24.530 -0.1435E-13  0.5974E+02
     24.635 -0.4185E-11  0.5974E+02
     24.740 -0.6947E-09  0.5974E+02
     24.845 -0.6521E-07  0.5974E+02
     24.950 -0.3436E-05  0.5974E+02
     25.055 -0.1004E-03  0.5974E+02
     25.160 -0.1589E-02  0.5974E+02
     25.265 -0.1293E-01  0.5974E+02
     25.370 -0.4605E-01  0.5974E+02
     25.475 -0.8409E-02  0.5974E+02
     25.580  0.3733E+00  0.5978E+02
     25.686  0.9472E+00  0.5988E+02
     25.791  0.9218E+00  0.5997E+02
     25.896  0.3377E+00  0.6001E+02
     26.001 -0.1793E-01  0.6001E+02
     26.106 -0.4396E-01  0.6000E+02
     26.211 -0.1160E-01  0.6000E+02
     26.316 -0.1365E-02  0.6000E+02
     26.421 -0.8294E-04  0.6000E+02
     26.526 -0.2735E-05  0.6000E+02
     26.631 -0.5008E-07  0.6000E+02
     26.737 -0.5149E-09  0.6000E+02
     26.842 -0.2995E-11  0.6000E+02
     26.947 -0.9736E-14  0.6000E+02
     27.052  0.0000E+00  0.6000E+02
     27.157  0.0000E+00  0.6000E+02
     27.262  0.0000E+00  0.6000E+02
     27.367  0.0000E+00  0.6000E+02
     27.472  0.0000E+00  0.6000E+02
     27.577  0.0000E+00  0.6000E+02
     27.682  0.0000E+00  0.6000E+02
