    4    4    1    1
  0.1200752E+02  0.3635000E-09  0.3635000E-09  0.3635000E-09  0.5000000E-15
  1.000000000000000E-004
  CAR 
 unknown system                          
     44     10     30
 
  0.0000000E+00  0.0000000E+00  0.0000000E+00  0.8000000E-02
    1       -1.845333   1.000000
    2        2.605716   1.000000
    3        2.605716   1.000000
    4        2.605716   1.000000
    5        3.052448   1.000000
    6        3.052448   1.000000
    7        3.052448   1.000000
    8        4.410837   1.000000
    9        4.410837   1.000000
   10        4.410837   1.000000
   11        5.216240   1.000000
   12        5.216240   1.000000
   13        5.751602   1.000000
   14        5.751602   1.000000
   15        5.751602   1.000000
   16        5.904148   1.000000
   17        5.904148   1.000000
   18        5.904148   1.000000
   19        5.904148   1.000000
   20        5.904148   1.000000
   21        5.904148   1.000000
   22        8.891523  -0.000000
   23        8.891523  -0.000000
   24        8.891523  -0.000000
   25       14.382635   0.000000
   26       14.382635   0.000000
   27       14.382635   0.000000
   28       20.333543   0.000000
   29       20.333543   0.000000
   30       20.333543   0.000000
 
  0.2000000E+00  0.0000000E+00  0.0000000E+00  0.4800000E-01
    1       -1.368493   1.000000
    2        2.558310   1.000000
    3        2.816394   1.000000
    4        2.816394   1.000000
    5        3.176132   1.000000
    6        3.186937   1.000000
    7        3.186937   1.000000
    8        4.274807   1.000000
    9        4.522367   1.000000
   10        4.522367   1.000000
   11        5.094873   1.000000
   12        5.259030   1.000000
   13        5.259030   1.000000
   14        5.267576   1.000000
   15        5.593703   1.000000
   16        5.593703   1.000000
   17        5.699632   1.000000
   18        5.720478   1.000000
   19        5.720478   1.000000
   20        5.904664   1.000000
   21        5.904664   1.000000
   22        6.830836   1.006387
   23        9.968814  -0.000000
   24        9.968814  -0.000000
   25       14.567174   0.000000
   26       14.567174   0.000000
   27       17.425621   0.000000
   28       18.088225   0.000000
   29       18.088225   0.000000
   30       18.752037   0.000000
 
  0.4000000E+00  0.0000000E+00  0.0000000E+00  0.4800000E-01
    1       -0.012756   1.000000
    2        1.763407   1.000000
    3        3.239992   1.000000
    4        3.239992   1.000000
    5        3.504619   1.000000
    6        3.599891   1.000000
    7        3.599891   1.000000
    8        3.924362   1.000000
    9        4.309249   1.000000
   10        4.309249   1.000000
   11        4.830999   1.000000
   12        4.838506   1.000000
   13        4.838506   1.000000
   14        4.950948   1.000000
   15        5.251970   1.000000
   16        5.251970   1.000000
   17        5.289730   1.000000
   18        5.289730   1.000000
   19        5.398996   1.000000
   20        5.564145   1.000000
   21        5.905201   1.000000
   22        5.905201   1.000000
   23       12.192399  -0.000000
   24       12.192399  -0.000000
   25       14.966823   0.000000
   26       14.966823   0.000000
   27       15.206167   0.000000
   28       15.206167   0.000000
   29       16.636843   0.000000
   30       16.636843   0.000000
 
  0.2000000E+00  0.2000000E+00  0.0000000E+00  0.9600000E-01
    1       -0.903950   1.000000
    2        2.801046   1.000000
    3        2.801046   1.000000
    4        2.998971   1.000000
    5        3.292040   1.000000
    6        3.295535   1.000000
    7        3.295535   1.000000
    8        4.216330   1.000000
    9        4.561604   1.000000
   10        4.570726   1.000000
   11        4.933190   1.000000
   12        4.933190   1.000000
   13        4.949780   1.000000
   14        5.074600   1.000000
   15        5.286845   1.000000
   16        5.469773   1.000000
   17        5.587075   1.000000
   18        5.587075   1.000000
   19        5.718362   1.000000
   20        5.718362   1.000000
   21        5.781441   1.000000
   22        7.852020  -0.000075
   23        7.852020  -0.000075
   24       10.835262  -0.000000
   25       14.522833   0.000000
   26       14.990601   0.000000
   27       17.757055   0.000000
   28       17.757055   0.000000
   29       18.676044   0.000000
   30       18.676044   0.000000
 
  0.4000000E+00  0.2000000E+00  0.0000000E+00  0.1920000E+00
    1        0.408105   1.000000
    2        2.094824   1.000000
    3        3.322836   1.000000
    4        3.405314   1.000000
    5        3.553459   1.000000
    6        3.584171   1.000000
    7        3.659723   1.000000
    8        3.944314   1.000000
    9        4.077714   1.000000
   10        4.259081   1.000000
   11        4.462604   1.000000
   12        4.565160   1.000000
   13        4.848845   1.000000
   14        5.014477   1.000000
   15        5.197767   1.000000
   16        5.255860   1.000000
   17        5.288752   1.000000
   18        5.346131   1.000000
   19        5.532714   1.000000
   20        5.714753   1.000000
   21        5.721194   1.000000
   22        6.065727   1.000000
   23        9.552060  -0.000000
   24       11.751713  -0.000000
   25       12.872112   0.000000
   26       15.559203   0.000000
   27       15.562233   0.000000
   28       17.030384   0.000000
   29       18.842960   0.000000
   30       20.282671   0.000000
 
  0.4000000E+00  0.4000000E+00  0.0000000E+00  0.9600000E-01
    1        1.547837   1.000000
    2        2.861224   1.000000
    3        2.861224   1.000000
    4        3.376845   1.000000
    5        3.793847   1.000000
    6        3.803593   1.000000
    7        3.803593   1.000000
    8        3.928660   1.000000
    9        4.066128   1.000000
   10        4.066128   1.000000
   11        4.078006   1.000000
   12        4.396845   1.000000
   13        4.886331   1.000000
   14        4.975060   1.000000
   15        5.017063   1.000000
   16        5.068442   1.000000
   17        5.068442   1.000000
   18        5.310715   1.000000
   19        5.310715   1.000000
   20        5.438373   1.000000
   21        6.064068   1.000000
   22        7.148396   0.858793
   23        7.148396   0.858793
   24        8.903981  -0.000000
   25       14.652989   0.000000
   26       16.521736   0.000000
   27       17.187527   0.000000
   28       17.187527   0.000000
   29       18.288781   0.000000
   30       18.288781   0.000000
 
  0.2000000E+00  0.2000000E+00  0.2000000E+00  0.6400000E-01
    1       -0.457545   1.000000
    2        2.976618   1.000000
    3        2.976618   1.000000
    4        2.976618   1.000000
    5        3.402377   1.000000
    6        3.402377   1.000000
    7        3.402377   1.000000
    8        4.196235   1.000000
    9        4.567639   1.000000
   10        4.567639   1.000000
   11        4.697114   1.000000
   12        4.697114   1.000000
   13        4.697114   1.000000
   14        5.214724   1.000000
   15        5.214724   1.000000
   16        5.257578   1.000000
   17        5.257578   1.000000
   18        5.257578   1.000000
   19        5.820333   1.000000
   20        5.820333   1.000000
   21        5.820333   1.000000
   22        8.484366  -0.000000
   23        8.484366  -0.000000
   24        8.484366  -0.000000
   25       15.300006   0.000000
   26       15.300006   0.000000
   27       15.300006   0.000000
   28       18.122538   0.000000
   29       18.122538   0.000000
   30       18.122538   0.000000
 
  0.4000000E+00  0.2000000E+00  0.2000000E+00  0.1920000E+00
    1        0.784786   1.000000
    2        2.318876   1.000000
    3        3.303307   1.000000
    4        3.303307   1.000000
    5        3.647886   1.000000
    6        3.647886   1.000000
    7        3.707890   1.000000
    8        4.019269   1.000000
    9        4.251892   1.000000
   10        4.251892   1.000000
   11        4.374809   1.000000
   12        4.523555   1.000000
   13        4.662720   1.000000
   14        4.916075   1.000000
   15        5.045104   1.000000
   16        5.045104   1.000000
   17        5.318926   1.000000
   18        5.492243   1.000000
   19        5.731384   1.000000
   20        5.736266   1.000000
   21        5.736266   1.000000
   22        6.251542   1.000000
   23        9.846687  -0.000000
   24        9.846687  -0.000000
   25       12.501584  -0.000000
   26       12.501584  -0.000000
   27       16.833467   0.000000
   28       19.141378   0.000000
   29       19.221677   0.000000
   30       19.221677   0.000000
 
  0.4000000E+00  0.4000000E+00  0.2000000E+00  0.1920000E+00
    1        1.743822   1.000000
    2        2.729647   1.000000
    3        2.729647   1.000000
    4        3.043724   1.000000
    5        3.952456   1.000000
    6        4.054091   1.000000
    7        4.054091   1.000000
    8        4.205329   1.000000
    9        4.280323   1.000000
   10        4.280323   1.000000
   11        4.420152   1.000000
   12        4.425966   1.000000
   13        4.584872   1.000000
   14        4.754531   1.000000
   15        4.754531   1.000000
   16        4.770437   1.000000
   17        5.340471   1.000000
   18        5.619643   1.000000
   19        5.619643   1.000000
   20        5.637140   1.000000
   21        5.943634   1.000000
   22        7.181496   0.751967
   23        7.181496   0.751967
   24        8.831246  -0.000000
   25       11.937781  -0.000000
   26       13.906425   0.000000
   27       13.906425   0.000000
   28       16.132242   0.000000
   29       20.425728   0.000000
   30       22.406986   0.000000
 
  0.4000000E+00  0.4000000E+00  0.4000000E+00  0.6400000E-01
    1        2.143431   1.000000
    2        2.568192   1.000000
    3        2.568192   1.000000
    4        2.568192   1.000000
    5        4.260214   1.000000
    6        4.260214   1.000000
    7        4.260214   1.000000
    8        4.425301   1.000000
    9        4.425301   1.000000
   10        4.498703   1.000000
   11        4.498703   1.000000
   12        4.498703   1.000000
   13        4.964005   1.000000
   14        4.964005   1.000000
   15        4.964005   1.000000
   16        5.183564   1.000000
   17        5.663080   1.000000
   18        5.663080   1.000000
   19        5.774433   1.000000
   20        5.774433   1.000000
   21        5.774433   1.000000
   22        7.281925   0.344085
   23        7.281925   0.344085
   24        7.281925   0.344085
   25       11.486110  -0.000000
   26       11.486110  -0.000000
   27       11.486110  -0.000000
   28       13.248120   0.000000
   29       25.682341   0.000000
   30       25.682341   0.000000
