       N       E                     dE             d eps       ncg     rms          rms(c)
DAV:   1     0.281112803845E+03    0.28111E+03   -0.14136E+04   632   0.178E+03
DAV:   2     0.335893393903E+01   -0.27775E+03   -0.26806E+03   600   0.332E+02
DAV:   3    -0.180484206063E+02   -0.21407E+02   -0.20665E+02   666   0.133E+02
DAV:   4    -0.184353258478E+02   -0.38691E+00   -0.38656E+00   690   0.240E+01
DAV:   5    -0.184405348226E+02   -0.52090E-02   -0.52089E-02   750   0.264E+00    0.153E+01
DAV:   6    -0.163589696964E+02    0.20816E+01   -0.29795E+01   654   0.110E+02    0.821E+00
DAV:   7    -0.148471648171E+02    0.15118E+01   -0.57654E+00   666   0.466E+01    0.111E+00
DAV:   8    -0.148120390883E+02    0.35126E-01   -0.57949E-02   700   0.233E+00    0.650E-01
DAV:   9    -0.148046343145E+02    0.74048E-02   -0.14034E-02   684   0.237E+00    0.586E-02
DAV:  10    -0.148047080251E+02   -0.73711E-04   -0.82409E-04   808   0.407E-01    0.240E-02
DAV:  11    -0.148047014445E+02    0.65806E-05   -0.39739E-05   698   0.106E-01    0.136E-03
DAV:  12    -0.148047029411E+02   -0.14967E-05   -0.40756E-06   536   0.241E-02    0.106E-03
DAV:  13    -0.148047033577E+02   -0.41659E-06   -0.15792E-07   366   0.511E-03
   1 F= -.14804703E+02 E0= -.14794767E+02  d E =-.298090E-01
