unknown system                          
   1.00000000000000     
     3.635000    0.000000    0.000000
     0.000000    3.635000    0.000000
     0.000000    0.000000    3.635000
   Cu
     4
Direct
  0.000000  0.000000  0.000000
  0.500000  0.500000  0.000000
  0.500000  0.000000  0.500000
  0.000000  0.500000  0.500000
 
   32   32   32
  845.08      796.46      666.00      491.92      317.55      175.89      82.697      36.227      20.767      15.210    
  11.597      9.3653      8.0784      7.4330      7.0310      6.6542      6.4729      6.6542      7.0310      7.4330    
  8.0784      9.3653      11.597      15.210      20.767      36.227      82.697      175.89      317.55      491.92    
  666.00      796.46      796.46      750.44      626.95      462.24      297.50      164.17      77.142      34.379    
  20.373      15.012      11.524      9.3835      8.1565      7.5457      7.1707      6.8220      6.6542      6.8220    
  7.1707      7.5457      8.1565      9.3835      11.524      15.012      20.373      34.379      77.142      164.17    
  297.50      462.24      626.95      750.44      666.00      626.95      522.22      382.78      244.09      133.31    
  62.862      29.830      19.351      14.469      11.329      9.4279      8.3431      7.7981      7.4666      7.1707    
  7.0310      7.1707      7.4666      7.7981      8.3431      9.4279      11.329      14.469      19.351      29.830    
  62.862      133.31      244.09      382.78      522.22      626.95      491.92      462.24      382.78      277.58    
  174.33      94.099      45.654      24.809      17.910      13.715      11.085      9.5079      8.5941      8.1054    
  7.7981      7.5457      7.4330      7.5457      7.7981      8.1054      8.5941      9.5079      11.085      13.715    
  17.910      24.809      45.654      94.099      174.33      277.58      382.78      462.24      317.55      297.50    
  244.09      174.33      107.73      58.569      31.473      21.034      16.245      12.928      10.901      9.6973    
  8.9912      8.5941      8.3431      8.1565      8.0784      8.1565      8.3431      8.5941      8.9912      9.6973    
  10.901      12.928      16.245      21.034      31.473      58.569      107.73      174.33      244.09      297.50    
  175.89      164.17      133.31      94.099      58.569      34.653      23.169      18.221      14.643      12.280    
  10.891      10.111      9.6973      9.5079      9.4279      9.3835      9.3653      9.3835      9.4279      9.5079    
  9.6973      10.111      10.891      12.280      14.643      18.221      23.169      34.653      58.569      94.099    
  133.31      164.17      82.697      77.142      62.862      45.654      31.473      23.169      18.958      15.704    
  13.353      11.917      11.176      10.891      10.901      11.085      11.329      11.524      11.597      11.524    
  11.329      11.085      10.901      10.891      11.176      11.917      13.353      15.704      18.958      23.169    
  31.473      45.654      62.862      77.142      36.227      34.379      29.830      24.809      21.034      18.221    
  15.704      13.766      12.534      11.959      11.917      12.280      12.928      13.715      14.469      15.012    
  15.210      15.012      14.469      13.715      12.928      12.280      11.917      11.959      12.534      13.766    
  15.704      18.221      21.034      24.809      29.830      34.379      20.767      20.373      19.351      17.910    
  16.245      14.643      13.353      12.534      12.256      12.534      13.353      14.643      16.245      17.910    
  19.351      20.373      20.767      20.373      19.351      17.910      16.245      14.643      13.353      12.534    
  12.256      12.534      13.353      14.643      16.245      17.910      19.351      20.373      15.210      15.012    
  14.469      13.715      12.928      12.280      11.917      11.959      12.534      13.766      15.704      18.221    
  21.034      24.809      29.830      34.379      36.227      34.379      29.830      24.809      21.034      18.221    
  15.704      13.766      12.534      11.959      11.917      12.280      12.928      13.715      14.469      15.012    
  11.597      11.524      11.329      11.085      10.901      10.891      11.176      11.917      13.353      15.704    
  18.958      23.169      31.473      45.654      62.862      77.142      82.697      77.142      62.862      45.654    
  31.473      23.169      18.958      15.704      13.353      11.917      11.176      10.891      10.901      11.085    
  11.329      11.524      9.3653      9.3835      9.4279      9.5079      9.6973      10.111      10.891      12.280    
  14.643      18.221      23.169      34.653      58.569      94.099      133.31      164.17      175.89      164.17    
  133.31      94.099      58.569      34.653      23.169      18.221      14.643      12.280      10.891      10.111    
  9.6973      9.5079      9.4279      9.3835      8.0784      8.1565      8.3431      8.5941      8.9912      9.6973    
  10.901      12.928      16.245      21.034      31.473      58.569      107.73      174.33      244.09      297.50    
  317.55      297.50      244.09      174.33      107.73      58.569      31.473      21.034      16.245      12.928    
  10.901      9.6973      8.9912      8.5941      8.3431      8.1565      7.4330      7.5457      7.7981      8.1054    
  8.5941      9.5079      11.085      13.715      17.910      24.809      45.654      94.099      174.33      277.58    
  382.78      462.24      491.92      462.24      382.78      277.58      174.33      94.099      45.654      24.809    
  17.910      13.715      11.085      9.5079      8.5941      8.1054      7.7981      7.5457      7.0310      7.1707    
  7.4666      7.7981      8.3431      9.4279      11.329      14.469      19.351      29.830      62.862      133.31    
  244.09      382.78      522.22      626.95      666.00      626.95      522.22      382.78      244.09      133.31    
  62.862      29.830      19.351      14.469      11.329      9.4279      8.3431      7.7981      7.4666      7.1707    
  6.6542      6.8220      7.1707      7.5457      8.1565      9.3835      11.524      15.012      20.373      34.379    
  77.142      164.17      297.50      462.24      626.95      750.44      796.46      750.44      626.95      462.24    
  297.50      164.17      77.142      34.379      20.373      15.012      11.524      9.3835      8.1565      7.5457    
  7.1707      6.8220      6.4729      6.6542      7.0310      7.4330      8.0784      9.3653      11.597      15.210    
  20.767      36.227      82.697      175.89      317.55      491.92      666.00      796.46      845.08      796.46    
  666.00      491.92      317.55      175.89      82.697      36.227      20.767      15.210      11.597      9.3653    
  8.0784      7.4330      7.0310      6.6542      6.6542      6.8220      7.1707      7.5457      8.1565      9.3835    
  11.524      15.012      20.373      34.379      77.142      164.17      297.50      462.24      626.95      750.44    
  796.46      750.44      626.95      462.24      297.50      164.17      77.142      34.379      20.373      15.012    
  11.524      9.3835      8.1565      7.5457      7.1707      6.8220      7.0310      7.1707      7.4666      7.7981    
  8.3431      9.4279      11.329      14.469      19.351      29.830      62.862      133.31      244.09      382.78    
  522.22      626.95      666.00      626.95      522.22      382.78      244.09      133.31      62.862      29.830    
  19.351      14.469      11.329      9.4279      8.3431      7.7981      7.4666      7.1707      7.4330      7.5457    
  7.7981      8.1054      8.5941      9.5079      11.085      13.715      17.910      24.809      45.654      94.099    
  174.33      277.58      382.78      462.24      491.92      462.24      382.78      277.58      174.33      94.099    
  45.654      24.809      17.910      13.715      11.085      9.5079      8.5941      8.1054      7.7981      7.5457    
  8.0784      8.1565      8.3431      8.5941      8.9912      9.6973      10.901      12.928      16.245      21.034    
  31.473      58.569      107.73      174.33      244.09      297.50      317.55      297.50      244.09      174.33    
  107.73      58.569      31.473      21.034      16.245      12.928      10.901      9.6973      8.9912      8.5941    
  8.3431      8.1565      9.3653      9.3835      9.4279      9.5079      9.6973      10.111      10.891      12.280    
  14.643      18.221      23.169      34.653      58.569      94.099      133.31      164.17      175.89      164.17    
  133.31      94.099      58.569      34.653      23.169      18.221      14.643      12.280      10.891      10.111    
  9.6973      9.5079      9.4279      9.3835      11.597      11.524      11.329      11.085      10.901      10.891    
  11.176      11.917      13.353      15.704      18.958      23.169      31.473      45.654      62.862      77.142    
  82.697      77.142      62.862      45.654      31.473      23.169      18.958      15.704      13.353      11.917    
  11.176      10.891      10.901      11.085      11.329      11.524      15.210      15.012      14.469      13.715    
  12.928      12.280      11.917      11.959      12.534      13.766      15.704      18.221      21.034      24.809    
  29.830      34.379      36.227      34.379      29.830      24.809      21.034      18.221      15.704      13.766    
  12.534      11.959      11.917      12.280      12.928      13.715      14.469      15.012      20.767      20.373    
  19.351      17.910      16.245      14.643      13.353      12.534      12.256      12.534      13.353      14.643    
  16.245      17.910      19.351      20.373      20.767      20.373      19.351      17.910      16.245      14.643    
  13.353      12.534      12.256      12.534      13.353      14.643      16.245      17.910      19.351      20.373    
  36.227      34.379      29.830      24.809      21.034      18.221      15.704      13.766      12.534      11.959    
  11.917      12.280      12.928      13.715      14.469      15.012      15.210      15.012      14.469      13.715    
  12.928      12.280      11.917      11.959      12.534      13.766      15.704      18.221      21.034      24.809    
  29.830      34.379      82.697      77.142      62.862      45.654      31.473      23.169      18.958      15.704    
  13.353      11.917      11.176      10.891      10.901      11.085      11.329      11.524      11.597      11.524    
  11.329      11.085      10.901      10.891      11.176      11.917      13.353      15.704      18.958      23.169    
  31.473      45.654      62.862      77.142      175.89      164.17      133.31      94.099      58.569      34.653    
  23.169      18.221      14.643      12.280      10.891      10.111      9.6973      9.5079      9.4279      9.3835    
  9.3653      9.3835      9.4279      9.5079      9.6973      10.111      10.891      12.280      14.643      18.221    
  23.169      34.653      58.569      94.099      133.31      164.17      317.55      297.50      244.09      174.33    
  107.73      58.569      31.473      21.034      16.245      12.928      10.901      9.6973      8.9912      8.5941    
  8.3431      8.1565      8.0784      8.1565      8.3431      8.5941      8.9912      9.6973      10.901      12.928    
  16.245      21.034      31.473      58.569      107.73      174.33      244.09      297.50      491.92      462.24    
  382.78      277.58      174.33      94.099      45.654      24.809      17.910      13.715      11.085      9.5079    
  8.5941      8.1054      7.7981      7.5457      7.4330      7.5457      7.7981      8.1054      8.5941      9.5079    
  11.085      13.715      17.910      24.809      45.654      94.099      174.33      277.58      382.78      462.24    
  666.00      626.95      522.22      382.78      244.09      133.31      62.862      29.830      19.351      14.469    
  11.329      9.4279      8.3431      7.7981      7.4666      7.1707      7.0310      7.1707      7.4666      7.7981    
  8.3431      9.4279      11.329      14.469      19.351      29.830      62.862      133.31      244.09      382.78    
  522.22      626.95      796.46      750.44      626.95      462.24      297.50      164.17      77.142      34.379    
  20.373      15.012      11.524      9.3835      8.1565      7.5457      7.1707      6.8220      6.6542      6.8220    
  7.1707      7.5457      8.1565      9.3835      11.524      15.012      20.373      34.379      77.142      164.17    
  297.50      462.24      626.95      750.44      796.46      750.44      626.95      462.24      297.50      164.17    
  77.142      34.379      20.373      15.012      11.524      9.3835      8.1565      7.5457      7.1707      6.8220    
  6.6542      6.8220      7.1707      7.5457      8.1565      9.3835      11.524      15.012      20.373      34.379    
  77.142      164.17      297.50      462.24      626.95      750.44      750.44      706.88      590.00      434.19    
  278.60      153.18      71.997      32.703      20.006      14.819      11.452      9.3986      8.2282      7.6497    
  7.2997      6.9770      6.8220      6.9770      7.2997      7.6497      8.2282      9.3986      11.452      14.819    
  20.006      32.703      71.997      153.18      278.60      434.19      590.00      706.88      626.95      590.00    
  490.92      359.12      228.30      124.31      58.806      28.588      19.031      14.290      11.261      9.4364    
  8.4007      7.8834      7.5735      7.2997      7.1707      7.2997      7.5735      7.8834      8.4007      9.4364    
  11.261      14.290      19.031      28.588      58.806      124.31      228.30      359.12      490.92      590.00    
  462.24      434.19      359.12      259.87      162.76      87.766      42.999      24.067      17.621      13.557    
  11.023      9.5093      8.6361      8.1717      7.8834      7.6497      7.5457      7.6497      7.8834      8.1717    
  8.6361      9.5093      11.023      13.557      17.621      24.067      42.999      87.766      162.76      259.87    
  359.12      434.19      297.50      278.60      228.30      162.76      100.47      54.871      30.095      20.631    
  16.000      12.795      10.844      9.6890      9.0139      8.6361      8.4007      8.2282      8.1565      8.2282    
  8.4007      8.6361      9.0139      9.6890      10.844      12.795      16.000      20.631      30.095      54.871    
  100.47      162.76      228.30      278.60      164.17      153.18      124.31      87.766      54.871      32.983    
  22.603      17.911      14.447      12.170      10.834      10.085      9.6890      9.5093      9.4364      9.3986    
  9.3835      9.3986      9.4364      9.5093      9.6890      10.085      10.834      12.170      14.447      17.911    
  22.603      32.983      54.871      87.766      124.31      153.18      77.142      71.997      58.806      42.999    
  30.095      22.603      18.625      15.469      13.202      11.820      11.107      10.834      10.844      11.023    
  11.261      11.452      11.524      11.452      11.261      11.023      10.844      10.834      11.107      11.820    
  13.202      15.469      18.625      22.603      30.095      42.999      58.806      71.997      34.379      32.703    
  28.588      24.067      20.631      17.911      15.469      13.599      12.414      11.861      11.820      12.170    
  12.795      13.557      14.290      14.819      15.012      14.819      14.290      13.557      12.795      12.170    
  11.820      11.861      12.414      13.599      15.469      17.911      20.631      24.067      28.588      32.703    
  20.373      20.006      19.031      17.621      16.000      14.447      13.202      12.414      12.146      12.414    
  13.202      14.447      16.000      17.621      19.031      20.006      20.373      20.006      19.031      17.621    
  16.000      14.447      13.202      12.414      12.146      12.414      13.202      14.447      16.000      17.621    
  19.031      20.006      15.012      14.819      14.290      13.557      12.795      12.170      11.820      11.861    
  12.414      13.599      15.469      17.911      20.631      24.067      28.588      32.703      34.379      32.703    
  28.588      24.067      20.631      17.911      15.469      13.599      12.414      11.861      11.820      12.170    
  12.795      13.557      14.290      14.819      11.524      11.452      11.261      11.023      10.844      10.834    
  11.107      11.820      13.202      15.469      18.625      22.603      30.095      42.999      58.806      71.997    
  77.142      71.997      58.806      42.999      30.095      22.603      18.625      15.469      13.202      11.820    
  11.107      10.834      10.844      11.023      11.261      11.452      9.3835      9.3986      9.4364      9.5093    
  9.6890      10.085      10.834      12.170      14.447      17.911      22.603      32.983      54.871      87.766    
  124.31      153.18      164.17      153.18      124.31      87.766      54.871      32.983      22.603      17.911    
  14.447      12.170      10.834      10.085      9.6890      9.5093      9.4364      9.3986      8.1565      8.2282    
  8.4007      8.6361      9.0139      9.6890      10.844      12.795      16.000      20.631      30.095      54.871    
  100.47      162.76      228.30      278.60      297.50      278.60      228.30      162.76      100.47      54.871    
  30.095      20.631      16.000      12.795      10.844      9.6890      9.0139      8.6361      8.4007      8.2282    
  7.5457      7.6497      7.8834      8.1717      8.6361      9.5093      11.023      13.557      17.621      24.067    
  42.999      87.766      162.76      259.87      359.12      434.19      462.24      434.19      359.12      259.87    
  162.76      87.766      42.999      24.067      17.621      13.557      11.023      9.5093      8.6361      8.1717    
  7.8834      7.6497      7.1707      7.2997      7.5735      7.8834      8.4007      9.4364      11.261      14.290    
  19.031      28.588      58.806      124.31      228.30      359.12      490.92      590.00      626.95      590.00    
  490.92      359.12      228.30      124.31      58.806      28.588      19.031      14.290      11.261      9.4364    
  8.4007      7.8834      7.5735      7.2997      6.8220      6.9770      7.2997      7.6497      8.2282      9.3986    
  11.452      14.819      20.006      32.703      71.997      153.18      278.60      434.19      590.00      706.88    
  750.44      706.88      590.00      434.19      278.60      153.18      71.997      32.703      20.006      14.819    
  11.452      9.3986      8.2282      7.6497      7.2997      6.9770      6.6542      6.8220      7.1707      7.5457    
  8.1565      9.3835      11.524      15.012      20.373      34.379      77.142      164.17      297.50      462.24    
  626.95      750.44      796.46      750.44      626.95      462.24      297.50      164.17      77.142      34.379    
  20.373      15.012      11.524      9.3835      8.1565      7.5457      7.1707      6.8220      6.8220      6.9770    
  7.2997      7.6497      8.2282      9.3986      11.452      14.819      20.006      32.703      71.997      153.18    
  278.60      434.19      590.00      706.88      750.44      706.88      590.00      434.19      278.60      153.18    
  71.997      32.703      20.006      14.819      11.452      9.3986      8.2282      7.6497      7.2997      6.9770    
  7.1707      7.2997      7.5735      7.8834      8.4007      9.4364      11.261      14.290      19.031      28.588    
  58.806      124.31      228.30      359.12      490.92      590.00      626.95      590.00      490.92      359.12    
  228.30      124.31      58.806      28.588      19.031      14.290      11.261      9.4364      8.4007      7.8834    
  7.5735      7.2997      7.5457      7.6497      7.8834      8.1717      8.6361      9.5093      11.023      13.557    
  17.621      24.067      42.999      87.766      162.76      259.87      359.12      434.19      462.24      434.19    
  359.12      259.87      162.76      87.766      42.999      24.067      17.621      13.557      11.023      9.5093    
  8.6361      8.1717      7.8834      7.6497      8.1565      8.2282      8.4007      8.6361      9.0139      9.6890    
  10.844      12.795      16.000      20.631      30.095      54.871      100.47      162.76      228.30      278.60    
  297.50      278.60      228.30      162.76      100.47      54.871      30.095      20.631      16.000      12.795    
  10.844      9.6890      9.0139      8.6361      8.4007      8.2282      9.3835      9.3986      9.4364      9.5093    
  9.6890      10.085      10.834      12.170      14.447      17.911      22.603      32.983      54.871      87.766    
  124.31      153.18      164.17      153.18      124.31      87.766      54.871      32.983      22.603      17.911    
  14.447      12.170      10.834      10.085      9.6890      9.5093      9.4364      9.3986      11.524      11.452    
  11.261      11.023      10.844      10.834      11.107      11.820      13.202      15.469      18.625      22.603    
  30.095      42.999      58.806      71.997      77.142      71.997      58.806      42.999      30.095      22.603    
  18.625      15.469      13.202      11.820      11.107      10.834      10.844      11.023      11.261      11.452    
  15.012      14.819      14.290      13.557      12.795      12.170      11.820      11.861      12.414      13.599    
  15.469      17.911      20.631      24.067      28.588      32.703      34.379      32.703      28.588      24.067    
  20.631      17.911      15.469      13.599      12.414      11.861      11.820      12.170      12.795      13.557    
  14.290      14.819      20.373      20.006      19.031      17.621      16.000      14.447      13.202      12.414    
  12.146      12.414      13.202      14.447      16.000      17.621      19.031      20.006      20.373      20.006    
  19.031      17.621      16.000      14.447      13.202      12.414      12.146      12.414      13.202      14.447    
  16.000      17.621      19.031      20.006      34.379      32.703      28.588      24.067      20.631      17.911    
  15.469      13.599      12.414      11.861      11.820      12.170      12.795      13.557      14.290      14.819    
  15.012      14.819      14.290      13.557      12.795      12.170      11.820      11.861      12.414      13.599    
  15.469      17.911      20.631      24.067      28.588      32.703      77.142      71.997      58.806      42.999    
  30.095      22.603      18.625      15.469      13.202      11.820      11.107      10.834      10.844      11.023    
  11.261      11.452      11.524      11.452      11.261      11.023      10.844      10.834      11.107      11.820    
  13.202      15.469      18.625      22.603      30.095      42.999      58.806      71.997      164.17      153.18    
  124.31      87.766      54.871      32.983      22.603      17.911      14.447      12.170      10.834      10.085    
  9.6890      9.5093      9.4364      9.3986      9.3835      9.3986      9.4364      9.5093      9.6890      10.085    
  10.834      12.170      14.447      17.911      22.603      32.983      54.871      87.766      124.31      153.18    
  297.50      278.60      228.30      162.76      100.47      54.871      30.095      20.631      16.000      12.795    
  10.844      9.6890      9.0139      8.6361      8.4007      8.2282      8.1565      8.2282      8.4007      8.6361    
  9.0139      9.6890      10.844      12.795      16.000      20.631      30.095      54.871      100.47      162.76    
  228.30      278.60      462.24      434.19      359.12      259.87      162.76      87.766      42.999      24.067    
  17.621      13.557      11.023      9.5093      8.6361      8.1717      7.8834      7.6497      7.5457      7.6497    
  7.8834      8.1717      8.6361      9.5093      11.023      13.557      17.621      24.067      42.999      87.766    
  162.76      259.87      359.12      434.19      626.95      590.00      490.92      359.12      228.30      124.31    
  58.806      28.588      19.031      14.290      11.261      9.4364      8.4007      7.8834      7.5735      7.2997    
  7.1707      7.2997      7.5735      7.8834      8.4007      9.4364      11.261      14.290      19.031      28.588    
  58.806      124.31      228.30      359.12      490.92      590.00      750.44      706.88      590.00      434.19    
  278.60      153.18      71.997      32.703      20.006      14.819      11.452      9.3986      8.2282      7.6497    
  7.2997      6.9770      6.8220      6.9770      7.2997      7.6497      8.2282      9.3986      11.452      14.819    
  20.006      32.703      71.997      153.18      278.60      434.19      590.00      706.88      666.00      626.95    
  522.22      382.78      244.09      133.31      62.862      29.830      19.351      14.469      11.329      9.4279    
  8.3431      7.7981      7.4666      7.1707      7.0310      7.1707      7.4666      7.7981      8.3431      9.4279    
  11.329      14.469      19.351      29.830      62.862      133.31      244.09      382.78      522.22      626.95    
  626.95      590.00      490.92      359.12      228.30      124.31      58.806      28.588      19.031      14.290    
  11.261      9.4364      8.4007      7.8834      7.5735      7.2997      7.1707      7.2997      7.5735      7.8834    
  8.4007      9.4364      11.261      14.290      19.031      28.588      58.806      124.31      228.30      359.12    
  490.92      590.00      522.22      490.92      407.09      295.91      186.43      100.80      48.490      25.566    
  18.131      13.801      11.081      9.4603      8.5426      8.0795      7.8051      7.5735      7.4666      7.5735    
  7.8051      8.0795      8.5426      9.4603      11.081      13.801      18.131      25.566      48.490      100.80    
  186.43      295.91      407.09      490.92      382.78      359.12      295.91      212.77      132.29      71.384    
  36.348      22.255      16.813      13.128      10.861      9.5180      8.7455      8.3321      8.0795      7.8834    
  7.7981      7.8834      8.0795      8.3321      8.7455      9.5180      10.861      13.128      16.813      22.255    
  36.348      71.384      132.29      212.77      295.91      359.12      244.09      228.30      186.43      132.29    
  81.587      45.481      26.714      19.549      15.318      12.435      10.696      9.6741      9.0786      8.7455    
  8.5426      8.4007      8.3431      8.4007      8.5426      8.7455      9.0786      9.6741      10.696      12.435    
  15.318      19.549      26.714      45.481      81.587      132.29      186.43      228.30      133.31      124.31    
  100.80      71.384      45.481      28.856      21.175      17.039      13.905      11.871      10.685      10.023    
  9.6741      9.5180      9.4603      9.4364      9.4279      9.4364      9.4603      9.5180      9.6741      10.023    
  10.685      11.871      13.905      17.039      21.175      28.856      45.481      71.384      100.80      124.31    
  62.862      58.806      48.490      36.348      26.714      21.175      17.685      14.814      12.784      11.558    
  10.926      10.685      10.696      10.861      11.081      11.261      11.329      11.261      11.081      10.861    
  10.696      10.685      10.926      11.558      12.784      14.814      17.685      21.175      26.714      36.348    
  48.490      58.806      29.830      28.588      25.566      22.255      19.549      17.039      14.814      13.135    
  12.081      11.593      11.558      11.871      12.435      13.128      13.801      14.290      14.469      14.290    
  13.801      13.128      12.435      11.871      11.558      11.593      12.081      13.135      14.814      17.039    
  19.549      22.255      25.566      28.588      19.351      19.031      18.131      16.813      15.318      13.905    
  12.784      12.081      11.844      12.081      12.784      13.905      15.318      16.813      18.131      19.031    
  19.351      19.031      18.131      16.813      15.318      13.905      12.784      12.081      11.844      12.081    
  12.784      13.905      15.318      16.813      18.131      19.031      14.469      14.290      13.801      13.128    
  12.435      11.871      11.558      11.593      12.081      13.135      14.814      17.039      19.549      22.255    
  25.566      28.588      29.830      28.588      25.566      22.255      19.549      17.039      14.814      13.135    
  12.081      11.593      11.558      11.871      12.435      13.128      13.801      14.290      11.329      11.261    
  11.081      10.861      10.696      10.685      10.926      11.558      12.784      14.814      17.685      21.175    
  26.714      36.348      48.490      58.806      62.862      58.806      48.490      36.348      26.714      21.175    
  17.685      14.814      12.784      11.558      10.926      10.685      10.696      10.861      11.081      11.261    
  9.4279      9.4364      9.4603      9.5180      9.6741      10.023      10.685      11.871      13.905      17.039    
  21.175      28.856      45.481      71.384      100.80      124.31      133.31      124.31      100.80      71.384    
  45.481      28.856      21.175      17.039      13.905      11.871      10.685      10.023      9.6741      9.5180    
  9.4603      9.4364      8.3431      8.4007      8.5426      8.7455      9.0786      9.6741      10.696      12.435    
  15.318      19.549      26.714      45.481      81.587      132.29      186.43      228.30      244.09      228.30    