unknown system                          
   1.00000000000000     
     3.635000    0.000000    0.000000
     0.000000    3.635000    0.000000
     0.000000    0.000000    3.635000
   Cu
     4
Direct
  0.000000  0.000000  0.000000
  0.500000  0.500000  0.000000
  0.500000  0.000000  0.500000
  0.000000  0.500000  0.500000
 
   32   32   32
 0.84508469811E+03 0.79646024664E+03 0.66599670346E+03 0.49192106758E+03 0.31755498285E+03
 0.17589483076E+03 0.82697360386E+02 0.36227277514E+02 0.20766728153E+02 0.15209555383E+02
 0.11596693803E+02 0.93653324438E+01 0.80784371307E+01 0.74330044707E+01 0.70309641744E+01
 0.66542315031E+01 0.64729326554E+01 0.66542315031E+01 0.70309641744E+01 0.74330044707E+01
 0.80784371307E+01 0.93653324438E+01 0.11596693803E+02 0.15209555383E+02 0.20766728153E+02
 0.36227277514E+02 0.82697360386E+02 0.17589483076E+03 0.31755498285E+03 0.49192106758E+03
 0.66599670346E+03 0.79646024664E+03 0.79646024664E+03 0.75043688714E+03 0.62695076762E+03
 0.46224136476E+03 0.29749940257E+03 0.16416757498E+03 0.77141830419E+02 0.34379215173E+02
 0.20372859845E+02 0.15012012583E+02 0.11523817802E+02 0.93834678707E+01 0.81565242249E+01
 0.75457236276E+01 0.71706902158E+01 0.68219515682E+01 0.66542315031E+01 0.68219515682E+01
 0.71706902158E+01 0.75457236276E+01 0.81565242249E+01 0.93834678707E+01 0.11523817802E+02
 0.15012012583E+02 0.20372859845E+02 0.34379215173E+02 0.77141830419E+02 0.16416757498E+03
 0.29749940257E+03 0.46224136476E+03 0.62695076762E+03 0.75043688714E+03 0.66599670346E+03
 0.62695076762E+03 0.52222187955E+03 0.38278282571E+03 0.24409423486E+03 0.13330796981E+03
 0.62861641789E+02 0.29829528330E+02 0.19351489037E+02 0.14469206064E+02 0.11329258292E+02
 0.94279286500E+01 0.83431492167E+01 0.77980588535E+01 0.74666196155E+01 0.71706902158E+01
 0.70309641744E+01 0.71706902158E+01 0.74666196155E+01 0.77980588535E+01 0.83431492167E+01
 0.94279286500E+01 0.11329258292E+02 0.14469206064E+02 0.19351489037E+02 0.29829528330E+02
 0.62861641789E+02 0.13330796981E+03 0.24409423486E+03 0.38278282571E+03 0.52222187955E+03
 0.62695076762E+03 0.49192106758E+03 0.46224136476E+03 0.38278282571E+03 0.27758233679E+03
 0.17433475838E+03 0.94098601133E+02 0.45653764656E+02 0.24808897859E+02 0.17909882593E+02
 0.13715176454E+02 0.11085405474E+02 0.95079219667E+01 0.85940843799E+01 0.81053765424E+01
 0.77980588535E+01 0.75457236276E+01 0.74330044707E+01 0.75457236276E+01 0.77980588535E+01
 0.81053765424E+01 0.85940843799E+01 0.95079219667E+01 0.11085405474E+02 0.13715176454E+02
 0.17909882593E+02 0.24808897859E+02 0.45653764656E+02 0.94098601133E+02 0.17433475838E+03
 0.27758233679E+03 0.38278282571E+03 0.46224136476E+03 0.31755498285E+03 0.29749940257E+03
 0.24409423486E+03 0.17433475838E+03 0.10772686276E+03 0.58568524693E+02 0.31472826769E+02
 0.21034420549E+02 0.16245389837E+02 0.12927590056E+02 0.10900712246E+02 0.96972640504E+01
 0.89911736707E+01 0.85940843799E+01 0.83431492167E+01 0.81565242249E+01 0.80784371307E+01
 0.81565242249E+01 0.83431492167E+01 0.85940843799E+01 0.89911736707E+01 0.96972640504E+01
 0.10900712246E+02 0.12927590056E+02 0.16245389837E+02 0.21034420549E+02 0.31472826769E+02
 0.58568524693E+02 0.10772686276E+03 0.17433475838E+03 0.24409423486E+03 0.29749940257E+03
 0.17589483076E+03 0.16416757498E+03 0.13330796981E+03 0.94098601133E+02 0.58568524693E+02
 0.34653474245E+02 0.23168988357E+02 0.18220967407E+02 0.14643356009E+02 0.12280402697E+02
 0.10891343700E+02 0.10111137834E+02 0.96972640504E+01 0.95079219667E+01 0.94279286500E+01
 0.93834678707E+01 0.93653324438E+01 0.93834678707E+01 0.94279286500E+01 0.95079219667E+01
 0.96972640504E+01 0.10111137834E+02 0.10891343700E+02 0.12280402697E+02 0.14643356009E+02
 0.18220967407E+02 0.23168988357E+02 0.34653474245E+02 0.58568524693E+02 0.94098601133E+02
 0.13330796981E+03 0.16416757498E+03 0.82697360386E+02 0.77141830419E+02 0.62861641789E+02
 0.45653764656E+02 0.31472826769E+02 0.23168988357E+02 0.18957880584E+02 0.15703738219E+02
 0.13353168555E+02 0.11916928168E+02 0.11175563958E+02 0.10891343700E+02 0.10900712246E+02
 0.11085405474E+02 0.11329258292E+02 0.11523817802E+02 0.11596693803E+02 0.11523817802E+02
 0.11329258292E+02 0.11085405474E+02 0.10900712246E+02 0.10891343700E+02 0.11175563958E+02
 0.11916928168E+02 0.13353168555E+02 0.15703738219E+02 0.18957880584E+02 0.23168988357E+02
 0.31472826769E+02 0.45653764656E+02 0.62861641789E+02 0.77141830419E+02 0.36227277514E+02
 0.34379215173E+02 0.29829528330E+02 0.24808897859E+02 0.21034420549E+02 0.18220967407E+02
 0.15703738219E+02 0.13765940235E+02 0.12534094362E+02 0.11959204441E+02 0.11916928168E+02
 0.12280402697E+02 0.12927590056E+02 0.13715176454E+02 0.14469206064E+02 0.15012012583E+02
 0.15209555383E+02 0.15012012583E+02 0.14469206064E+02 0.13715176454E+02 0.12927590056E+02
 0.12280402697E+02 0.11916928168E+02 0.11959204441E+02 0.12534094362E+02 0.13765940235E+02
 0.15703738219E+02 0.18220967407E+02 0.21034420549E+02 0.24808897859E+02 0.29829528330E+02
 0.34379215173E+02 0.20766728153E+02 0.20372859845E+02 0.19351489037E+02 0.17909882593E+02
 0.16245389837E+02 0.14643356009E+02 0.13353168555E+02 0.12534094362E+02 0.12255693627E+02
 0.12534094362E+02 0.13353168555E+02 0.14643356009E+02 0.16245389837E+02 0.17909882593E+02
 0.19351489037E+02 0.20372859845E+02 0.20766728153E+02 0.20372859845E+02 0.19351489037E+02
 0.17909882593E+02 0.16245389837E+02 0.14643356009E+02 0.13353168555E+02 0.12534094362E+02
 0.12255693627E+02 0.12534094362E+02 0.13353168555E+02 0.14643356009E+02 0.16245389837E+02
 0.17909882593E+02 0.19351489037E+02 0.20372859845E+02 0.15209555383E+02 0.15012012583E+02
 0.14469206064E+02 0.13715176454E+02 0.12927590056E+02 0.12280402697E+02 0.11916928168E+02
 0.11959204441E+02 0.12534094362E+02 0.13765940235E+02 0.15703738219E+02 0.18220967407E+02
 0.21034420549E+02 0.24808897859E+02 0.29829528330E+02 0.34379215173E+02 0.36227277514E+02
 0.34379215173E+02 0.29829528330E+02 0.24808897859E+02 0.21034420549E+02 0.18220967407E+02
 0.15703738219E+02 0.13765940235E+02 0.12534094362E+02 0.11959204441E+02 0.11916928168E+02
 0.12280402697E+02 0.12927590056E+02 0.13715176454E+02 0.14469206064E+02 0.15012012583E+02
 0.11596693803E+02 0.11523817802E+02 0.11329258292E+02 0.11085405474E+02 0.10900712246E+02
 0.10891343700E+02 0.11175563958E+02 0.11916928168E+02 0.13353168555E+02 0.15703738219E+02
 0.18957880584E+02 0.23168988357E+02 0.31472826769E+02 0.45653764656E+02 0.62861641789E+02
 0.77141830419E+02 0.82697360386E+02 0.77141830419E+02 0.62861641789E+02 0.45653764656E+02
 0.31472826769E+02 0.23168988357E+02 0.18957880584E+02 0.15703738219E+02 0.13353168555E+02
 0.11916928168E+02 0.11175563958E+02 0.10891343700E+02 0.10900712246E+02 0.11085405474E+02
 0.11329258292E+02 0.11523817802E+02 0.93653324438E+01 0.93834678707E+01 0.94279286500E+01
 0.95079219667E+01 0.96972640504E+01 0.10111137834E+02 0.10891343700E+02 0.12280402697E+02
 0.14643356009E+02 0.18220967407E+02 0.23168988357E+02 0.34653474245E+02 0.58568524693E+02
 0.94098601133E+02 0.13330796981E+03 0.16416757498E+03 0.17589483076E+03 0.16416757498E+03
 0.13330796981E+03 0.94098601133E+02 0.58568524693E+02 0.34653474245E+02 0.23168988357E+02
 0.18220967407E+02 0.14643356009E+02 0.12280402697E+02 0.10891343700E+02 0.10111137834E+02
 0.96972640504E+01 0.95079219667E+01 0.94279286500E+01 0.93834678707E+01 0.80784371307E+01
 0.81565242249E+01 0.83431492167E+01 0.85940843799E+01 0.89911736707E+01 0.96972640504E+01
 0.10900712246E+02 0.12927590056E+02 0.16245389837E+02 0.21034420549E+02 0.31472826769E+02
 0.58568524693E+02 0.10772686276E+03 0.17433475838E+03 0.24409423486E+03 0.29749940257E+03
 0.31755498285E+03 0.29749940257E+03 0.24409423486E+03 0.17433475838E+03 0.10772686276E+03
 0.58568524693E+02 0.31472826769E+02 0.21034420549E+02 0.16245389837E+02 0.12927590056E+02
 0.10900712246E+02 0.96972640504E+01 0.89911736707E+01 0.85940843799E+01 0.83431492167E+01
 0.81565242249E+01 0.74330044707E+01 0.75457236276E+01 0.77980588535E+01 0.81053765424E+01
 0.85940843799E+01 0.95079219667E+01 0.11085405474E+02 0.13715176454E+02 0.17909882593E+02
 0.24808897859E+02 0.45653764656E+02 0.94098601133E+02 0.17433475838E+03 0.27758233679E+03
 0.38278282571E+03 0.46224136476E+03 0.49192106758E+03 0.46224136476E+03 0.38278282571E+03
 0.27758233679E+03 0.17433475838E+03 0.94098601133E+02 0.45653764656E+02 0.24808897859E+02
 0.17909882593E+02 0.13715176454E+02 0.11085405474E+02 0.95079219667E+01 0.85940843799E+01
 0.81053765424E+01 0.77980588535E+01 0.75457236276E+01 0.70309641744E+01 0.71706902158E+01
 0.74666196155E+01 0.77980588535E+01 0.83431492167E+01 0.94279286500E+01 0.11329258292E+02
 0.14469206064E+02 0.19351489037E+02 0.29829528330E+02 0.62861641789E+02 0.13330796981E+03
 0.24409423486E+03 0.38278282571E+03 0.52222187955E+03 0.62695076762E+03 0.66599670346E+03
 0.62695076762E+03 0.52222187955E+03 0.38278282571E+03 0.24409423486E+03 0.13330796981E+03
 0.62861641789E+02 0.29829528330E+02 0.19351489037E+02 0.14469206064E+02 0.11329258292E+02
 0.94279286500E+01 0.83431492167E+01 0.77980588535E+01 0.74666196155E+01 0.71706902158E+01
 0.66542315031E+01 0.68219515682E+01 0.71706902158E+01 0.75457236276E+01 0.81565242249E+01
 0.93834678707E+01 0.11523817802E+02 0.15012012583E+02 0.20372859845E+02 0.34379215173E+02
 0.77141830419E+02 0.16416757498E+03 0.29749940257E+03 0.46224136476E+03 0.62695076762E+03
 0.75043688714E+03 0.79646024664E+03 0.75043688714E+03 0.62695076762E+03 0.46224136476E+03
 0.29749940257E+03 0.16416757498E+03 0.77141830419E+02 0.34379215173E+02 0.20372859845E+02
 0.15012012583E+02 0.11523817802E+02 0.93834678707E+01 0.81565242249E+01 0.75457236276E+01
 0.71706902158E+01 0.68219515682E+01 0.64729326554E+01 0.66542315031E+01 0.70309641744E+01
 0.74330044707E+01 0.80784371307E+01 0.93653324438E+01 0.11596693803E+02 0.15209555383E+02
 0.20766728153E+02 0.36227277514E+02 0.82697360386E+02 0.17589483076E+03 0.31755498285E+03
 0.49192106758E+03 0.66599670346E+03 0.79646024664E+03 0.84508469811E+03 0.79646024664E+03
 0.66599670346E+03 0.49192106758E+03 0.31755498285E+03 0.17589483076E+03 0.82697360386E+02
 0.36227277514E+02 0.20766728153E+02 0.15209555383E+02 0.11596693803E+02 0.93653324438E+01
 0.80784371307E+01 0.74330044707E+01 0.70309641744E+01 0.66542315031E+01 0.66542315031E+01
 0.68219515682E+01 0.71706902158E+01 0.75457236276E+01 0.81565242249E+01 0.93834678707E+01
 0.11523817802E+02 0.15012012583E+02 0.20372859845E+02 0.34379215173E+02 0.77141830419E+02
 0.16416757498E+03 0.29749940257E+03 0.46224136476E+03 0.62695076762E+03 0.75043688714E+03
 0.79646024664E+03 0.75043688714E+03 0.62695076762E+03 0.46224136476E+03 0.29749940257E+03
 0.16416757498E+03 0.77141830419E+02 0.34379215173E+02 0.20372859845E+02 0.15012012583E+02
 0.11523817802E+02 0.93834678707E+01 0.81565242249E+01 0.75457236276E+01 0.71706902158E+01
 0.68219515682E+01 0.70309641744E+01 0.71706902158E+01 0.74666196155E+01 0.77980588535E+01
 0.83431492167E+01 0.94279286500E+01 0.11329258292E+02 0.14469206064E+02 0.19351489037E+02
 0.29829528330E+02 0.62861641789E+02 0.13330796981E+03 0.24409423486E+03 0.38278282571E+03
 0.52222187955E+03 0.62695076762E+03 0.66599670346E+03 0.62695076762E+03 0.52222187955E+03
 0.38278282571E+03 0.24409423486E+03 0.13330796981E+03 0.62861641789E+02 0.29829528330E+02
 0.19351489037E+02 0.14469206064E+02 0.11329258292E+02 0.94279286500E+01 0.83431492167E+01
 0.77980588535E+01 0.74666196155E+01 0.71706902158E+01 0.74330044707E+01 0.75457236276E+01
 0.77980588535E+01 0.81053765424E+01 0.85940843799E+01 0.95079219667E+01 0.11085405474E+02
 0.13715176454E+02 0.17909882593E+02 0.24808897859E+02 0.45653764656E+02 0.94098601133E+02
 0.17433475838E+03 0.27758233679E+03 0.38278282571E+03 0.46224136476E+03 0.49192106758E+03
 0.46224136476E+03 0.38278282571E+03 0.27758233679E+03 0.17433475838E+03 0.94098601133E+02
 0.45653764656E+02 0.24808897859E+02 0.17909882593E+02 0.13715176454E+02 0.11085405474E+02
 0.95079219667E+01 0.85940843799E+01 0.81053765424E+01 0.77980588535E+01 0.75457236276E+01
 0.80784371307E+01 0.81565242249E+01 0.83431492167E+01 0.85940843799E+01 0.89911736707E+01
 0.96972640504E+01 0.10900712246E+02 0.12927590056E+02 0.16245389837E+02 0.21034420549E+02
 0.31472826769E+02 0.58568524693E+02 0.10772686276E+03 0.17433475838E+03 0.24409423486E+03
 0.29749940257E+03 0.31755498285E+03 0.29749940257E+03 0.24409423486E+03 0.17433475838E+03
 0.10772686276E+03 0.58568524693E+02 0.31472826769E+02 0.21034420549E+02 0.16245389837E+02
 0.12927590056E+02 0.10900712246E+02 0.96972640504E+01 0.89911736707E+01 0.85940843799E+01
 0.83431492167E+01 0.81565242249E+01 0.93653324438E+01 0.93834678707E+01 0.94279286500E+01
 0.95079219667E+01 0.96972640504E+01 0.10111137834E+02 0.10891343700E+02 0.12280402697E+02
 0.14643356009E+02 0.18220967407E+02 0.23168988357E+02 0.34653474245E+02 0.58568524693E+02
 0.94098601133E+02 0.13330796981E+03 0.16416757498E+03 0.17589483076E+03 0.16416757498E+03
 0.13330796981E+03 0.94098601133E+02 0.58568524693E+02 0.34653474245E+02 0.23168988357E+02
 0.18220967407E+02 0.14643356009E+02 0.12280402697E+02 0.10891343700E+02 0.10111137834E+02
 0.96972640504E+01 0.95079219667E+01 0.94279286500E+01 0.93834678707E+01 0.11596693803E+02
 0.11523817802E+02 0.11329258292E+02 0.11085405474E+02 0.10900712246E+02 0.10891343700E+02
 0.11175563958E+02 0.11916928168E+02 0.13353168555E+02 0.15703738219E+02 0.18957880584E+02
 0.23168988357E+02 0.31472826769E+02 0.45653764656E+02 0.62861641789E+02 0.77141830419E+02
 0.82697360386E+02 0.77141830419E+02 0.62861641789E+02 0.45653764656E+02 0.31472826769E+02
 0.23168988357E+02 0.18957880584E+02 0.15703738219E+02 0.13353168555E+02 0.11916928168E+02
 0.11175563958E+02 0.10891343700E+02 0.10900712246E+02 0.11085405474E+02 0.11329258292E+02
 0.11523817802E+02 0.15209555383E+02 0.15012012583E+02 0.14469206064E+02 0.13715176454E+02
 0.12927590056E+02 0.12280402697E+02 0.11916928168E+02 0.11959204441E+02 0.12534094362E+02
 0.13765940235E+02 0.15703738219E+02 0.18220967407E+02 0.21034420549E+02 0.24808897859E+02
 0.29829528330E+02 0.34379215173E+02 0.36227277514E+02 0.34379215173E+02 0.29829528330E+02
 0.24808897859E+02 0.21034420549E+02 0.18220967407E+02 0.15703738219E+02 0.13765940235E+02
 0.12534094362E+02 0.11959204441E+02 0.11916928168E+02 0.12280402697E+02 0.12927590056E+02
 0.13715176454E+02 0.14469206064E+02 0.15012012583E+02 0.20766728153E+02 0.20372859845E+02
 0.19351489037E+02 0.17909882593E+02 0.16245389837E+02 0.14643356009E+02 0.13353168555E+02
 0.12534094362E+02 0.12255693627E+02 0.12534094362E+02 0.13353168555E+02 0.14643356009E+02
 0.16245389837E+02 0.17909882593E+02 0.19351489037E+02 0.20372859845E+02 0.20766728153E+02
 0.20372859845E+02 0.19351489037E+02 0.17909882593E+02 0.16245389837E+02 0.14643356009E+02
 0.13353168555E+02 0.12534094362E+02 0.12255693627E+02 0.12534094362E+02 0.13353168555E+02
 0.14643356009E+02 0.16245389837E+02 0.17909882593E+02 0.19351489037E+02 0.20372859845E+02
 0.36227277514E+02 0.34379215173E+02 0.29829528330E+02 0.24808897859E+02 0.21034420549E+02
 0.18220967407E+02 0.15703738219E+02 0.13765940235E+02 0.12534094362E+02 0.11959204441E+02
 0.11916928168E+02 0.12280402697E+02 0.12927590056E+02 0.13715176454E+02 0.14469206064E+02
 0.15012012583E+02 0.15209555383E+02 0.15012012583E+02 0.14469206064E+02 0.13715176454E+02
 0.12927590056E+02 0.12280402697E+02 0.11916928168E+02 0.11959204441E+02 0.12534094362E+02
 0.13765940235E+02 0.15703738219E+02 0.18220967407E+02 0.21034420549E+02 0.24808897859E+02
 0.29829528330E+02 0.34379215173E+02 0.82697360386E+02 0.77141830419E+02 0.62861641789E+02
 0.45653764656E+02 0.31472826769E+02 0.23168988357E+02 0.18957880584E+02 0.15703738219E+02
 0.13353168555E+02 0.11916928168E+02 0.11175563958E+02 0.10891343700E+02 0.10900712246E+02
 0.11085405474E+02 0.11329258292E+02 0.11523817802E+02 0.11596693803E+02 0.11523817802E+02
 0.11329258292E+02 0.11085405474E+02 0.10900712246E+02 0.10891343700E+02 0.11175563958E+02
 0.11916928168E+02 0.13353168555E+02 0.15703738219E+02 0.18957880584E+02 0.23168988357E+02
 0.31472826769E+02 0.45653764656E+02 0.62861641789E+02 0.77141830419E+02 0.17589483076E+03
 0.16416757498E+03 0.13330796981E+03 0.94098601133E+02 0.58568524693E+02 0.34653474245E+02
 0.23168988357E+02 0.18220967407E+02 0.14643356009E+02 0.12280402697E+02 0.10891343700E+02
 0.10111137834E+02 0.96972640504E+01 0.95079219667E+01 0.94279286500E+01 0.93834678707E+01
 0.93653324438E+01 0.93834678707E+01 0.94279286500E+01 0.95079219667E+01 0.96972640504E+01
 0.10111137834E+02 0.10891343700E+02 0.12280402697E+02 0.14643356009E+02 0.18220967407E+02
 0.23168988357E+02 0.34653474245E+02 0.58568524693E+02 0.94098601133E+02 0.13330796981E+03
 0.16416757498E+03 0.31755498285E+03 0.29749940257E+03 0.24409423486E+03 0.17433475838E+03
 0.10772686276E+03 0.58568524693E+02 0.31472826769E+02 0.21034420549E+02 0.16245389837E+02
 0.12927590056E+02 0.10900712246E+02 0.96972640504E+01 0.89911736707E+01 0.85940843799E+01
 0.83431492167E+01 0.81565242249E+01 0.80784371307E+01 0.81565242249E+01 0.83431492167E+01
 0.85940843799E+01 0.89911736707E+01 0.96972640504E+01 0.10900712246E+02 0.12927590056E+02
 0.16245389837E+02 0.21034420549E+02 0.31472826769E+02 0.58568524693E+02 0.10772686276E+03
 0.17433475838E+03 0.24409423486E+03 0.29749940257E+03 0.49192106758E+03 0.46224136476E+03
 0.38278282571E+03 0.27758233679E+03 0.17433475838E+03 0.94098601133E+02 0.45653764656E+02
 0.24808897859E+02 0.17909882593E+02 0.13715176454E+02 0.11085405474E+02 0.95079219667E+01
 0.85940843799E+01 0.81053765424E+01 0.77980588535E+01 0.75457236276E+01 0.74330044707E+01
 0.75457236276E+01 0.77980588535E+01 0.81053765424E+01 0.85940843799E+01 0.95079219667E+01
 0.11085405474E+02 0.13715176454E+02 0.17909882593E+02 0.24808897859E+02 0.45653764656E+02
 0.94098601133E+02 0.17433475838E+03 0.27758233679E+03 0.38278282571E+03 0.46224136476E+03
 0.66599670346E+03 0.62695076762E+03 0.52222187955E+03 0.38278282571E+03 0.24409423486E+03
 0.13330796981E+03 0.62861641789E+02 0.29829528330E+02 0.19351489037E+02 0.14469206064E+02
 0.11329258292E+02 0.94279286500E+01 0.83431492167E+01 0.77980588535E+01 0.74666196155E+01
 0.71706902158E+01 0.70309641744E+01 0.71706902158E+01 0.74666196155E+01 0.77980588535E+01
 0.83431492167E+01 0.94279286500E+01 0.11329258292E+02 0.14469206064E+02 0.19351489037E+02
 0.29829528330E+02 0.62861641789E+02 0.13330796981E+03 0.24409423486E+03 0.38278282571E+03
 0.52222187955E+03 0.62695076762E+03 0.79646024664E+03 0.75043688714E+03 0.62695076762E+03
 0.46224136476E+03 0.29749940257E+03 0.16416757498E+03 0.77141830419E+02 0.34379215173E+02
 0.20372859845E+02 0.15012012583E+02 0.11523817802E+02 0.93834678707E+01 0.81565242249E+01
 0.75457236276E+01 0.71706902158E+01 0.68219515682E+01 0.66542315031E+01 0.68219515682E+01
 0.71706902158E+01 0.75457236276E+01 0.81565242249E+01 0.93834678707E+01 0.11523817802E+02
 0.15012012583E+02 0.20372859845E+02 0.34379215173E+02 0.77141830419E+02 0.16416757498E+03
 0.29749940257E+03 0.46224136476E+03 0.62695076762E+03 0.75043688714E+03 0.79646024664E+03
 0.75043688714E+03 0.62695076762E+03 0.46224136476E+03 0.29749940257E+03 0.16416757498E+03
 0.77141830419E+02 0.34379215173E+02 0.20372859845E+02 0.15012012583E+02 0.11523817802E+02
 0.93834678707E+01 0.81565242249E+01 0.75457236276E+01 0.71706902158E+01 0.68219515682E+01
 0.66542315031E+01 0.68219515682E+01 0.71706902158E+01 0.75457236276E+01 0.81565242249E+01
 0.93834678707E+01 0.11523817802E+02 0.15012012583E+02 0.20372859845E+02 0.34379215173E+02
 0.77141830419E+02 0.16416757498E+03 0.29749940257E+03 0.46224136476E+03 0.62695076762E+03
 0.75043688714E+03 0.75043688714E+03 0.70687629706E+03 0.59000336834E+03 0.43418642250E+03
 0.27859540078E+03 0.15318028937E+03 0.71996946294E+02 0.32702768156E+02 0.20005944279E+02
 0.14819119072E+02 0.11451948173E+02 0.93985743972E+01 0.82282289492E+01 0.76497112143E+01
 0.72996907082E+01 0.69770000643E+01 0.68219515682E+01 0.69770000643E+01 0.72996907082E+01
 0.76497112143E+01 0.82282289492E+01 0.93985743972E+01 0.11451948173E+02 0.14819119072E+02
 0.20005944279E+02 0.32702768156E+02 0.71996946294E+02 0.15318028937E+03 0.27859540078E+03
 0.43418642250E+03 0.59000336834E+03 0.70687629706E+03 0.62695076762E+03 0.59000336834E+03
 0.49092495455E+03 0.35911638076E+03 0.22830408699E+03 0.12431277269E+03 0.58805516817E+02
 0.28588469461E+02 0.19031433822E+02 0.14290027773E+02 0.11260928185E+02 0.94364367195E+01
 0.84006847066E+01 0.78834147799E+01 0.75734603984E+01 0.72996907082E+01 0.71706902158E+01
 0.72996907082E+01 0.75734603984E+01 0.78834147799E+01 0.84006847066E+01 0.94364367195E+01
 0.11260928185E+02 0.14290027773E+02 0.19031433822E+02 0.28588469461E+02 0.58805516817E+02
 0.12431277269E+03 0.22830408699E+03 0.35911638076E+03 0.49092495455E+03 0.59000336834E+03
 0.46224136476E+03 0.43418642250E+03 0.35911638076E+03 0.25986639293E+03 0.16276235163E+03
 0.87766126921E+02 0.42998585259E+02 0.24067400286E+02 0.17620932466E+02 0.13557272853E+02
 0.11023001276E+02 0.95093153087E+01 0.86361471759E+01 0.81716521734E+01 0.78834147799E+01
 0.76497112143E+01 0.75457236276E+01 0.76497112143E+01 0.78834147799E+01 0.81716521734E+01
 0.86361471759E+01 0.95093153087E+01 0.11023001276E+02 0.13557272853E+02 0.17620932466E+02
 0.24067400286E+02 0.42998585259E+02 0.87766126921E+02 0.16276235163E+03 0.25986639293E+03
 0.35911638076E+03 0.43418642250E+03 0.29749940257E+03 0.27859540078E+03 0.22830408699E+03
 0.16276235163E+03 0.10046501471E+03 0.54871003875E+02 0.30095120087E+02 0.20631448244E+02
 0.15999783214E+02 0.12794602729E+02 0.10843650800E+02 0.96889579038E+01 0.90138567534E+01
 0.86361471759E+01 0.84006847066E+01 0.82282289492E+01 0.81565242249E+01 0.82282289492E+01
 0.84006847066E+01 0.86361471759E+01 0.90138567534E+01 0.96889579038E+01 0.10843650800E+02
 0.12794602729E+02 0.15999783214E+02 0.20631448244E+02 0.30095120087E+02 0.54871003875E+02
 0.10046501471E+03 0.16276235163E+03 0.22830408699E+03 0.27859540078E+03 0.16416757498E+03
 0.15318028937E+03 0.12431277269E+03 0.87766126921E+02 0.54871003875E+02 0.32982587236E+02
 0.22602595155E+02 0.17910953955E+02 0.14447089174E+02 0.12170026085E+02 0.10834143682E+02
 0.10085130605E+02 0.96889579038E+01 0.95093153087E+01 0.94364367195E+01 0.93985743972E+01
 0.93834678707E+01 0.93985743972E+01 0.94364367195E+01 0.95093153087E+01 0.96889579038E+01
 0.10085130605E+02 0.10834143682E+02 0.12170026085E+02 0.14447089174E+02 0.17910953955E+02
 0.22602595155E+02 0.32982587236E+02 0.54871003875E+02 0.87766126921E+02 0.12431277269E+03
 0.15318028937E+03 0.77141830419E+02 0.71996946294E+02 0.58805516817E+02 0.42998585259E+02
 0.30095120087E+02 0.22602595155E+02 0.18625093191E+02 0.15468687736E+02 0.13201853316E+02
 0.11820345352E+02 0.11107476441E+02 0.10834143682E+02 0.10843650800E+02 0.11023001276E+02
 0.11260928185E+02 0.11451948173E+02 0.11523817802E+02 0.11451948173E+02 0.11260928185E+02
 0.11023001276E+02 0.10843650800E+02 0.10834143682E+02 0.11107476441E+02 0.11820345352E+02
 0.13201853316E+02 0.15468687736E+02 0.18625093191E+02 0.22602595155E+02 0.30095120087E+02
 0.42998585259E+02 0.58805516817E+02 0.71996946294E+02 0.34379215173E+02 0.32702768156E+02
 0.28588469461E+02 0.24067400286E+02 0.20631448244E+02 0.17910953955E+02 0.15468687736E+02
 0.13598652797E+02 0.12413730088E+02 0.11861269113E+02 0.11820345352E+02 0.12170026085E+02
 0.12794602729E+02 0.13557272853E+02 0.14290027773E+02 0.14819119072E+02 0.15012012583E+02
 0.14819119072E+02 0.14290027773E+02 0.13557272853E+02 0.12794602729E+02 0.12170026085E+02
 0.11820345352E+02 0.11861269113E+02 0.12413730088E+02 0.13598652797E+02 0.15468687736E+02
 0.17910953955E+02 0.20631448244E+02 0.24067400286E+02 0.28588469461E+02 0.32702768156E+02
 0.20372859845E+02 0.20005944279E+02 0.19031433822E+02 0.17620932466E+02 0.15999783214E+02
 0.14447089174E+02 0.13201853316E+02 0.12413730088E+02 0.12146285224E+02 0.12413730088E+02
 0.13201853316E+02 0.14447089174E+02 0.15999783214E+02 0.17620932466E+02 0.19031433822E+02
 0.20005944279E+02 0.20372859845E+02 0.20005944279E+02 0.19031433822E+02 0.17620932466E+02
 0.15999783214E+02 0.14447089174E+02 0.13201853316E+02 0.12413730088E+02 0.12146285224E+02
 0.12413730088E+02 0.13201853316E+02 0.14447089174E+02 0.15999783214E+02 0.17620932466E+02
 0.19031433822E+02 0.20005944279E+02 0.15012012583E+02 0.14819119072E+02 0.14290027773E+02
 0.13557272853E+02 0.12794602729E+02 0.12170026085E+02 0.11820345352E+02 0.11861269113E+02
 0.12413730088E+02 0.13598652797E+02 0.15468687736E+02 0.17910953955E+02 0.20631448244E+02
 0.24067400286E+02 0.28588469461E+02 0.32702768156E+02 0.34379215173E+02 0.32702768156E+02
 0.28588469461E+02 0.24067400286E+02 0.20631448244E+02 0.17910953955E+02 0.15468687736E+02
 0.13598652797E+02 0.12413730088E+02 0.11861269113E+02 0.11820345352E+02 0.12170026085E+02
 0.12794602729E+02 0.13557272853E+02 0.14290027773E+02 0.14819119072E+02 0.11523817802E+02
 0.11451948173E+02 0.11260928185E+02 0.11023001276E+02 0.10843650800E+02 0.10834143682E+02
 0.11107476441E+02 0.11820345352E+02 0.13201853316E+02 0.15468687736E+02 0.18625093191E+02
 0.22602595155E+02 0.30095120087E+02 0.42998585259E+02 0.58805516817E+02 0.71996946294E+02
 0.77141830419E+02 0.71996946294E+02 0.58805516817E+02 0.42998585259E+02 0.30095120087E+02
 0.22602595155E+02 0.18625093191E+02 0.15468687736E+02 0.13201853316E+02 0.11820345352E+02
 0.11107476441E+02 0.10834143682E+02 0.10843650800E+02 0.11023001276E+02 0.11260928185E+02
 0.11451948173E+02 0.93834678707E+01 0.93985743972E+01 0.94364367195E+01 0.95093153087E+01
 0.96889579038E+01 0.10085130605E+02 0.10834143682E+02 0.12170026085E+02 0.14447089174E+02
 0.17910953955E+02 0.22602595155E+02 0.32982587236E+02 0.54871003875E+02 0.87766126921E+02
 0.12431277269E+03 0.15318028937E+03 0.16416757498E+03 0.15318028937E+03 0.12431277269E+03
 0.87766126921E+02 0.54871003875E+02 0.32982587236E+02 0.22602595155E+02 0.17910953955E+02
 0.14447089174E+02 0.12170026085E+02 0.10834143682E+02 0.10085130605E+02 0.96889579038E+01
 0.95093153087E+01 0.94364367195E+01 0.93985743972E+01 0.81565242249E+01 0.82282289492E+01
 0.84006847066E+01 0.86361471759E+01 0.90138567534E+01 0.96889579038E+01 0.10843650800E+02
 0.12794602729E+02 0.15999783214E+02 0.20631448244E+02 0.30095120087E+02 0.54871003875E+02
 0.10046501471E+03 0.16276235163E+03 0.22830408699E+03 0.27859540078E+03 0.29749940257E+03
 0.27859540078E+03 0.22830408699E+03 0.16276235163E+03 0.10046501471E+03 0.54871003875E+02
 0.30095120087E+02 0.20631448244E+02 0.15999783214E+02 0.12794602729E+02 0.10843650800E+02
 0.96889579038E+01 0.90138567534E+01 0.86361471759E+01 0.84006847066E+01 0.82282289492E+01
 0.75457236276E+01 0.76497112143E+01 0.78834147799E+01 0.81716521734E+01 0.86361471759E+01
 0.95093153087E+01 0.11023001276E+02 0.13557272853E+02 0.17620932466E+02 0.24067400286E+02
 0.42998585259E+02 0.87766126921E+02 0.16276235163E+03 0.25986639293E+03 0.35911638076E+03
 0.43418642250E+03 0.46224136476E+03 0.43418642250E+03 0.35911638076E+03 0.25986639293E+03
 0.16276235163E+03 0.87766126921E+02 0.42998585259E+02 0.24067400286E+02 0.17620932466E+02
 0.13557272853E+02 0.11023001276E+02 0.95093153087E+01 0.86361471759E+01 0.81716521734E+01
 0.78834147799E+01 0.76497112143E+01 0.71706902158E+01 0.72996907082E+01 0.75734603984E+01
 0.78834147799E+01 0.84006847066E+01 0.94364367195E+01 0.11260928185E+02 0.14290027773E+02
 0.19031433822E+02 0.28588469461E+02 0.58805516817E+02 0.12431277269E+03 0.22830408699E+03
 0.35911638076E+03 0.49092495455E+03 0.59000336834E+03 0.62695076762E+03 0.59000336834E+03
 0.49092495455E+03 0.35911638076E+03 0.22830408699E+03 0.12431277269E+03 0.58805516817E+02
 0.28588469461E+02 0.19031433822E+02 0.14290027773E+02 0.11260928185E+02 0.94364367195E+01
 0.84006847066E+01 0.78834147799E+01 0.75734603984E+01 0.72996907082E+01 0.68219515682E+01
 0.69770000643E+01 0.72996907082E+01 0.76497112143E+01 0.82282289492E+01 0.93985743972E+01
 0.11451948173E+02 0.14819119072E+02 0.20005944279E+02 0.32702768156E+02 0.71996946294E+02
 0.15318028937E+03 0.27859540078E+03 0.43418642250E+03 0.59000336834E+03 0.70687629706E+03
 0.75043688714E+03 0.70687629706E+03 0.59000336834E+03 0.43418642250E+03 0.27859540078E+03
 0.15318028937E+03 0.71996946294E+02 0.32702768156E+02 0.20005944279E+02 0.14819119072E+02
 0.11451948173E+02 0.93985743972E+01 0.82282289492E+01 0.76497112143E+01 0.72996907082E+01
 0.69770000643E+01 0.66542315031E+01 0.68219515682E+01 0.71706902158E+01 0.75457236276E+01
 0.81565242249E+01 0.93834678707E+01 0.11523817802E+02 0.15012012583E+02 0.20372859845E+02
 0.34379215173E+02 0.77141830419E+02 0.16416757498E+03 0.29749940257E+03 0.46224136476E+03
 0.62695076762E+03 0.75043688714E+03 0.79646024664E+03 0.75043688714E+03 0.62695076762E+03
 0.46224136476E+03 0.29749940257E+03 0.16416757498E+03 0.77141830419E+02 0.34379215173E+02
 0.20372859845E+02 0.15012012583E+02 0.11523817802E+02 0.93834678707E+01 0.81565242249E+01
 0.75457236276E+01 0.71706902158E+01 0.68219515682E+01 0.68219515682E+01 0.69770000643E+01
 0.72996907082E+01 0.76497112143E+01 0.82282289492E+01 0.93985743972E+01 0.11451948173E+02
 0.14819119072E+02 0.20005944279E+02 0.32702768156E+02 0.71996946294E+02 0.15318028937E+03
 0.27859540078E+03 0.43418642250E+03 0.59000336834E+03 0.70687629706E+03 0.75043688714E+03
 0.70687629706E+03 0.59000336834E+03 0.43418642250E+03 0.27859540078E+03 0.15318028937E+03
 0.71996946294E+02 0.32702768156E+02 0.20005944279E+02 0.14819119072E+02 0.11451948173E+02
 0.93985743972E+01 0.82282289492E+01 0.76497112143E+01 0.72996907082E+01 0.69770000643E+01
 0.71706902158E+01 0.72996907082E+01 0.75734603984E+01 0.78834147799E+01 0.84006847066E+01
 0.94364367195E+01 0.11260928185E+02 0.14290027773E+02 0.19031433822E+02 0.28588469461E+02
 0.58805516817E+02 0.12431277269E+03 0.22830408699E+03 0.35911638076E+03 0.49092495455E+03
 0.59000336834E+03 0.62695076762E+03 0.59000336834E+03 0.49092495455E+03 0.35911638076E+03
 0.22830408699E+03 0.12431277269E+03 0.58805516817E+02 0.28588469461E+02 0.19031433822E+02