   4   4   0   0
  0.1200752E+02  0.3635000E-09  0.3635000E-09  0.3635000E-09  0.5000000E-15
  1.000000000000000E-004
  CAR 
 unknown system                          
     27.68229922     -3.84533862  301      7.24413609      1.00000000
     -3.845  0.0000E+00  0.0000E+00
     -3.740  0.0000E+00  0.0000E+00
     -3.635  0.0000E+00  0.0000E+00
     -3.530 -0.5522E-31 -0.5803E-32
     -3.425 -0.2746E-27 -0.2886E-28
     -3.320 -0.7827E-24 -0.8229E-25
     -3.215 -0.1278E-20 -0.1344E-21
     -3.110 -0.1193E-17 -0.1256E-18
     -3.005 -0.6201E-15 -0.6530E-16
     -2.900 -0.1872E-12 -0.1973E-13
     -2.794 -0.3218E-10 -0.3402E-11
     -2.689 -0.3130E-08 -0.3323E-09
     -2.584 -0.1710E-06 -0.1830E-07
     -2.479 -0.5183E-05 -0.5630E-06
     -2.374 -0.8530E-04 -0.9527E-05
     -2.269 -0.7252E-03 -0.8574E-04
     -2.164 -0.2748E-02 -0.3745E-03
     -2.059 -0.1126E-02 -0.4928E-03
     -1.954  0.2098E-01  0.1712E-02
     -1.849  0.5611E-01  0.7609E-02
     -1.743  0.5013E-01  0.1288E-01
     -1.638  0.3484E-02  0.1324E-01
     -1.533  0.3365E-01  0.1678E-01
     -1.428  0.2292E+00  0.4087E-01
     -1.323  0.3801E+00  0.8081E-01
     -1.218  0.2309E+00  0.1051E+00
     -1.113  0.4449E-01  0.1098E+00
     -1.008  0.2521E+00  0.1363E+00
     -0.903  0.6898E+00  0.2087E+00
     -0.798  0.6774E+00  0.2799E+00
     -0.693  0.2413E+00  0.3053E+00
     -0.587  0.1030E+00  0.3161E+00
     -0.482  0.3749E+00  0.3555E+00
     -0.377  0.4865E+00  0.4066E+00
     -0.272  0.2288E+00  0.4307E+00
     -0.167  0.6404E-01  0.4374E+00
     -0.062  0.2235E+00  0.4609E+00
      0.043  0.3406E+00  0.4967E+00
      0.148  0.1631E+00  0.5138E+00
      0.253  0.2254E+00  0.5375E+00
      0.358  0.9857E+00  0.6411E+00
      0.463  0.1490E+01  0.7977E+00
      0.569  0.9381E+00  0.8963E+00
      0.674  0.6427E+00  0.9638E+00
      0.779  0.1286E+01  0.1099E+01
      0.884  0.1398E+01  0.1246E+01
      0.989  0.5764E+00  0.1306E+01
      1.094 -0.1150E-01  0.1305E+01
      1.199 -0.9691E-01  0.1295E+01
      1.304 -0.7004E-01  0.1288E+01
      1.409  0.7093E-01  0.1295E+01
      1.514  0.5085E+00  0.1349E+01
      1.619  0.1210E+01  0.1476E+01
      1.725  0.1920E+01  0.1678E+01
      1.830  0.1821E+01  0.1869E+01
      1.935  0.9995E+00  0.1974E+01
      2.040  0.1119E+01  0.2092E+01
      2.145  0.2008E+01  0.2303E+01
      2.250  0.2196E+01  0.2533E+01
      2.355  0.1774E+01  0.2720E+01
      2.460  0.1477E+01  0.2875E+01
      2.565  0.2159E+01  0.3102E+01
      2.670  0.4091E+01  0.3532E+01
      2.775  0.6196E+01  0.4183E+01
      2.881  0.6710E+01  0.4888E+01
      2.986  0.5584E+01  0.5475E+01
      3.091  0.4429E+01  0.5940E+01
      3.196  0.5491E+01  0.6517E+01
      3.301  0.9181E+01  0.7482E+01
      3.406  0.1069E+02  0.8606E+01
      3.511  0.9136E+01  0.9566E+01
      3.616  0.9147E+01  0.1053E+02
      3.721  0.9227E+01  0.1150E+02
      3.826  0.7308E+01  0.1227E+02
      3.931  0.7535E+01  0.1306E+02
      4.037  0.1067E+02  0.1418E+02
      4.142  0.1324E+02  0.1557E+02
      4.247  0.1533E+02  0.1718E+02
      4.352  0.1675E+02  0.1894E+02
      4.457  0.1648E+02  0.2067E+02
      4.562  0.1526E+02  0.2228E+02
      4.667  0.1291E+02  0.2363E+02
      4.772  0.1126E+02  0.2482E+02
      4.877  0.1224E+02  0.2610E+02
      4.982  0.1417E+02  0.2759E+02
      5.087  0.1414E+02  0.2908E+02
      5.193  0.1429E+02  0.3058E+02
      5.298  0.1636E+02  0.3230E+02
      5.403  0.1483E+02  0.3386E+02
      5.508  0.1158E+02  0.3507E+02
      5.613  0.1436E+02  0.3658E+02
      5.718  0.1945E+02  0.3863E+02
      5.823  0.1771E+02  0.4049E+02
      5.928  0.1045E+02  0.4159E+02
      6.033  0.5156E+01  0.4213E+02
      6.138  0.3131E+01  0.4246E+02
      6.244  0.2221E+01  0.4269E+02
      6.349  0.1366E+01  0.4283E+02
      6.454  0.4281E+00  0.4288E+02
      6.559 -0.7201E-01  0.4287E+02
      6.664 -0.5737E-01  0.4287E+02
      6.769  0.1280E+00  0.4288E+02
      6.874  0.1425E+00  0.4289E+02
      6.979  0.3125E+00  0.4293E+02
      7.084  0.2165E+01  0.4315E+02
      7.189  0.5071E+01  0.4369E+02
      7.294  0.5257E+01  0.4424E+02
      7.400  0.2482E+01  0.4450E+02
      7.505  0.2357E+00  0.4453E+02
      7.610 -0.2840E+00  0.4450E+02
      7.715  0.1933E+00  0.4452E+02
      7.820  0.1155E+01  0.4464E+02
      7.925  0.1536E+01  0.4480E+02
      8.030  0.8015E+00  0.4488E+02
      8.135  0.2826E-01  0.4489E+02
      8.240 -0.1480E+00  0.4487E+02
      8.345  0.2473E+00  0.4490E+02
      8.450  0.1114E+01  0.4501E+02
      8.556  0.1431E+01  0.4516E+02
      8.661  0.8976E+00  0.4526E+02
      8.766  0.1158E+01  0.4538E+02
      8.871  0.2216E+01  0.4561E+02
      8.976  0.2036E+01  0.4583E+02
      9.081  0.7336E+00  0.4590E+02
      9.186 -0.6858E-01  0.4590E+02
      9.291 -0.1753E+00  0.4588E+02
      9.396  0.1345E+00  0.4589E+02
      9.501  0.9039E+00  0.4599E+02
      9.606  0.1411E+01  0.4614E+02
      9.712  0.1559E+01  0.4630E+02
      9.817  0.2646E+01  0.4658E+02
      9.922  0.3511E+01  0.4695E+02
     10.027  0.2329E+01  0.4719E+02
     10.132  0.6068E+00  0.4725E+02
     10.237 -0.8501E-01  0.4725E+02
     10.342 -0.1005E+00  0.4724E+02
     10.447 -0.4240E-01  0.4723E+02
     10.552 -0.4316E-01  0.4723E+02
     10.657  0.3953E-01  0.4723E+02
     10.762  0.4077E+00  0.4727E+02
     10.868  0.7696E+00  0.4735E+02
     10.973  0.5823E+00  0.4742E+02
     11.078  0.1238E+00  0.4743E+02
     11.183 -0.1076E+00  0.4742E+02
     11.288 -0.2313E-01  0.4741E+02
     11.393  0.5846E+00  0.4748E+02
     11.498  0.1378E+01  0.4762E+02
     11.603  0.1491E+01  0.4778E+02
     11.708  0.1458E+01  0.4793E+02
     11.813  0.1883E+01  0.4813E+02
     11.918  0.2086E+01  0.4835E+02
     12.024  0.1656E+01  0.4852E+02
     12.129  0.9899E+00  0.4863E+02
     12.234  0.6163E+00  0.4869E+02
     12.339  0.7595E+00  0.4877E+02
     12.444  0.1981E+01  0.4898E+02
     12.549  0.3022E+01  0.4930E+02
     12.654  0.2024E+01  0.4951E+02
     12.759  0.8657E+00  0.4960E+02
     12.864  0.1190E+01  0.4972E+02
     12.969  0.1334E+01  0.4987E+02
     13.074  0.6146E+00  0.4993E+02
     13.180  0.2818E+00  0.4996E+02
     13.285  0.4448E+00  0.5001E+02
     13.390  0.3520E+00  0.5004E+02
     13.495  0.4314E-01  0.5005E+02
     13.600 -0.1670E+00  0.5003E+02
     13.705 -0.1284E-01  0.5003E+02
     13.810  0.1212E+01  0.5016E+02
     13.915  0.2900E+01  0.5046E+02
     14.020  0.2685E+01  0.5074E+02
     14.125  0.8928E+00  0.5084E+02
     14.231 -0.1253E+00  0.5082E+02
     14.336 -0.3432E-01  0.5082E+02
     14.441  0.7001E+00  0.5089E+02
     14.546  0.1743E+01  0.5108E+02
     14.651  0.2026E+01  0.5129E+02
     14.756  0.1185E+01  0.5141E+02
     14.861  0.6585E+00  0.5148E+02
     14.966  0.1151E+01  0.5160E+02
     15.071  0.1500E+01  0.5176E+02
     15.176  0.1550E+01  0.5192E+02
     15.281  0.1901E+01  0.5212E+02
     15.387  0.2008E+01  0.5234E+02
     15.492  0.2401E+01  0.5259E+02
     15.597  0.3081E+01  0.5291E+02
     15.702  0.2174E+01  0.5314E+02
     15.807  0.4482E+00  0.5319E+02
     15.912 -0.1842E+00  0.5317E+02
     16.017  0.3542E+00  0.5321E+02
     16.122  0.1306E+01  0.5334E+02
     16.227  0.1405E+01  0.5349E+02
     16.332  0.5955E+00  0.5355E+02
     16.437  0.3366E+00  0.5359E+02
     16.543  0.9097E+00  0.5368E+02
     16.648  0.1354E+01  0.5383E+02
     16.753  0.1500E+01  0.5398E+02
     16.858  0.1753E+01  0.5417E+02
     16.963  0.2000E+01  0.5438E+02
     17.068  0.2268E+01  0.5462E+02
     17.173  0.2348E+01  0.5486E+02
     17.278  0.1731E+01  0.5504E+02
     17.383  0.8060E+00  0.5513E+02
     17.488  0.2780E+00  0.5516E+02
     17.593  0.2821E+00  0.5519E+02
     17.699  0.9186E+00  0.5529E+02
     17.804  0.1429E+01  0.5544E+02
     17.909  0.1015E+01  0.5554E+02
     18.014  0.1029E+01  0.5565E+02
     18.119  0.2185E+01  0.5588E+02
     18.224  0.2848E+01  0.5618E+02
     18.329  0.2203E+01  0.5641E+02
     18.434  0.9520E+00  0.5651E+02
     18.539  0.3655E+00  0.5655E+02
     18.644  0.1211E+01  0.5668E+02
     18.749  0.2424E+01  0.5693E+02
     18.855  0.2459E+01  0.5719E+02
     18.960  0.1450E+01  0.5734E+02
     19.065  0.1493E+01  0.5750E+02
     19.170  0.3448E+01  0.5786E+02
     19.275  0.4259E+01  0.5831E+02
     19.380  0.2283E+01  0.5855E+02
     19.485  0.2724E+00  0.5858E+02
     19.590 -0.2094E+00  0.5856E+02
     19.695 -0.9045E-01  0.5855E+02
     19.800 -0.2096E-01  0.5854E+02
     19.905 -0.4104E-01  0.5854E+02
     20.011 -0.1076E+00  0.5853E+02
     20.116  0.5256E-01  0.5853E+02
     20.221  0.9651E+00  0.5863E+02
     20.326  0.2305E+01  0.5888E+02
     20.431  0.2691E+01  0.5916E+02
     20.536  0.1669E+01  0.5934E+02
     20.641  0.4152E+00  0.5938E+02
     20.746 -0.8440E-01  0.5937E+02
     20.851 -0.7590E-01  0.5936E+02
     20.956 -0.1790E-01  0.5936E+02
     21.061 -0.2009E-02  0.5936E+02
     21.167 -0.1188E-03  0.5936E+02
     21.272 -0.3848E-05  0.5936E+02
     21.377 -0.6942E-07  0.5936E+02
     21.482 -0.3016E-08  0.5936E+02
     21.587 -0.1972E-06  0.5936E+02
     21.692 -0.9429E-05  0.5936E+02
     21.797 -0.2492E-03  0.5936E+02
     21.902 -0.3548E-02  0.5936E+02
     22.007 -0.2559E-01  0.5936E+02
     22.112 -0.7604E-01  0.5935E+02
     22.218  0.3699E-01  0.5935E+02
     22.323  0.7112E+00  0.5943E+02
     22.428  0.1503E+01  0.5959E+02
     22.533  0.1262E+01  0.5972E+02
     22.638  0.3724E+00  0.5976E+02
     22.743 -0.5558E-01  0.5975E+02
     22.848 -0.5673E-01  0.5975E+02
     22.953 -0.1280E-01  0.5974E+02
     23.058 -0.1341E-02  0.5974E+02
     23.163 -0.7345E-04  0.5974E+02
     23.268 -0.2194E-05  0.5974E+02
     23.374 -0.3645E-07  0.5974E+02
     23.479 -0.3407E-09  0.5974E+02
     23.584 -0.1803E-11  0.5974E+02
     23.689 -0.5679E-14  0.5974E+02
     23.794  0.0000E+00  0.5974E+02
     23.899  0.0000E+00  0.5974E+02
     24.004 -0.1520E-29  0.5974E+02
     24.109 -0.7303E-26  0.5974E+02
     24.214 -0.2011E-22  0.5974E+02
     24.319 -0.3172E-19  0.5974E+02
     24.424 -0.2862E-16  0.5974E+02
     24.530 -0.1435E-13  0.5974E+02
     24.635 -0.4185E-11  0.5974E+02
     24.740 -0.6948E-09  0.5974E+02
     24.845 -0.6522E-07  0.5974E+02
     24.950 -0.3437E-05  0.5974E+02
     25.055 -0.1004E-03  0.5974E+02
     25.160 -0.1589E-02  0.5974E+02
     25.265 -0.1293E-01  0.5974E+02
     25.370 -0.4606E-01  0.5974E+02
     25.475 -0.8405E-02  0.5974E+02
     25.580  0.3733E+00  0.5978E+02
     25.686  0.9473E+00  0.5988E+02
     25.791  0.9217E+00  0.5997E+02
     25.896  0.3377E+00  0.6001E+02
     26.001 -0.1793E-01  0.6001E+02
     26.106 -0.4396E-01  0.6000E+02
     26.211 -0.1160E-01  0.6000E+02
     26.316 -0.1365E-02  0.6000E+02
     26.421 -0.8293E-04  0.6000E+02
     26.526 -0.2735E-05  0.6000E+02
     26.631 -0.5008E-07  0.6000E+02
     26.736 -0.5149E-09  0.6000E+02
     26.842 -0.2994E-11  0.6000E+02
     26.947 -0.9736E-14  0.6000E+02
     27.052  0.0000E+00  0.6000E+02
     27.157  0.0000E+00  0.6000E+02
     27.262  0.0000E+00  0.6000E+02
     27.367  0.0000E+00  0.6000E+02
     27.472  0.0000E+00  0.6000E+02
     27.577  0.0000E+00  0.6000E+02
     27.682  0.0000E+00  0.6000E+02
