unknown system                          
   1.00000000000000     
     2.260100    0.000000    0.000000
    -1.130050    1.957304    0.000000
     0.000000    0.000000    4.136080
   Fe
     2
Direct
  0.000000  0.000000  0.000000
  0.333333  0.666667  0.500000
 
   20   20   36
 0.15364367359E+03 0.14604309470E+03 0.12549467780E+03 0.97594522679E+02 0.68724064924E+02
 0.43890848767E+02 0.25866509507E+02 0.15220115219E+02 0.10614990117E+02 0.93675892306E+01
 0.90570283972E+01 0.93676252025E+01 0.10615024937E+02 0.15220121375E+02 0.25866500955E+02
 0.43890857540E+02 0.68724096424E+02 0.97594549989E+02 0.12549467982E+03 0.14604308342E+03
 0.14604646775E+03 0.14604309018E+03 0.13199935548E+03 0.10792759441E+03 0.79886541529E+02
 0.53550883093E+02 0.32734953755E+02 0.19046678387E+02 0.12054521252E+02 0.96675307956E+01
 0.90548300053E+01 0.90546841091E+01 0.96673906272E+01 0.12054587585E+02 0.19046311256E+02
 0.32733659519E+02 0.53550020179E+02 0.79888849686E+02 0.10793405972E+03 0.13200689379E+03
 0.12549967807E+03 0.13198049128E+03 0.12549467917E+03 0.10792759925E+03 0.83994698020E+02
 0.59165816575E+02 0.37846409521E+02 0.22537134251E+02 0.13722026221E+02 0.10080368124E+02
 0.90713633087E+01 0.87729754178E+01 0.90710583593E+01 0.10080433883E+02 0.13722296465E+02
 0.22536327214E+02 0.37844183377E+02 0.59164361427E+02 0.83996895575E+02 0.10793327083E+03
 0.97592238373E+02 0.10787332457E+03 0.10787410020E+03 0.97594532046E+02 0.79886539084E+02
 0.59165811761E+02 0.39737281098E+02 0.24620142926E+02 0.15067126173E+02 0.10544257289E+02
 0.90971555368E+01 0.85613203502E+01 0.85611564723E+01 0.90970725782E+01 0.10544822791E+02
 0.15067996114E+02 0.24620085078E+02 0.39735393248E+02 0.59162499823E+02 0.79883153744E+02
 0.68716866398E+02 0.79806536440E+02 0.83886490248E+02 0.79812200253E+02 0.68724064971E+02
 0.53550873660E+02 0.37846413293E+02 0.24620147450E+02 0.15583028226E+02 0.10857627750E+02
 0.91257248820E+01 0.84311549841E+01 0.81816633041E+01 0.84310636705E+01 0.91257330320E+01
 0.10858359675E+02 0.15584983052E+02 0.24622396695E+02 0.37846415151E+02 0.53546635854E+02
 0.43889985052E+02 0.53481517579E+02 0.59045680485E+02 0.59047537087E+02 0.53484889978E+02
 0.43890844121E+02 0.32734955400E+02 0.22537143244E+02 0.15067121068E+02 0.10857623749E+02
 0.91407254816E+01 0.83724783534E+01 0.79592697781E+01 0.79593323759E+01 0.83722131317E+01
 0.91398724012E+01 0.10857487187E+02 0.15069435243E+02 0.22541372922E+02 0.32737916332E+02
 0.25871499207E+02 0.32704378394E+02 0.37769358233E+02 0.39638530908E+02 0.37767155097E+02
 0.32700148223E+02 0.25866505822E+02 0.19046683098E+02 0.13722022897E+02 0.10544249269E+02
 0.91257313612E+01 0.83724817333E+01 0.78875451139E+01 0.77238897164E+01 0.78878316857E+01
 0.83717672395E+01 0.91235012575E+01 0.10542084579E+02 0.13722296465E+02 0.19050122176E+02
 0.15220056456E+02 0.19049380658E+02 0.22522992309E+02 0.24586843959E+02 0.24584554526E+02
 0.22517986096E+02 0.19045583631E+02 0.15220111896E+02 0.12054524179E+02 0.10080363741E+02
 0.90971605119E+01 0.84311617272E+01 0.79592619542E+01 0.77238868853E+01 0.77243812305E+01
 0.79601399453E+01 0.84309987521E+01 0.90948258801E+01 0.10076325581E+02 0.12051138342E+02
 0.10609731263E+02 0.12070291469E+02 0.13749807427E+02 0.15096684641E+02 0.15610779591E+02
 0.15095254826E+02 0.13749806085E+02 0.12073717578E+02 0.10614995387E+02 0.96675335135E+01
 0.90713609901E+01 0.85613239838E+01 0.81816568001E+01 0.79593268727E+01 0.78878405360E+01
 0.79601422659E+01 0.81835996565E+01 0.85634680888E+01 0.90713537814E+01 0.96640063025E+01
 0.93674595858E+01 0.96895910073E+01 0.10124683357E+02 0.10606826348E+02 0.10930364226E+02
 0.10931223375E+02 0.10609539238E+02 0.10128776396E+02 0.96929657395E+01 0.93675955274E+01
 0.90548238138E+01 0.87729731376E+01 0.85611583670E+01 0.84310610289E+01 0.83722207544E+01
 0.83717714823E+01 0.84309893673E+01 0.85634663500E+01 0.87773142549E+01 0.90582340506E+01
 0.90620266490E+01 0.90851484554E+01 0.91253979964E+01 0.91739228112E+01 0.92208056670E+01
 0.92438454106E+01 0.92230058549E+01 0.91761553160E+01 0.91251335258E+01 0.90816391035E+01
 0.90570259897E+01 0.90546790258E+01 0.90710655680E+01 0.90970747646E+01 0.91257313612E+01
 0.91398738226E+01 0.91234931075E+01 0.90948230915E+01 0.90713633087E+01 0.90582351588E+01
 0.93674503228E+01 0.90851479426E+01 0.88331489955E+01 0.86490034448E+01 0.85422795161E+01
 0.84982908497E+01 0.84987268827E+01 0.85423332414E+01 0.86467105249E+01 0.88288621948E+01
 0.90817988401E+01 0.93676222363E+01 0.96673946056E+01 0.10080437731E+02 0.10544814772E+02
 0.10858357329E+02 0.10857488842E+02 0.10542084581E+02 0.10076333811E+02 0.96640075630E+01
 0.10609723390E+02 0.96895911129E+01 0.91254064011E+01 0.86490033666E+01 0.83003528932E+01
 0.81006818811E+01 0.80373586604E+01 0.80998841063E+01 0.82984206584E+01 0.86468494327E+01
 0.91254020015E+01 0.96931313563E+01 0.10615022334E+02 0.12054589097E+02 0.13722291373E+02
 0.15067993556E+02 0.15584991525E+02 0.15069437789E+02 0.13722294697E+02 0.12051136927E+02
 0.15220058427E+02 0.12070294016E+02 0.10124690250E+02 0.91739214636E+01 0.85422725157E+01
 0.81006825566E+01 0.78827026159E+01 0.78822256148E+01 0.80998273143E+01 0.85424153573E+01
 0.91761912792E+01 0.10128667572E+02 0.12073660786E+02 0.15220120023E+02 0.19046313295E+02
 0.22536327548E+02 0.24620090658E+02 0.24622397751E+02 0.22541364264E+02 0.19050119504E+02
 0.25871507758E+02 0.19049383319E+02 0.13749805174E+02 0.10606822989E+02 0.92208003196E+01
 0.84982933454E+01 0.80373640668E+01 0.78822245279E+01 0.80370901847E+01 0.84990092710E+01
 0.92230058549E+01 0.10608952325E+02 0.13749510663E+02 0.19045940009E+02 0.25866505822E+02
 0.32733661616E+02 0.37844181518E+02 0.39735390778E+02 0.37846409521E+02 0.32737916784E+02
 0.43889990334E+02 0.32704376722E+02 0.22522984377E+02 0.15096682232E+02 0.10930366811E+02
 0.92438492822E+01 0.84987304821E+01 0.80998809157E+01 0.80998234483E+01 0.84990103747E+01
 0.92447246722E+01 0.10930530559E+02 0.15094396393E+02 0.22518779610E+02 0.32701433251E+02
 0.43890858175E+02 0.53550015227E+02 0.59164358578E+02 0.59162501787E+02 0.53546640336E+02
 0.68716864093E+02 0.53481511641E+02 0.37769353947E+02 0.24586846631E+02 0.15610786392E+02
 0.10931225244E+02 0.92230028992E+01 0.85423293077E+01 0.82984187894E+01 0.85424184240E+01
 0.92230082466E+01 0.10930529842E+02 0.15608872434E+02 0.24584619444E+02 0.37769357677E+02
 0.53485762466E+02 0.68724094166E+02 0.79888850700E+02 0.83996900599E+02 0.79883157205E+02
 0.97592233251E+02 0.79806532587E+02 0.59045683409E+02 0.39638537723E+02 0.24584557203E+02
 0.15095251236E+02 0.10609533714E+02 0.91761540998E+01 0.86467139384E+01 0.86468529245E+01
 0.91761914106E+01 0.10608950159E+02 0.15094395213E+02 0.24584619449E+02 0.39640393741E+02
 0.59048954027E+02 0.79809910824E+02 0.97594554234E+02 0.10793406190E+03 0.10793326816E+03
 0.12549967605E+03 0.10787332836E+03 0.83886495241E+02 0.59047541073E+02 0.37767151367E+02
 0.22517978852E+02 0.13749805174E+02 0.10128780550E+02 0.91251379254E+01 0.88288629956E+01
 0.91253979964E+01 0.10128664832E+02 0.13749512004E+02 0.22518780298E+02 0.37769358233E+02
 0.59048955089E+02 0.83884258474E+02 0.10786764149E+03 0.12549467917E+03 0.13200688689E+03
 0.14604646858E+03 0.13198049992E+03 0.10787410158E+03 0.79812195890E+02 0.53484885517E+02
 0.32700144413E+02 0.19045588148E+02 0.12073724683E+02 0.96929649886E+01 0.90816351591E+01
 0.90817954086E+01 0.96931304997E+01 0.12073665345E+02 0.19045941864E+02 0.32701431114E+02
 0.53485763942E+02 0.79809910315E+02 0.10786763907E+03 0.13197294419E+03 0.14604307973E+03
 0.14576679864E+03 0.13856101048E+03 0.11906837030E+03 0.92578990832E+02 0.65157186343E+02
 0.41597550290E+02 0.24569191487E+02 0.14602181244E+02 0.10360601737E+02 0.92108766254E+01
 0.89058469025E+01 0.92109113636E+01 0.10360635499E+02 0.14602187376E+02 0.24569183062E+02
 0.41597557986E+02 0.65157215709E+02 0.92579016555E+02 0.11906837228E+03 0.13856099990E+03
 0.13856417892E+03 0.13856100601E+03 0.12523886397E+03 0.10238740152E+03 0.75751188524E+02
 0.50745040185E+02 0.31033912242E+02 0.18158629022E+02 0.11666166609E+02 0.94878036856E+01
 0.88977339929E+01 0.88975898783E+01 0.94876650945E+01 0.11666245966E+02 0.18158326205E+02
 0.31032737617E+02 0.50744245371E+02 0.75753348676E+02 0.10239346249E+03 0.12524594087E+03
 0.11907306902E+03 0.12522440148E+03 0.11906837164E+03 0.10238740629E+03 0.79650516526E+02
 0.56066710533E+02 0.35856412304E+02 0.21419276889E+02 0.13192723819E+02 0.98523409581E+01
 0.89107752847E+01 0.86193787672E+01 0.89104696109E+01 0.98523922595E+01 0.13192995850E+02
 0.21418552006E+02 0.35854339225E+02 0.56065335439E+02 0.79652563128E+02 0.10239272608E+03
 0.92576852998E+02 0.10234513238E+03 0.10234585655E+03 0.92579000071E+02 0.75751186118E+02
 0.56066705793E+02 0.37642204998E+02 0.23370298608E+02 0.14431557969E+02 0.10264018685E+02
 0.89349043045E+01 0.84126101631E+01 0.84124489103E+01 0.89348091563E+01 0.10264531369E+02
 0.14432358734E+02 0.23370227679E+02 0.37640414767E+02 0.56063583564E+02 0.75748006099E+02
 0.65150440346E+02 0.75690620104E+02 0.79568890831E+02 0.75695932750E+02 0.65157186402E+02
 0.50745030899E+02 0.35856416034E+02 0.23370303069E+02 0.14908026627E+02 0.10544129431E+02
 0.89593886683E+01 0.82865454583E+01 0.80452300525E+01 0.82864696878E+01 0.89593966957E+01
 0.10544793729E+02 0.14909826606E+02 0.23372391236E+02 0.35856417848E+02 0.50741066352E+02
 0.41596754698E+02 0.50698936328E+02 0.55984200437E+02 0.55985947551E+02 0.50702104137E+02
 0.41597545728E+02 0.31033913876E+02 0.21419285756E+02 0.14431552931E+02 0.10544125481E+02
 0.89717388399E+01 0.82300681022E+01 0.78313270075E+01 0.78314026767E+01 0.82298515611E+01
 0.89709541045E+01 0.10543990442E+02 0.14433719004E+02 0.21423270726E+02 0.31036719924E+02
 0.24573879802E+02 0.31026178996E+02 0.35820764227E+02 0.37592013811E+02 0.35818712152E+02
 0.31022221459E+02 0.24569187858E+02 0.18158633667E+02 0.13192720530E+02 0.10264010762E+02
 0.89593950389E+01 0.82300714325E+01 0.77625506281E+01 0.76054208404E+01 0.77628382080E+01
 0.82294236125E+01 0.89573180729E+01 0.10261992473E+02 0.13192995850E+02 0.18161880564E+02
 0.14602109424E+02 0.18181594927E+02 0.21444158220E+02 0.23387494134E+02 0.23385351245E+02
 0.21439476112E+02 0.18178052950E+02 0.14602177960E+02 0.11666169481E+02 0.98523366207E+01
 0.89349091913E+01 0.82865521062E+01 0.78313193192E+01 0.76054180581E+01 0.76058741303E+01
 0.78321280132E+01 0.82863917367E+01 0.89327235504E+01 0.98485547782E+01 0.11662988995E+02
 0.10355642468E+02 0.11699449243E+02 0.13254655035E+02 0.14507615487E+02 0.14986911797E+02
 0.14506264159E+02 0.13254653713E+02 0.11702683881E+02 0.10360606917E+02 0.94878063561E+01
 0.89107729970E+01 0.84126137560E+01 0.80452236695E+01 0.78313972703E+01 0.77628469191E+01
 0.78321302951E+01 0.80470123843E+01 0.84146124673E+01 0.89107659019E+01 0.94844860748E+01
 0.92107483981E+01 0.95250888906E+01 0.99262305583E+01 0.10367508431E+02 0.10664080782E+02
 0.10664871879E+02 0.10370024339E+02 0.99300544172E+01 0.95282589904E+01 0.92108828375E+01
 0.88977279114E+01 0.86193765418E+01 0.84124507905E+01 0.82864670918E+01 0.82298590591E+01
 0.82294277801E+01 0.82863824928E+01 0.84146107546E+01 0.86234571652E+01 0.89009318635E+01
 0.89105436422E+01 0.89418298080E+01 0.89913087452E+01 0.90481289728E+01 0.90971904055E+01
 0.91196550231E+01 0.90992395682E+01 0.90502018338E+01 0.89910424021E+01 0.89385265977E+01
 0.89058445639E+01 0.88975848860E+01 0.89104767060E+01 0.89348113001E+01 0.89593950389E+01
 0.89709554924E+01 0.89573100455E+01 0.89327208073E+01 0.89107752847E+01 0.89009329528E+01
 0.92107392675E+01 0.89418293074E+01 0.87048273866E+01 0.85341236572E+01 0.84369645274E+01
 0.83977559568E+01 0.83981743633E+01 0.84370313746E+01 0.85319773298E+01 0.87007982112E+01
 0.89386838957E+01 0.92109084451E+01 0.94876689982E+01 0.98523960275E+01 0.10264523459E+02
 0.10544791411E+02 0.10543992073E+02 0.10261992486E+02 0.98485628835E+01 0.94844873081E+01
 0.10355634706E+02 0.95250890074E+01 0.89913170426E+01 0.85341235787E+01 0.82017426447E+01
 0.80123329733E+01 0.79524512537E+01 0.80116162858E+01 0.81999632562E+01 0.85321146876E+01
 0.89913126928E+01 0.95284219559E+01 0.10360632918E+02 0.11666247432E+02 0.13192990821E+02
 0.14432356219E+02 0.14909834959E+02 0.14433721526E+02 0.13192994109E+02 0.11662987589E+02
 0.14602111364E+02 0.11699451766E+02 0.99262373662E+01 0.90481276394E+01 0.84369576126E+01
 0.80123336400E+01 0.78034730476E+01 0.78030333528E+01 0.80115464053E+01 0.84370988520E+01
 0.90502517741E+01 0.99299613321E+01 0.11702614001E+02 0.14602186031E+02 0.18158328208E+02
 0.21418552349E+02 0.23370233189E+02 0.23372392285E+02 0.21423262202E+02 0.18161877922E+02
 0.24573888226E+02 0.18181597553E+02 0.13254652817E+02 0.10367505113E+02 0.90971851208E+01
 0.83977584204E+01 0.79524565928E+01 0.78030322756E+01 0.79521809630E+01 0.83984078971E+01
 0.90992395682E+01 0.10369490482E+02 0.13254357422E+02 0.18178345891E+02 0.24569187858E+02
 0.31032739697E+02 0.35854337411E+02 0.37640412333E+02 0.35856412304E+02 0.31036720371E+02
 0.41596759898E+02 0.31026177337E+02 0.21444150395E+02 0.14507613108E+02 0.10664083330E+02
 0.91196588424E+01 0.83981779211E+01 0.80116131282E+01 0.80115425811E+01 0.83984089912E+01
 0.91204653555E+01 0.10664244453E+02 0.14505473767E+02 0.21440188553E+02 0.31023387190E+02
 0.41597558623E+02 0.50744240507E+02 0.56065332629E+02 0.56063585492E+02 0.50741070773E+02
 0.65150438068E+02 0.50698930463E+02 0.35820760000E+02 0.23387496773E+02 0.14986918508E+02
 0.10664873723E+02 0.90992366560E+01 0.84370274931E+01 0.81999614002E+01 0.84371018852E+01
 0.90992419407E+01 0.10664243748E+02 0.14985156553E+02 0.23385429196E+02 0.35820763687E+02
 0.50702907424E+02 0.65157213489E+02 0.75753349675E+02 0.79652568062E+02 0.75748009504E+02
 0.92576847946E+02 0.75690616308E+02 0.55984203332E+02 0.37592020540E+02 0.23385353887E+02
 0.14506260614E+02 0.10370018891E+02 0.90502006451E+01 0.85319806925E+01 0.85321181289E+01
 0.90502519188E+01 0.10369488351E+02 0.14505472601E+02 0.23385429198E+02 0.37593781359E+02
 0.55987287150E+02 0.75693789864E+02 0.92579020742E+02 0.10239346461E+03 0.10239272342E+03
 0.11907306704E+03 0.10234513615E+03 0.79568895776E+02 0.55985951491E+02 0.35818708464E+02
 0.21439468958E+02 0.13254652817E+02 0.99300585306E+01 0.89910467519E+01 0.87007989838E+01
 0.89913087452E+01 0.99299586378E+01 0.13254358744E+02 0.21440189224E+02 0.35820764227E+02
 0.55987288195E+02 0.79566812209E+02 0.10233980195E+03 0.11906837164E+03 0.12524593404E+03
 0.13856417974E+03 0.12522441004E+03 0.10234585794E+03 0.75695928452E+02 0.50702099721E+02
 0.31022217687E+02 0.18178057403E+02 0.11702690905E+02 0.95282582656E+01 0.89385226914E+01
 0.89386804900E+01 0.95284211143E+01 0.11702618501E+02 0.18178347717E+02 0.31023385077E+02
 0.50702908873E+02 0.75693789362E+02 0.10233979957E+03 0.12521731679E+03 0.13856099624E+03
 0.12453793628E+03 0.11838452114E+03 0.10171468956E+03 0.79019199188E+02 0.55522573242E+02
 0.35436267873E+02 0.21127050306E+02 0.12996871067E+02 0.97068955612E+01 0.87811234991E+01
 0.84942281393E+01 0.87811552722E+01 0.97069269312E+01 0.12996877410E+02 0.21127042247E+02
 0.35436272551E+02 0.55522596755E+02 0.79019220592E+02 0.10171469146E+03 0.11838451243E+03
 0.11838713610E+03 0.11838451681E+03 0.10698997205E+03 0.87412905389E+02 0.64571993304E+02
 0.43183581711E+02 0.26490331465E+02 0.15826203417E+02 0.10666526514E+02 0.90085340087E+01
 0.84678712045E+01 0.84677335035E+01 0.90084013820E+01 0.10666637720E+02 0.15826065779E+02
 0.26489471652E+02 0.43182967677E+02 0.64573754726E+02 0.87417875178E+02 0.10699580171E+03
 0.10171857225E+03 0.10698789408E+03 0.10171469082E+03 0.87412909974E+02 0.67905021182E+02
 0.47705007833E+02 0.30523207220E+02 0.18463869116E+02 0.11820843999E+02 0.92588906072E+01
 0.84685700706E+01 0.81986516619E+01 0.84682660867E+01 0.92589045003E+01 0.11821116739E+02
 0.18463359464E+02 0.30521544518E+02 0.47703851113E+02 0.67906663188E+02 0.87417279770E+02
 0.79017455918E+02 0.87404175832E+02 0.87404761744E+02 0.79019208056E+02 0.64571991009E+02
 0.47705003302E+02 0.32021741612E+02 0.20055939297E+02 0.12776085091E+02 0.95396627827E+01
 0.84854396137E+01 0.80038230058E+01 0.80036701489E+01 0.84853145705E+01 0.95400360321E+01
 0.12776702066E+02 0.20055836645E+02 0.32020219228E+02 0.47702396714E+02 0.64569366387E+02
 0.55517047968E+02 0.64565427116E+02 0.67897337454E+02 0.64569791463E+02 0.55522573330E+02
 0.43183572840E+02 0.30523210824E+02 0.20055943576E+02 0.13146860649E+02 0.97346098505E+01
 0.85039342648E+01 0.78873451570E+01 0.76695245647E+01 0.78873093266E+01 0.85039419380E+01
 0.97350962421E+01 0.13148249564E+02 0.20057601318E+02 0.30523212519E+02 0.43180344012E+02
 0.35435653126E+02 0.43201873284E+02 0.47726756500E+02 0.47728206764E+02 0.43204487656E+02
 0.35436263541E+02 0.26490333061E+02 0.18463877624E+02 0.12776080247E+02 0.97346060509E+01
 0.85117626745E+01 0.78358354578E+01 0.74780051025E+01 0.74781127585E+01 0.78357441762E+01
 0.85111597854E+01 0.97344768174E+01 0.12777847315E+02 0.18467197961E+02 0.26492714742E+02
 0.21130923033E+02 0.26545888217E+02 0.30602226486E+02 0.32106036931E+02 0.30600579303E+02
 0.26542664726E+02 0.21127046837E+02 0.15826207871E+02 0.11820840822E+02 0.95396551511E+01
 0.85039403262E+01 0.78358386447E+01 0.74169199094E+01 0.72777571854E+01 0.74172066143E+01
 0.78353665734E+01 0.85022739367E+01 0.95380295365E+01 0.11821116739E+02 0.15828931265E+02
 0.12996767584E+02 0.15905815745E+02 0.18597523696E+02 0.20213748878E+02 0.20212000768E+02
 0.18593713911E+02 0.15902958294E+02 0.12996867898E+02 0.10666529236E+02 0.92588864055E+01
 0.84854442505E+01 0.78873515283E+01 0.74779977996E+01 0.72777545413E+01 0.72781088336E+01
 0.74786223569E+01 0.78871995003E+01 0.84836597231E+01 0.92557952540E+01 0.10663904228E+02
 0.97027511311E+01 0.10749692677E+02 0.11979588708E+02 0.12983673737E+02 0.13370295933E+02
 0.12982536528E+02 0.11979587445E+02 0.10752405733E+02 0.97069004906E+01 0.90085365440E+01
 0.84685678716E+01 0.80038264762E+01 0.76695185227E+01 0.74781076259E+01 0.74172149238E+01
 0.74786245273E+01 0.76708975516E+01 0.80054348226E+01 0.84685611011E+01 0.90057777171E+01
 0.87810007789E+01 0.90902727682E+01 0.94188357877E+01 0.97620628479E+01 0.99917199194E+01
 0.99923303752E+01 0.97640529507E+01 0.94219361003E+01 0.90928893163E+01 0.87811294638E+01
 0.84678654315E+01 0.81986495838E+01 0.80036719829E+01 0.78873068613E+01 0.78357513161E+01
 0.78353705264E+01 0.78871906637E+01 0.80054331862E+01 0.82020252278E+01 0.84705116617E+01
 0.84981089250E+01 0.85528915987E+01 0.86280757060E+01 0.87078893767E+01 0.87702344966E+01
 0.87946358470E+01 0.87718788668E+01 0.87095356799E+01 0.86278084041E+01 0.85501476998E+01
 0.84942259865E+01 0.84677287658E+01 0.84682728572E+01 0.84853165966E+01 0.85039403262E+01
 0.85111610774E+01 0.85022662635E+01 0.84836571124E+01 0.84685700706E+01 0.84705126970E+01
 0.87809920295E+01 0.85528911315E+01 0.83601396990E+01 0.82286120057E+01 0.81593002410E+01
 0.81340643298E+01 0.81344330925E+01 0.81593989389E+01 0.82268605929E+01 0.83568081531E+01
 0.85502969971E+01 0.87811524875E+01 0.90084050744E+01 0.92589080489E+01 0.95400284426E+01
 0.97350940060E+01 0.97344783809E+01 0.95380295786E+01 0.92558030042E+01 0.90057788742E+01
 0.97027436921E+01 0.90902729125E+01 0.86280836912E+01 0.82286119242E+01 0.79444490280E+01
 0.77854152637E+01 0.77357394359E+01 0.77849108180E+01 0.79430752446E+01 0.82269920625E+01
 0.86280794875E+01 0.90930438097E+01 0.97069244217E+01 0.10666639062E+02 0.11821111906E+02
 0.12776699672E+02 0.13148257567E+02 0.12777849765E+02 0.11821115082E+02 0.10663902849E+02
 0.12996769436E+02 0.10749695129E+02 0.94188423441E+01 0.87078880805E+01 0.81592935747E+01
 0.77854159082E+01 0.76036406964E+01 0.76033001589E+01 0.77848091873E+01 0.81594287778E+01
 0.87096194830E+01 0.94218832378E+01 0.10752304102E+02 0.12996876094E+02 0.15826067680E+02
 0.18463359830E+02 0.20055841946E+02 0.20057602340E+02 0.18467189819E+02 0.15828928713E+02
 0.21130931092E+02 0.15905818272E+02 0.11979586583E+02 0.97620596472E+01 0.87702293943E+01
 0.81340667064E+01 0.77357445840E+01 0.76032991106E+01 0.77354683525E+01 0.81345415779E+01
 0.87718788668E+01 0.97636585024E+01 0.11979292430E+02 0.15903088423E+02 0.21127046837E+02
 0.26489473681E+02 0.30521542823E+02 0.32020216893E+02 0.30523207220E+02 0.26492715175E+02
 0.35435658091E+02 0.26545886601E+02 0.18597516177E+02 0.12983671446E+02 0.99917223611E+01
 0.87946395205E+01 0.81344365335E+01 0.77849077569E+01 0.77848054816E+01 0.81345426423E+01
 0.87952634568E+01 0.99918750864E+01 0.12981926746E+02 0.18594213867E+02 0.26543516330E+02
 0.35436273184E+02 0.43182963058E+02 0.47703848410E+02 0.47702398542E+02 0.43180348264E+02
 0.55517045769E+02 0.43201867628E+02 0.30602222429E+02 0.20213751422E+02 0.13370302387E+02
 0.99923321432E+01 0.87718760809E+01 0.81593952055E+01 0.79430734248E+01 0.81594317106E+01
 0.87718811832E+01 0.99918744127E+01 0.13368944261E+02 0.20212110594E+02 0.30602225990E+02
 0.43205107081E+02 0.55522594645E+02 0.64573755683E+02 0.67906667869E+02 0.64569369639E+02
 0.79017451072E+02 0.64565423480E+02 0.47726759305E+02 0.32106043413E+02 0.20212003306E+02
 0.12982533113E+02 0.97640477182E+01 0.87095345658E+01 0.82268638081E+01 0.82269953592E+01
 0.87096196651E+01 0.97636564707E+01 0.12981925621E+02 0.20212110588E+02 0.32107543225E+02
 0.47729335456E+02 0.64568043347E+02 0.79019224614E+02 0.87417877163E+02 0.87417277170E+02
 0.10171857035E+03 0.87404179503E+02 0.67897342251E+02 0.47728210567E+02 0.30600575742E+02
 0.18593707017E+02 0.11979586583E+02 0.94219400914E+01 0.86278126078E+01 0.83568088514E+01
 0.86280757060E+01 0.94218806724E+01 0.11979293694E+02 0.18594214492E+02 0.30602226486E+02
 0.47729336454E+02 0.67895669453E+02 0.87399797693E+02 0.10171469082E+03 0.10699579509E+03
 0.11838713689E+03 0.10698790236E+03 0.87404763129E+02 0.64569787348E+02 0.43204483380E+02
 0.26542661067E+02 0.15902962565E+02 0.10752412511E+02 0.90928886643E+01 0.85501439101E+01
 0.85502936745E+01 0.90930430133E+01 0.10752308429E+02 0.15903090167E+02 0.26543514287E+02
 0.43205108460E+02 0.64568042868E+02 0.87399795406E+02 0.10698205926E+03 0.11838450890E+03
 0.95876149856E+02 0.91121419219E+02 0.78225056590E+02 0.60655811424E+02 0.42531741473E+02
 0.27243572124E+02 0.16679163453E+02 0.11012535819E+02 0.88983219354E+01 0.81800566782E+01
 0.79260372329E+01 0.81800847120E+01 0.88983503463E+01 0.11012542550E+02 0.16679155945E+02
 0.27243572962E+02 0.42531757466E+02 0.60655827261E+02 0.78225058363E+02 0.91121412917E+02
 0.91123287351E+02 0.91121415132E+02 0.82299586074E+02 0.67129478080E+02 0.49458475120E+02
 0.33054116410E+02 0.20531442848E+02 0.12878796486E+02 0.94472564693E+01 0.83510560892E+01
 0.78703777104E+01 0.78702530972E+01 0.83509360170E+01 0.94474005050E+01 0.12878856172E+02
 0.20530982690E+02 0.33053736618E+02 0.49459703436E+02 0.67132983089E+02 0.82303735543E+02
 0.78227837231E+02 0.82315061389E+02 0.78225057743E+02 0.67129482376E+02 0.52015600535E+02
 0.36469486408E+02 0.23475261130E+02 0.14676422551E+02 0.10131837100E+02 0.84992529245E+01
 0.78473550833E+01 0.76132557828E+01 0.78470644878E+01 0.84992220356E+01 0.10132099418E+02
 0.14676183119E+02 0.23474141185E+02 0.36468629168E+02 0.52016707168E+02 0.67132575042E+02
 0.60654595908E+02 0.67167818297E+02 0.67168220336E+02 0.60655819729E+02 0.49458472978E+02
 0.36469482185E+02 0.24576905542E+02 0.15780467518E+02 0.10719477479E+02 0.86373544944E+01
 0.78467629509E+01 0.74313709164E+01 0.74312335395E+01 0.78466074140E+01 0.86375504106E+01
 0.10719856395E+02 0.15780332304E+02 0.24575754890E+02 0.36467578039E+02 0.49456597649E+02
 0.42527853721E+02 0.49526981499E+02 0.52110893253E+02 0.49530070851E+02 0.42531741582E+02
 0.33054108148E+02 0.23475264531E+02 0.15780471519E+02 0.10951757659E+02 0.87334681804E+01
 0.78544589203E+01 0.73238517598E+01 0.71413875713E+01 0.73238637775E+01 0.78544660502E+01
 0.87337289461E+01 0.10952614298E+02 0.15781563657E+02 0.23475266062E+02 0.33051862184E+02
 0.27243191717E+02 0.33161315081E+02 0.36635427303E+02 0.36636475092E+02 0.33163182665E+02
 0.27243568115E+02 0.20531444369E+02 0.14676430509E+02 0.10719472943E+02 0.87334646220E+01
 0.78585630560E+01 0.72764106174E+01 0.69784759247E+01 0.69786166259E+01 0.72764689049E+01
 0.78581958968E+01 0.87333477012E+01 0.10720706503E+02 0.14678846845E+02 0.20533238369E+02
 0.16681934814E+02 0.20674325560E+02 0.23712482918E+02 0.24846785121E+02 0.23711371530E+02
 0.20672082816E+02 0.16679160219E+02 0.12878800656E+02 0.10131834114E+02 0.86373473326E+01
 0.78544645192E+01 0.72764135830E+01 0.69269915321E+01 0.68128964342E+01 0.69272660951E+01
 0.72761646377E+01 0.78533411735E+01 0.86362420801E+01 0.10132099418E+02 0.12880807584E+02
 0.11012399847E+02 0.13037457593E+02 0.14961296195E+02 0.16133543059E+02 0.16132323032E+02
 0.14958651078E+02 0.13035508607E+02 0.11012532838E+02 0.94472589855E+01 0.84992489542E+01
 0.78467672129E+01 0.73238577032E+01 0.69784691968E+01 0.68128939978E+01 0.68131161151E+01
 0.69788551677E+01 0.73237210743E+01 0.78455187643E+01 0.84970822572E+01 0.94453833679E+01
 0.88952892246E+01 0.96018321139E+01 0.10428243494E+02 0.11113515362E+02 0.11379921552E+02
 0.11112672172E+02 0.10428242327E+02 0.96038311938E+01 0.88983265021E+01 0.83510584219E+01
 0.78473530175E+01 0.74313741840E+01 0.71413820301E+01 0.69786119000E+01 0.69272737854E+01
 0.69788571697E+01 0.71422301947E+01 0.74324648923E+01 0.78473467411E+01 0.83490615831E+01
 0.81799458178E+01 0.84984943961E+01 0.87857716639E+01 0.90342608735E+01 0.91917287091E+01
 0.91921051308E+01 0.90355613048E+01 0.87879085554E+01 0.85003639953E+01 0.81800622532E+01
 0.78703723876E+01 0.76132539038E+01 0.74312352898E+01 0.73238615122E+01 0.72764754995E+01
 0.72761682667E+01 0.73237128656E+01 0.74324633751E+01 0.76156771586E+01 0.78722664253E+01
 0.79288161012E+01 0.80170082711E+01 0.81261967939E+01 0.82352338187E+01 0.83170297241E+01
 0.83479565362E+01 0.83181384504E+01 0.82363193752E+01 0.81259395265E+01 0.80150235427E+01
 0.79260353304E+01 0.78702487297E+01 0.78470707642E+01 0.78466092734E+01 0.78544645192E+01
 0.78581970473E+01 0.78533340436E+01 0.78455163618E+01 0.78473550833E+01 0.78722673807E+01
 0.81799376517E+01 0.80170078512E+01 0.78908164146E+01 0.78162664625E+01 0.77867647793E+01
 0.77813609027E+01 0.77816571801E+01 0.77868962592E+01 0.78150433420E+01 0.78884280173E+01
 0.80151578055E+01 0.81800821209E+01 0.83509393955E+01 0.84992252775E+01 0.86375433368E+01
 0.87337268405E+01 0.87333491539E+01 0.86362421680E+01 0.84970894693E+01 0.83490626288E+01
 0.88952822791E+01 0.84984945748E+01 0.81262042891E+01 0.78162663736E+01 0.76046164722E+01
 0.74907112593E+01 0.74561372067E+01 0.74904732450E+01 0.76037680757E+01 0.78151623685E+01
 0.81262003144E+01 0.85005028895E+01 0.88983479675E+01 0.94474016886E+01 0.10132094902E+02
 0.10719854188E+02 0.10952621748E+02 0.10720708832E+02 0.10132097887E+02 0.94453820354E+01
 0.11012401568E+02 0.96018344497E+01 0.87857778223E+01 0.82352325719E+01 0.77867584965E+01
 0.74907118752E+01 0.73498138162E+01 0.73496020712E+01 0.74903389943E+01 0.77868810349E+01
 0.82364383896E+01 0.87879039120E+01 0.96036969430E+01 0.11012541290E+02 0.12878857929E+02
 0.14676183514E+02 0.15780337268E+02 0.15781564620E+02 0.14678839284E+02 0.12880805171E+02
 0.16681942321E+02 0.13037459970E+02 0.10428241507E+02 0.90342578450E+01 0.83170249070E+01
 0.77813631586E+01 0.74561420744E+01 0.73496010662E+01 0.74558764187E+01 0.77816166529E+01
 0.83181384504E+01 0.90353439114E+01 0.10427960074E+02 0.13035444403E+02 0.16679160219E+02
 0.20530984625E+02 0.23474139654E+02 0.24575752688E+02 0.23475261130E+02 0.20533238783E+02
 0.27243196332E+02 0.20674324018E+02 0.14961289149E+02 0.11113513206E+02 0.91917309927E+01
 0.83479599960E+01 0.77816604513E+01 0.74904703341E+01 0.74903354674E+01 0.77816176682E+01
 0.83483475644E+01 0.91918682330E+01 0.11112296380E+02 0.14958884167E+02 0.20672535586E+02
 0.27243573568E+02 0.33053732357E+02 0.36468626624E+02 0.36467579718E+02 0.33051866184E+02
 0.42527851654E+02 0.33161309748E+02 0.23712479124E+02 0.16133545459E+02 0.11379927617E+02
 0.91921067846E+01 0.83181358575E+01 0.77868927472E+01 0.76037663096E+01 0.77868838057E+01
 0.83181406745E+01 0.91918676033E+01 0.11379092855E+02 0.16132465735E+02 0.23712482481E+02
 0.33163563910E+02 0.42531755508E+02 0.49459704331E+02 0.52016711486E+02 0.49456600686E+02
 0.60654591380E+02 0.49526978093E+02 0.36635429958E+02 0.24846791225E+02 0.16132325415E+02
 0.11112668954E+02 0.90355563883E+01 0.82363183652E+01 0.78150463295E+01 0.78151654449E+01
 0.82364386264E+01 0.90353420233E+01 0.11112295318E+02 0.16132465718E+02 0.24847928187E+02
 0.36637313891E+02 0.49528850807E+02 0.60655831038E+02 0.67132984901E+02 0.67132572558E+02
 0.78227835459E+02 0.67167821785E+02 0.52110897792E+02 0.36636478681E+02 0.23711368173E+02
 0.14958644590E+02 0.10428241507E+02 0.87879123384E+01 0.81259435012E+01 0.78884286214E+01
 0.81261967939E+01 0.87879015366E+01 0.10427961240E+02 0.14958884725E+02 0.23712482918E+02
 0.36637314825E+02 0.52109768376E+02 0.67164720217E+02 0.78225057743E+02 0.82303729275E+02
 0.91123288093E+02 0.82315069218E+02 0.67168221677E+02 0.49530067011E+02 0.33163178622E+02
 0.20672079351E+02 0.13035512596E+02 0.96038375749E+01 0.85003634493E+01 0.80150199503E+01
 0.80151546330E+01 0.85005021647E+01 0.96037009883E+01 0.13035446016E+02 0.20672533663E+02
 0.33163565201E+02 0.49528850374E+02 0.67164718070E+02 0.82310910033E+02 0.91121409573E+02
 0.66434701727E+02 0.63108180190E+02 0.54093525052E+02 0.41865024058E+02 0.29410433446E+02
 0.19204490360E+02 0.12536248741E+02 0.92830787864E+01 0.81191179036E+01 0.75282624062E+01
 0.73201082291E+01 0.75282851352E+01 0.81191411354E+01 0.92830843766E+01 0.12536241903E+02
 0.19204488997E+02 0.29410443935E+02 0.41865035479E+02 0.54093526666E+02 0.63108175835E+02
 0.63109295641E+02 0.63108176422E+02 0.56928405377E+02 0.46330230692E+02 0.34092411376E+02
 0.22969795665E+02 0.14835260847E+02 0.10233660589E+02 0.83736783682E+01 0.76271422449E+01