    2    2    1    1
  0.9148394E+01  0.2260100E-09  0.2260100E-09  0.4136080E-09  0.5000000E-15
  1.000000000000000E-004
  CAR 
 unknown system                          
     16     96     40
 
  0.0000000E+00  0.0000000E+00  0.0000000E+00  0.7513148E-03
    1       -1.318345   1.000000
    2        2.527939   1.000000
    3        5.362939   1.000000
    4        6.371041   1.000000
    5        6.371072   1.000000
    6        6.682510   1.000000
    7        6.682533   1.000000
    8        6.973967   1.000000
    9        8.038855   1.012762
   10        8.038867   1.012752
   11        9.103105  -0.000000
   12        9.103118  -0.000000
   13       16.011972   0.000000
   14       31.625402   0.000000
   15       33.150857   0.000000
   16       36.153900   0.000000
   17       39.425738   0.000000
   18       39.977248   0.000000
   19       39.977262   0.000000
   20       40.624210   0.000000
   21       40.624304   0.000000
   22       42.694121   0.000000
   23       42.694133   0.000000
   24       43.683131   0.000000
   25       46.693826   0.000000
   26       46.693835   0.000000
   27       47.327651   0.000000
   28       51.615331   0.000000
   29       51.615446   0.000000
   30       53.209015   0.000000
   31       53.209104   0.000000
   32       55.481901   0.000000
   33       62.788758   0.000000
   34       63.800994   0.000000
   35       64.196669   0.000000
   36       64.196954   0.000000
   37       65.078172   0.000000
   38       67.339702   0.000000
   39       67.339841   0.000000
   40       67.386747   0.000000
 
  0.9090909E-01  0.7504938E-17  0.0000000E+00  0.4507889E-02
    1       -0.948268   1.000000
    2        2.821384   1.000000
    3        5.446025   1.000000
    4        6.177563   1.000000
    5        6.236645   1.000000
    6        6.533275   1.000000
    7        6.603505   1.000000
    8        6.899000   1.000000
    9        7.820892   1.008051
   10        7.909214   1.025091
   11        9.132605  -0.000000
   12       10.188917  -0.000000
   13       16.035272   0.000000
   14       32.082510   0.000000
   15       32.114079   0.000000
   16       34.879039   0.000000
   17       36.866044   0.000000
   18       38.248947   0.000000
   19       38.726896   0.000000
   20       39.282430   0.000000
   21       42.074752   0.000000
   22       42.912795   0.000000
   23       43.825981   0.000000
   24       44.394886   0.000000
   25       47.967696   0.000000
   26       48.297166   0.000000
   27       48.740645   0.000000
   28       49.025077   0.000000
   29       52.091207   0.000000
   30       54.673447   0.000000
   31       55.682123   0.000000
   32       57.416630   0.000000
   33       61.458504   0.000000
   34       63.141100   0.000000
   35       63.182084   0.000000
   36       63.510689   0.000000
   37       64.276406   0.000000
   38       67.535946   0.000000
   39       67.939860   0.000000
   40       68.828881   0.000000
 
  0.1818182E+00 -0.7315322E-17  0.0000000E+00  0.4507889E-02
    1        0.087249   1.000000
    2        3.497278   1.000000
    3        5.053030   1.000000
    4        5.413014   1.000000
    5        5.937748   1.000000
    6        6.598860   1.000000
    7        7.255536   1.000000
    8        7.315599   1.000000
    9        7.510231   1.000003
   10        7.604155   1.000059
   11        9.173200  -0.000000
   12       12.104975  -0.000000
   13       16.137031   0.000000
   14       28.458766   0.000000
   15       33.075766   0.000000
   16       33.542554   0.000000
   17       33.796583   0.000000
   18       33.840455   0.000000
   19       38.645598   0.000000
   20       39.689309   0.000000
   21       40.114255   0.000000
   22       41.150527   0.000000
   23       44.678316   0.000000
   24       45.396193   0.000000
   25       48.842707   0.000000
   26       49.601490   0.000000
   27       50.827595   0.000000
   28       53.129924   0.000000
   29       55.269590   0.000000
   30       57.205659   0.000000
   31       58.428402   0.000000
   32       59.948251   0.000000
   33       60.579572   0.000000
   34       61.107903   0.000000
   35       61.404010   0.000000
   36       62.520624   0.000000
   37       65.531467   0.000000
   38       67.948703   0.000000
   39       68.858621   0.000000
   40       68.877281   0.000000
 
  0.2727273E+00  0.7128510E-17  0.0000000E+00  0.4507889E-02
    1        1.506795   1.000000
    2        3.734929   1.000000
    3        4.154780   1.000000
    4        5.457029   1.000000
    5        5.756544   1.000000
    6        6.690386   1.000000
    7        7.254382   1.000000
    8        7.506530   1.000003
    9        8.179174   0.670637
   10        8.365560   0.031540
   11        9.177451  -0.000000
   12       14.294892   0.000000
   13       16.380871   0.000000
   14       24.268620   0.000000
   15       29.626894   0.000000
   16       31.153623   0.000000
   17       31.816281   0.000000
   18       33.943850   0.000000
   19       37.284466   0.000000
   20       39.316437   0.000000
   21       40.413030   0.000000
   22       40.480882   0.000000
   23       42.051812   0.000000
   24       45.166510   0.000000
   25       52.509765   0.000000
   26       53.521379   0.000000
   27       54.582021   0.000000
   28       55.316778   0.000000
   29       55.437511   0.000000
   30       58.038411   0.000000
   31       58.990084   0.000000
   32       61.092944   0.000000
   33       61.271212   0.000000
   34       61.348043   0.000000
   35       62.880996   0.000000
   36       65.951650   0.000000
   37       66.085990   0.000000
   38       68.497220   0.000000
   39       68.831442   0.000000
   40       69.639205   0.000000
 
  0.3636364E+00  0.2518195E-16  0.0000000E+00  0.4507889E-02
    1        2.627498   1.000000
    2        3.379981   1.000000
    3        3.554560   1.000000
    4        5.610065   1.000000
    5        6.141147   1.000000
    6        6.410508   1.000000
    7        6.965531   1.000000
    8        9.018449  -0.000000
    9        9.116996  -0.000000
   10        9.159189  -0.000000
   11        9.229237  -0.000000
   12       16.416906   0.000000
   13       16.637794   0.000000
   14       21.084397   0.000000
   15       26.126921   0.000000
   16       28.828119   0.000000
   17       29.134899   0.000000
   18       33.344364   0.000000
   19       36.384743   0.000000
   20       39.802473   0.000000
   21       39.974186   0.000000
   22       41.171517   0.000000
   23       41.231524   0.000000
   24       44.985371   0.000000
   25       51.953587   0.000000
   26       54.248259   0.000000
   27       55.589645   0.000000
   28       58.753393   0.000000
   29       58.861712   0.000000
   30       58.946982   0.000000
   31       59.881513   0.000000
   32       62.678323   0.000000
   33       62.716500   0.000000
   34       63.226395   0.000000
   35       64.799513   0.000000
   36       66.186243   0.000000
   37       68.606782   0.000000
   38       68.804896   0.000000
   39       69.457058   0.000000
   40       70.438869   0.000000
 
  0.4545455E+00 -0.1225979E-16  0.0000000E+00  0.4507889E-02
    1        2.888308   1.000000
    2        3.160429   1.000000
    3        3.258402   1.000000
    4        5.823601   1.000000
    5        6.306161   1.000000
    6        6.704229   1.000000
    7        6.804151   1.000000
    8        9.141870  -0.000000
    9        9.705398  -0.000000
   10        9.807099  -0.000000
   11       10.982354  -0.000000
   12       14.743641   0.000000
   13       18.851438   0.000000
   14       20.798160   0.000000
   15       23.356259   0.000000
   16       25.945547   0.000000
   17       27.998181   0.000000
   18       32.735584   0.000000
   19       36.079904   0.000000
   20       38.535711   0.000000
   21       39.778343   0.000000
   22       42.301957   0.000000
   23       43.799669   0.000000
   24       44.033306   0.000000
   25       48.558572   0.000000
   26       54.909967   0.000000
   27       55.962689   0.000000
   28       59.196383   0.000000
   29       60.888282   0.000000
   30       61.809232   0.000000
   31       63.074409   0.000000
   32       63.103976   0.000000
   33       63.247246   0.000000
   34       65.032474   0.000000
   35       66.408076   0.000000
   36       68.291212   0.000000
   37       68.609544   0.000000
   38       69.105231   0.000000
   39       71.609744   0.000000
   40       72.375644   0.000000
 
  0.9090909E-01  0.9090909E-01  0.0000000E+00  0.4507889E-02
    1       -0.241413   1.000000
    2        3.334180   1.000000
    3        5.351478   1.000000
    4        5.417907   1.000000
    5        6.186166   1.000000
    6        6.253706   1.000000
    7        7.081475   1.000000
    8        7.347790   1.000000
    9        7.372013   1.000000
   10        7.832278   1.009631
   11        9.120499  -0.000000
   12       11.568731  -0.000000
   13       16.101824   0.000000
   14       30.182024   0.000000
   15       31.775825   0.000000
   16       32.855103   0.000000
   17       35.230208   0.000000
   18       37.490922   0.000000
   19       37.533032   0.000000
   20       38.630074   0.000000
   21       39.113244   0.000000
   22       44.852337   0.000000
   23       45.585506   0.000000
   24       46.369459   0.000000
   25       46.793505   0.000000
   26       47.613028   0.000000
   27       47.938844   0.000000
   28       53.732980   0.000000
   29       55.769240   0.000000
   30       56.439857   0.000000
   31       56.492123   0.000000
   32       59.646935   0.000000
   33       60.170845   0.000000
   34       61.320670   0.000000
   35       62.624231   0.000000
   36       62.721409   0.000000
   37       64.288196   0.000000
   38       67.712559   0.000000
   39       69.075969   0.000000
   40       69.125746   0.000000
 
  0.1818182E+00  0.9090909E-01  0.0000000E+00  0.9015778E-02
    1        1.024455   1.000000
    2        3.956354   1.000000
    3        4.481995   1.000000
    4        5.158533   1.000000
    5        5.843275   1.000000
    6        6.702828   1.000000
    7        6.775048   1.000000
    8        7.516637   1.000004
    9        7.935100   1.030752
   10        8.256753   0.349202
   11        9.085685  -0.000000
   12       13.533866  -0.000000
   13       16.324560   0.000000
   14       26.420134   0.000000
   15       29.260696   0.000000
   16       31.539908   0.000000
   17       33.466386   0.000000
   18       34.872714   0.000000
   19       37.130285   0.000000
   20       37.919553   0.000000
   21       39.179423   0.000000
   22       43.990130   0.000000
   23       44.164483   0.000000
   24       46.143223   0.000000
   25       49.101365   0.000000
   26       49.762762   0.000000
   27       52.165555   0.000000
   28       55.893538   0.000000
   29       57.069466   0.000000
   30       58.235883   0.000000
   31       58.784543   0.000000
   32       60.640082   0.000000
   33       60.908369   0.000000
   34       61.481135   0.000000
   35       63.103180   0.000000
   36       63.181593   0.000000
   37       65.245009   0.000000
   38       68.065541   0.000000
   39       69.664497   0.000000
   40       69.798206   0.000000
 
  0.2727273E+00  0.9090909E-01  0.0000000E+00  0.9015778E-02
    1        2.420254   1.000000
    2        3.789428   1.000000
    3        3.827596   1.000000
    4        5.300016   1.000000
    5        5.993172   1.000000
    6        6.268995   1.000000
    7        7.086790   1.000000
    8        7.678011   1.000426
    9        8.860685  -0.000029
   10        9.044403  -0.000000
   11        9.403988  -0.000000
   12       15.780747   0.000000
   13       16.738527   0.000000
   14       22.506164   0.000000
   15       27.438994   0.000000
   16       27.963759   0.000000
   17       31.397681   0.000000
   18       32.581180   0.000000
   19       37.302238   0.000000
   20       38.576842   0.000000
   21       38.747033   0.000000
   22       42.919005   0.000000
   23       43.431828   0.000000
   24       46.771247   0.000000
   25       51.123185   0.000000
   26       53.361520   0.000000
   27       54.500431   0.000000
   28       54.538679   0.000000
   29       57.442960   0.000000
   30       59.270022   0.000000
   31       59.361775   0.000000
   32       62.366682   0.000000
   33       63.280830   0.000000
   34       63.734206   0.000000
   35       64.002060   0.000000
   36       65.670005   0.000000
   37       67.928118   0.000000
   38       69.255701   0.000000
   39       69.360755   0.000000
   40       70.050852   0.000000
 
  0.3636364E+00  0.9090909E-01  0.0000000E+00  0.9015778E-02
    1        3.102325   1.000000
    2        3.438716   1.000000
    3        3.439492   1.000000
    4        5.829822   1.000000
    5        5.920577   1.000000
    6        6.505356   1.000000
    7        6.742033   1.000000
    8        8.836322  -0.000060
    9        9.004286  -0.000000
   10        9.483068  -0.000000
   11       10.811369  -0.000000
   12       16.193274   0.000000
   13       18.143829   0.000000
   14       20.668829   0.000000
   15       24.793719   0.000000
   16       25.930745   0.000000
   17       28.016928   0.000000
   18       31.666291   0.000000
   19       36.437184   0.000000
   20       38.287299   0.000000
   21       40.456889   0.000000
   22       43.011226   0.000000
   23       43.807502   0.000000
   24       45.805125   0.000000
   25       50.618723   0.000000
   26       53.662855   0.000000
   27       54.967069   0.000000
   28       56.766554   0.000000
   29       59.096512   0.000000
   30       60.439839   0.000000
   31       61.781436   0.000000
   32       62.956962   0.000000
   33       63.428284   0.000000
   34       66.014001   0.000000
   35       66.881774   0.000000
   36       67.378404   0.000000
   37       67.947919   0.000000
   38       69.944267   0.000000
   39       70.342111   0.000000
   40       71.949897   0.000000
 
  0.4545455E+00  0.9090909E-01  0.0000000E+00  0.4507889E-02
    1        3.106117   1.000000
    2        3.311774   1.000000
    3        3.380391   1.000000
    4        5.796082   1.000000
    5        6.382444   1.000000
    6        6.567961   1.000000
    7        6.610796   1.000000
    8        8.987115  -0.000000
    9        9.511176  -0.000000
   10        9.547897  -0.000000
   11       12.151032  -0.000000
   12       14.551043   0.000000
   13       19.748944   0.000000
   14       21.256675   0.000000
   15       22.927496   0.000000
   16       24.848011   0.000000
   17       26.617437   0.000000
   18       31.319731   0.000000
   19       36.041675   0.000000
   20       38.144961   0.000000
   21       40.980286   0.000000
   22       43.570368   0.000000
   23       44.781783   0.000000
   24       45.055817   0.000000
   25       48.507526   0.000000
   26       54.486848   0.000000
   27       55.400973   0.000000
   28       56.984232   0.000000
   29       61.087561   0.000000
   30       61.107212   0.000000
   31       63.360676   0.000000
   32       63.463080   0.000000
   33       63.761782   0.000000
   34       65.252175   0.000000
   35       66.520742   0.000000
   36       69.176420   0.000000
   37       69.627623   0.000000
   38       69.940510   0.000000
   39       70.028331   0.000000
   40       71.799633   0.000000
 
  0.1818182E+00  0.1818182E+00  0.0000000E+00  0.4507889E-02
    1        2.380947   1.000000
    2        3.990415   1.000000
    3        4.487490   1.000000
    4        4.623958   1.000000
    5        5.938426   1.000000
    6        6.232682   1.000000
    7        6.977476   1.000000
    8        7.209389   1.000000
    9        8.828192  -0.000075
   10        8.908171  -0.000007
   11        9.494484  -0.000000
   12       15.517942   0.000000
   13       16.882667   0.000000
   14       24.289492   0.000000
   15       25.245100   0.000000
   16       29.532221   0.000000
   17       31.208155   0.000000
   18       33.918392   0.000000
   19       34.432268   0.000000
   20       37.852625   0.000000
   21       40.600743   0.000000
   22       45.201068   0.000000
   23       46.162289   0.000000
   24       47.624152   0.000000
   25       48.755722   0.000000
   26       50.775100   0.000000
   27       51.540388   0.000000
   28       55.641052   0.000000
   29       58.014174   0.000000
   30       58.430284   0.000000
   31       58.667993   0.000000
   32       62.687612   0.000000
   33       62.774325   0.000000
   34       64.485773   0.000000
   35       65.199074   0.000000
   36       66.249381   0.000000
   37       66.569268   0.000000
   38       68.444251   0.000000
   39       69.118600   0.000000
   40       71.243374   0.000000
 
  0.2727273E+00  0.1818182E+00  0.0000000E+00  0.9015778E-02
    1        3.589846   1.000000
    2        3.689096   1.000000
    3        4.067525   1.000000
    4        4.978966   1.000000
    5        5.890300   1.000000
    6        6.297215   1.000000
    7        6.709194   1.000000
    8        7.695258   1.000647
    9        8.756770  -0.000495
   10        9.377059  -0.000000
   11       11.020623  -0.000000
   12       17.647113   0.000000
   13       17.823104   0.000000
   14       21.170134   0.000000
   15       23.451432   0.000000
   16       26.796636   0.000000
   17       29.464908   0.000000
   18       30.170351   0.000000
   19       33.180576   0.000000
   20       40.258100   0.000000
   21       41.061915   0.000000
   22       45.018423   0.000000
   23       46.981290   0.000000
   24       48.916697   0.000000
   25       49.564518   0.000000
   26       51.525173   0.000000
   27       52.857585   0.000000
   28       53.813300   0.000000
   29       57.163414   0.000000
   30       58.834264   0.000000
   31       61.333928   0.000000
   32       63.007163   0.000000
   33       63.770738   0.000000
   34       66.092701   0.000000
   35       67.198427   0.000000
   36       67.380354   0.000000
   37       69.139148   0.000000
   38       69.512621   0.000000
   39       71.548780   0.000000
   40       72.271308   0.000000
 
  0.3636364E+00  0.1818182E+00  0.0000000E+00  0.9015778E-02
    1        3.563066   1.000000
    2        3.726509   1.000000
    3        3.959586   1.000000
    4        5.646657   1.000000
    5        5.803872   1.000000
    6        6.272009   1.000000
    7        6.625472   1.000000
    8        8.582394  -0.014063
    9        8.670347  -0.003293
   10        9.326464  -0.000000
   11       12.818841  -0.000000
   12       16.142160   0.000000
   13       20.179279   0.000000
   14       21.284137   0.000000
   15       22.445964   0.000000
   16       24.010698   0.000000
   17       27.028020   0.000000
   18       28.784694   0.000000
   19       32.515919   0.000000
   20       41.183707   0.000000
   21       42.742932   0.000000
   22       45.012111   0.000000
   23       45.868562   0.000000
   24       47.302583   0.000000
   25       51.249814   0.000000
   26       51.927913   0.000000
   27       53.337843   0.000000
   28       55.154514   0.000000
   29       59.019010   0.000000
   30       59.959577   0.000000
   31       60.874606   0.000000
   32       63.028119   0.000000
   33       63.613816   0.000000
   34       64.330663   0.000000
   35       68.076533   0.000000
   36       69.254476   0.000000
   37       69.975453   0.000000
   38       71.039924   0.000000
   39       71.244231   0.000000
   40       71.695634   0.000000
 
  0.2727273E+00  0.2727273E+00  0.0000000E+00  0.4507889E-02
    1        3.739389   1.000000
    2        4.288532   1.000000
    3        4.661261   1.000000
    4        4.695761   1.000000
    5        5.703666   1.000000
    6        6.186351   1.000000
    7        6.644531   1.000000
    8        8.005878   1.031133
    9        8.503338  -0.031234
   10        9.271446  -0.000000
   11       12.998162  -0.000000
   12       18.357650   0.000000
   13       19.091125   0.000000
   14       20.234137   0.000000
   15       22.058827   0.000000
   16       26.050646   0.000000
   17       26.324513   0.000000
   18       28.899738   0.000000
   19       29.735779   0.000000
   20       42.038681   0.000000
   21       42.985305   0.000000
   22       47.999836   0.000000
   23       48.422577   0.000000
   24       48.799877   0.000000
   25       49.533217   0.000000
   26       49.841895   0.000000
   27       52.879451   0.000000
   28       55.286043   0.000000
   29       55.485480   0.000000
   30       60.039890   0.000000
   31       60.049666   0.000000
   32       62.814836   0.000000
   33       63.723419   0.000000
   34       64.245054   0.000000
   35       68.300418   0.000000
   36       69.450230   0.000000
   37       69.588954   0.000000
   38       70.027152   0.000000
   39       70.926513   0.000000
   40       73.632745   0.000000
 
  0.3636364E+00  0.2727273E+00  0.0000000E+00  0.4507889E-02
    1        3.807069   1.000000
    2        4.394405   1.000000
    3        4.542261   1.000000
    4        5.113041   1.000000
    5        5.782625   1.000000
    6        5.798490   1.000000
    7        6.805233   1.000000
    8        8.405515  -0.015534
    9        8.471295  -0.035330
   10        8.853625  -0.000036
   11       14.892158   0.000000
   12       16.409591   0.000000
   13       18.701033   0.000000
   14       22.343060   0.000000
   15       23.030242   0.000000
   16       23.852425   0.000000
   17       25.931271   0.000000
   18       27.059568   0.000000
   19       29.128704   0.000000
   20       42.354504   0.000000
   21       45.784025   0.000000
   22       46.338390   0.000000
   23       48.042310   0.000000
   24       48.108305   0.000000
   25       49.639568   0.000000
   26       51.357136   0.000000
   27       54.720928   0.000000
   28       55.656699   0.000000
   29       55.841453   0.000000
   30       59.160124   0.000000
   31       60.024005   0.000000
   32       60.758653   0.000000
   33       63.456775   0.000000
   34       63.488137   0.000000
   35       67.847072   0.000000
   36       69.589855   0.000000
   37       70.213217   0.000000
   38       70.409844   0.000000
   39       71.903466   0.000000
   40       72.861684   0.000000
 
  0.0000000E+00  0.0000000E+00  0.9090909E-01  0.1502630E-02
    1       -1.235778   1.000000
    2        2.498227   1.000000
    3        5.342466   1.000000
    4        6.366408   1.000000
    5        6.366440   1.000000
    6        6.667755   1.000000
    7        6.667778   1.000000
    8        6.767541   1.000000
    9        8.072443   0.973094
   10        8.072455   0.973075
   11        9.091717  -0.000000
   12        9.091729  -0.000000
   13       16.371440   0.000000
   14       30.986380   0.000000
   15       33.283859   0.000000
   16       35.990898   0.000000
   17       39.893057   0.000000
   18       40.000600   0.000000
   19       40.000616   0.000000
   20       40.623293   0.000000
   21       40.623383   0.000000
   22       42.684246   0.000000
   23       42.684258   0.000000
   24       43.949890   0.000000
   25       46.421435   0.000000
   26       46.421444   0.000000
   27       47.533025   0.000000
   28       51.821564   0.000000
   29       51.821675   0.000000
   30       53.550462   0.000000
   31       53.550541   0.000000
   32       55.225670   0.000000
   33       61.723039   0.000000
   34       63.960213   0.000000
   35       64.042809   0.000000
   36       64.043082   0.000000
   37       65.906539   0.000000
   38       66.079503   0.000000
   39       66.079604   0.000000
   40       66.226546   0.000000
 
  0.9090909E-01  0.7504938E-17  0.9090909E-01  0.9015778E-02
    1       -0.867877   1.000000
    2        2.795482   1.000000
    3        5.429529   1.000000
    4        6.029004   1.000000
    5        6.217796   1.000000
    6        6.550549   1.000000
    7        6.596587   1.000000
    8        6.882796   1.000000
    9        7.864423   1.015205
   10        7.948416   1.033122
   11        9.117822  -0.000000
   12       10.046588  -0.000000
   13       16.430441   0.000000
   14       31.344124   0.000000
   15       32.299318   0.000000
   16       34.815362   0.000000
   17       36.930467   0.000000
   18       37.804044   0.000000
   19       39.154001   0.000000
   20       39.674928   0.000000
   21       41.848685   0.000000
   22       43.039125   0.000000
   23       43.887838   0.000000
   24       44.540704   0.000000
   25       47.681964   0.000000
   26       48.009690   0.000000
   27       49.280158   0.000000
   28       49.447196   0.000000
   29       51.973928   0.000000
   30       54.796712   0.000000
   31       55.917512   0.000000
   32       57.227355   0.000000
   33       60.215966   0.000000
   34       62.824490   0.000000
   35       63.602258   0.000000
   36       63.719761   0.000000
   37       64.807781   0.000000
   38       66.105822   0.000000
   39       66.875122   0.000000
   40       68.161698   0.000000
 
  0.1818182E+00 -0.7315322E-17  0.9090909E-01  0.9015778E-02
    1        0.158547   1.000000
    2        3.483459   1.000000
    3        4.977090   1.000000
    4        5.426036   1.000000
    5        5.907017   1.000000
    6        6.539071   1.000000
    7        7.226231   1.000000
    8        7.416388   1.000000
    9        7.473209   1.000001
   10        7.687106   1.000532
   11        9.150070  -0.000000
   12       11.757755  -0.000000
   13       16.663223   0.000000
   14       28.509622   0.000000
   15       32.293163   0.000000
   16       33.300181   0.000000
   17       33.879616   0.000000
   18       34.131788   0.000000
   19       38.304016   0.000000
   20       40.082247   0.000000
   21       40.657078   0.000000
   22       40.732105   0.000000
   23       44.977324   0.000000
   24       45.789718   0.000000
   25       49.034380   0.000000
   26       49.513508   0.000000
   27       50.638874   0.000000
   28       53.166250   0.000000
   29       54.812132   0.000000
   30       57.500377   0.000000
   31       58.613087   0.000000
   32       59.080024   0.000000
   33       59.976513   0.000000
   34       61.042404   0.000000
   35       61.931915   0.000000
   36       63.014334   0.000000
   37       65.354874   0.000000
   38       66.859716   0.000000
   39       67.860512   0.000000
   40       69.966883   0.000000
 
  0.2727273E+00  0.7128510E-17  0.9090909E-01  0.9015778E-02
    1        1.550669   1.000000
    2        3.724105   1.000000
    3        4.144681   1.000000
    4        5.427244   1.000000
    5        5.748324   1.000000
    6        6.714382   1.000000
    7        7.277290   1.000000
    8        7.550630   1.000012
    9        8.187593   0.637013
   10        8.353360   0.053137
   11        9.154432  -0.000000
   12       13.585406  -0.000000
   13       17.216307   0.000000
   14       24.331619   0.000000
   15       29.296492   0.000000
   16       31.262799   0.000000
   17       31.944681   0.000000
   18       33.740431   0.000000
   19       36.887572   0.000000
   20       39.066911   0.000000
   21       39.612111   0.000000
   22       41.354495   0.000000
   23       42.889932   0.000000
   24       45.663712   0.000000
   25       52.592635   0.000000
   26       52.741366   0.000000
   27       53.901052   0.000000
   28       54.199341   0.000000
   29       57.208468   0.000000
   30       58.223323   0.000000
   31       59.239375   0.000000
   32       60.672593   0.000000
   33       61.265077   0.000000
   34       61.268986   0.000000
   35       63.241896   0.000000
   36       65.101435   0.000000
   37       66.515931   0.000000
   38       67.829654   0.000000
   39       68.573165   0.000000
   40       70.162657   0.000000
 
  0.3636364E+00  0.2518195E-16  0.9090909E-01  0.9015778E-02
    1        2.600956   1.000000
    2        3.319955   1.000000
    3        3.680713   1.000000
    4        5.333345   1.000000
    5        6.309190   1.000000
    6        6.602855   1.000000
    7        7.002473   1.000000
    8        8.976496  -0.000001
    9        9.052826  -0.000000
   10        9.130427  -0.000000
   11        9.276334  -0.000000
   12       15.088806   0.000000
   13       18.007043   0.000000
   14       21.163736   0.000000
   15       25.836580   0.000000
   16       29.126531   0.000000
   17       29.257766   0.000000
   18       33.325206   0.000000
   19       36.259996   0.000000
   20       38.403722   0.000000
   21       39.534533   0.000000
   22       41.432822   0.000000
   23       42.735912   0.000000
   24       45.433115   0.000000
   25       50.984732   0.000000
   26       55.237198   0.000000
   27       55.304867   0.000000
   28       57.833940   0.000000
   29       57.982913   0.000000
   30       60.089084   0.000000
   31       60.416194   0.000000
   32       62.612129   0.000000
   33       62.743601   0.000000
   34       63.485545   0.000000
   35       64.804992   0.000000
   36       66.130390   0.000000
   37       67.551165   0.000000
   38       68.860898   0.000000
   39       70.048735   0.000000
   40       70.632985   0.000000
 
  0.4545455E+00 -0.1225979E-16  0.9090909E-01  0.9015778E-02
    1        2.844147   1.000000
    2        2.978097   1.000000
    3        3.534806   1.000000
    4        5.393879   1.000000
    5        6.503174   1.000000
    6        6.844734   1.000000
    7        7.048553   1.000000
    8        9.082254  -0.000000
    9        9.709916  -0.000000
   10        9.807151  -0.000000
   11       10.877802  -0.000000
   12       14.513287   0.000000
   13       18.852047   0.000000
   14       20.793484   0.000000
   15       23.482028   0.000000
   16       26.244373   0.000000
   17       28.128944   0.000000
   18       32.756748   0.000000
   19       36.016226   0.000000
   20       37.512829   0.000000
   21       40.856193   0.000000