 vasp.6.2.0 18Jan21 (build Mar 17 2021 09:06:54) complex                        
  
 executed on             LinuxIFC date 2021.09.09  12:00:31
 serial version


--------------------------------------------------------------------------------------------------------


 INCAR:
   ENCUT = 280.000000
   SIGMA = 0.200000
   EDIFF = 1.00e-06
   GGA = PE
   PREC = normal
   IBRION = 1
   ICHARG = 1
   ISIF = 2
   ISMEAR = 1
   KPAR = 1
   NBANDS = 40
   NSW = 0
   NCORE = 1
   LCHARG = .TRUE.

 POTCAR:    PAW_PBE Fe 06Sep2000                  
 POTCAR:    PAW_PBE Fe 06Sep2000                  
   SHA256 =  cd5a22d9368cc8b5cc476bea79732366149640da08ac9009b0e1b7fc627eea28 Fe/POTCAR             
   COPYR  = (c) Copyright 06Sep2000 Georg Kresse                                                    
   COPYR  = This file is part of the software VASP. Any use, copying, and all other rights are regul
   COPYR  = If you do not have a valid VASP license, you may not use, copy or distribute this file. 
   VRHFIN =Fe:  d7 s1                                                                               
   LEXCH  = PE                                                                                      
   EATOM  =   594.3153 eV,   43.6809 Ry                                                             
                                                                                                    
   TITEL  = PAW_PBE Fe 06Sep2000                                                                    
   LULTRA =        F    use ultrasoft PP ?                                                          
   IUNSCR =        1    unscreen: 0-lin 1-nonlin 2-no                                               
   RPACOR =    2.000    partial core radius                                                         
   POMASS =   55.847; ZVAL   =    8.000    mass and valenz                                          
   RCORE  =    2.300    outmost cutoff radius                                                       
   RWIGS  =    2.460; RWIGS  =    1.302    wigner-seitz radius (au A)                               
   ENMAX  =  267.882; ENMIN  =  200.911 eV                                                          
   RCLOC  =    1.701    cutoff for local pot                                                        
   LCOR   =        T    correct aug charges                                                         
   LPAW   =        T    paw PP                                                                      
   EAUG   =  511.368                                                                                
   DEXC   =    0.000                                                                                
   RMAX   =    2.356    core radius for proj-oper                                                   
   RAUG   =    1.300    factor for augmentation sphere                                              
   RDEP   =    2.442    radius for radial grids                                                     
   RDEPT  =    1.890    core radius for aug-charge                                                  
                                                                                                    
   Atomic configuration                                                                             
    9 entries                                                                                       
     n  l   j            E        occ.                                                              
     1  0  0.50     -6993.8440   2.0000                                                             
     2  0  0.50      -814.6047   2.0000                                                             
     2  1  1.50      -693.3689   6.0000                                                             
     3  0  0.50       -89.4732   2.0000                                                             
     3  1  1.50       -55.6373   6.0000                                                             
     3  2  2.50        -3.8151   7.0000                                                             
     4  0  0.50        -4.2551   1.0000                                                             
     4  1  1.50        -3.4015   0.0000                                                             
     4  3  2.50        -1.3606   0.0000                                                             
   Description                                                                                      
     l       E           TYP  RCUT    TYP  RCUT                                                     
     2     -3.8151135     23  2.300                                                                 
     2     -5.1756961     23  2.300                                                                 
     0     -4.2550963     23  2.300                                                                 
     0      7.2035603     23  2.300                                                                 
     1     -2.7211652     23  2.300                                                                 
     1     18.4316424     23  2.300                                                                 
  local pseudopotential read in
  partial core-charges read in
  partial kinetic energy density read in
  atomic valenz-charges read in
  non local Contribution for L=           2  read in
    real space projection operators read in
  non local Contribution for L=           2  read in
    real space projection operators read in
  non local Contribution for L=           0  read in
    real space projection operators read in
  non local Contribution for L=           0  read in
    real space projection operators read in
  non local Contribution for L=           1  read in
    real space projection operators read in
  non local Contribution for L=           1  read in
    real space projection operators read in
    PAW grid and wavefunctions read in
 
   number of l-projection  operators is LMAX  =           6
   number of lm-projection operators is LMMAX =          18
 
  PAW_PBE Fe 06Sep2000                  :
 energy of atom  1       EATOM= -594.3153
 kinetic energy error for atom=    0.0278 (will be added to EATOM!!)
 
 
 POSCAR: Fe
  positions in cartesian coordinates
  No initial velocities read in
 exchange correlation table for  LEXCH =        8
   RHO(1)=    0.500       N(1)  =     2000
   RHO(2)=  100.500       N(2)  =     4000
 


--------------------------------------------------------------------------------------------------------


 ion  position               nearest neighbor table
   1  0.000  0.000  0.000-   2 2.45   2 2.45   2 2.45   2 2.45   2 2.45   2 2.45
   2  0.333  0.667  0.500-   1 2.45   1 2.45   1 2.45   1 2.45   1 2.45   1 2.45
 
  LATTYP: Found a hexagonal cell.
 ALAT       =     2.2601000000
 C/A-ratio  =     1.8300429185
  
  Lattice vectors:
  
 A1 = (   2.2601000000,   0.0000000000,   0.0000000000)
 A2 = (  -1.1300500000,   1.9573040151,   0.0000000000)
 A3 = (   0.0000000000,   0.0000000000,   4.1360800000)


Analysis of symmetry for initial positions (statically):
=====================================================================
 Subroutine PRICEL returns:
 Original cell was already a primitive cell.
 

 Routine SETGRP: Setting up the symmetry group for a 
 hexagonal supercell.


 Subroutine GETGRP returns: Found 24 space group operations
 (whereof 12 operations were pure point group operations)
 out of a pool of 24 trial point group operations.


The static configuration has the point symmetry D_3h.
 The point group associated with its full space group is D_6h.


Analysis of symmetry for dynamics (positions and initial velocities):
=====================================================================
 Subroutine PRICEL returns:
 Original cell was already a primitive cell.
 

 Routine SETGRP: Setting up the symmetry group for a 
 hexagonal supercell.


 Subroutine GETGRP returns: Found 24 space group operations
 (whereof 12 operations were pure point group operations)
 out of a pool of 24 trial point group operations.


The dynamic configuration has the point symmetry D_3h.
 The point group associated with its full space group is D_6h.


 Subroutine INISYM returns: Found 24 space group operations
 (whereof 12 operations are pure point group operations),
 and found     1 'primitive' translations


----------------------------------------------------------------------------------------

                                     Primitive cell                                     

  volume of cell :      18.2968

  direct lattice vectors                    reciprocal lattice vectors
     2.260100000  0.000000000  0.000000000     0.442458298  0.255453418  0.000000000
    -1.130050000  1.957304015  0.000000000     0.000000000  0.510906835  0.000000000
     0.000000000  0.000000000  4.136080000     0.000000000  0.000000000  0.241774821

  length of vectors
     2.260100000  2.260100000  4.136080000     0.510906835  0.510906835  0.241774821

  position of ions in fractional coordinates (direct lattice)
     0.000000000  0.000000000  0.000000000
     0.333333333  0.666666667  0.500000000

  ion indices of the primitive-cell ions
   primitive index   ion index
                 1           1
                 2           2

----------------------------------------------------------------------------------------

 
 
 KPOINTS: KPOINTS created by Atomic Simulation Env

Automatic generation of k-mesh.
 Grid dimensions read from file:
 generate k-points for:   11   11   11

 Generating k-lattice:

  Cartesian coordinates                     Fractional coordinates (reciprocal lattice)
     0.040223482  0.023223038  0.000000000     0.090909091  0.000000000  0.000000000
     0.000000000  0.046446076  0.000000000     0.000000000  0.090909091  0.000000000
     0.000000000  0.000000000  0.021979529     0.000000000  0.000000000  0.090909091

  Length of vectors
     0.046446076  0.046446076  0.021979529

  Shift w.r.t. Gamma in fractional coordinates (k-lattice)
     0.000000000  0.000000000  0.000000000

 
 Subroutine IBZKPT returns following result:
 ===========================================
 
 Found     96 irreducible k-points:
 
 Following reciprocal coordinates:
            Coordinates               Weight
  0.000000  0.000000  0.000000      1.000000
  0.090909  0.000000  0.000000      6.000000
  0.181818 -0.000000  0.000000      6.000000
  0.272727  0.000000  0.000000      6.000000
  0.363636  0.000000  0.000000      6.000000
  0.454545 -0.000000  0.000000      6.000000
  0.090909  0.090909  0.000000      6.000000
  0.181818  0.090909  0.000000     12.000000
  0.272727  0.090909  0.000000     12.000000
  0.363636  0.090909  0.000000     12.000000
  0.454545  0.090909  0.000000      6.000000
  0.181818  0.181818  0.000000      6.000000
  0.272727  0.181818  0.000000     12.000000
  0.363636  0.181818  0.000000     12.000000
  0.272727  0.272727  0.000000      6.000000
  0.363636  0.272727  0.000000      6.000000
  0.000000  0.000000  0.090909      2.000000
  0.090909  0.000000  0.090909     12.000000
  0.181818 -0.000000  0.090909     12.000000
  0.272727  0.000000  0.090909     12.000000
  0.363636  0.000000  0.090909     12.000000
  0.454545 -0.000000  0.090909     12.000000
  0.090909  0.090909  0.090909     12.000000
  0.181818  0.090909  0.090909     24.000000
  0.272727  0.090909  0.090909     24.000000
  0.363636  0.090909  0.090909     24.000000
  0.454545  0.090909  0.090909     12.000000
  0.181818  0.181818  0.090909     12.000000
  0.272727  0.181818  0.090909     24.000000
  0.363636  0.181818  0.090909     24.000000
  0.272727  0.272727  0.090909     12.000000
  0.363636  0.272727  0.090909     12.000000
  0.000000  0.000000  0.181818      2.000000
  0.090909  0.000000  0.181818     12.000000
  0.181818 -0.000000  0.181818     12.000000
  0.272727  0.000000  0.181818     12.000000
  0.363636  0.000000  0.181818     12.000000
  0.454545 -0.000000  0.181818     12.000000
  0.090909  0.090909  0.181818     12.000000
  0.181818  0.090909  0.181818     24.000000
  0.272727  0.090909  0.181818     24.000000
  0.363636  0.090909  0.181818     24.000000
  0.454545  0.090909  0.181818     12.000000
  0.181818  0.181818  0.181818     12.000000
  0.272727  0.181818  0.181818     24.000000
  0.363636  0.181818  0.181818     24.000000
  0.272727  0.272727  0.181818     12.000000
  0.363636  0.272727  0.181818     12.000000
  0.000000  0.000000  0.272727      2.000000
  0.090909  0.000000  0.272727     12.000000
  0.181818 -0.000000  0.272727     12.000000
  0.272727  0.000000  0.272727     12.000000
  0.363636  0.000000  0.272727     12.000000
  0.454545 -0.000000  0.272727     12.000000
  0.090909  0.090909  0.272727     12.000000
  0.181818  0.090909  0.272727     24.000000
  0.272727  0.090909  0.272727     24.000000
  0.363636  0.090909  0.272727     24.000000
  0.454545  0.090909  0.272727     12.000000
  0.181818  0.181818  0.272727     12.000000
  0.272727  0.181818  0.272727     24.000000
  0.363636  0.181818  0.272727     24.000000
  0.272727  0.272727  0.272727     12.000000
  0.363636  0.272727  0.272727     12.000000
  0.000000  0.000000  0.363636      2.000000
  0.090909  0.000000  0.363636     12.000000
  0.181818 -0.000000  0.363636     12.000000
  0.272727  0.000000  0.363636     12.000000
  0.363636  0.000000  0.363636     12.000000
  0.454545 -0.000000  0.363636     12.000000
  0.090909  0.090909  0.363636     12.000000
  0.181818  0.090909  0.363636     24.000000
  0.272727  0.090909  0.363636     24.000000
  0.363636  0.090909  0.363636     24.000000
  0.454545  0.090909  0.363636     12.000000
  0.181818  0.181818  0.363636     12.000000
  0.272727  0.181818  0.363636     24.000000
  0.363636  0.181818  0.363636     24.000000
  0.272727  0.272727  0.363636     12.000000
  0.363636  0.272727  0.363636     12.000000
  0.000000  0.000000  0.454545      2.000000
  0.090909  0.000000  0.454545     12.000000
  0.181818 -0.000000  0.454545     12.000000
  0.272727  0.000000  0.454545     12.000000
  0.363636  0.000000  0.454545     12.000000
  0.454545 -0.000000  0.454545     12.000000
  0.090909  0.090909  0.454545     12.000000
  0.181818  0.090909  0.454545     24.000000
  0.272727  0.090909  0.454545     24.000000
  0.363636  0.090909  0.454545     24.000000
  0.454545  0.090909  0.454545     12.000000
  0.181818  0.181818  0.454545     12.000000
  0.272727  0.181818  0.454545     24.000000
  0.363636  0.181818  0.454545     24.000000
  0.272727  0.272727  0.454545     12.000000
  0.363636  0.272727  0.454545     12.000000
 
 Following cartesian coordinates:
            Coordinates               Weight
  0.000000  0.000000  0.000000      1.000000
  0.040223  0.023223  0.000000      6.000000
  0.080447  0.046446  0.000000      6.000000
  0.120670  0.069669  0.000000      6.000000
  0.160894  0.092892  0.000000      6.000000
  0.201117  0.116115  0.000000      6.000000
  0.040223  0.069669  0.000000      6.000000
  0.080447  0.092892  0.000000     12.000000
  0.120670  0.116115  0.000000     12.000000
  0.160894  0.139338  0.000000     12.000000
  0.201117  0.162561  0.000000      6.000000
  0.080447  0.139338  0.000000      6.000000
  0.120670  0.162561  0.000000     12.000000
  0.160894  0.185784  0.000000     12.000000
  0.120670  0.209007  0.000000      6.000000
  0.160894  0.232230  0.000000      6.000000
  0.000000  0.000000  0.021980      2.000000
  0.040223  0.023223  0.021980     12.000000
  0.080447  0.046446  0.021980     12.000000
  0.120670  0.069669  0.021980     12.000000
  0.160894  0.092892  0.021980     12.000000
  0.201117  0.116115  0.021980     12.000000
  0.040223  0.069669  0.021980     12.000000
  0.080447  0.092892  0.021980     24.000000
  0.120670  0.116115  0.021980     24.000000
  0.160894  0.139338  0.021980     24.000000
  0.201117  0.162561  0.021980     12.000000
  0.080447  0.139338  0.021980     12.000000
  0.120670  0.162561  0.021980     24.000000
  0.160894  0.185784  0.021980     24.000000
  0.120670  0.209007  0.021980     12.000000
  0.160894  0.232230  0.021980     12.000000
  0.000000  0.000000  0.043959      2.000000
  0.040223  0.023223  0.043959     12.000000
  0.080447  0.046446  0.043959     12.000000
  0.120670  0.069669  0.043959     12.000000
  0.160894  0.092892  0.043959     12.000000
  0.201117  0.116115  0.043959     12.000000
  0.040223  0.069669  0.043959     12.000000
  0.080447  0.092892  0.043959     24.000000
  0.120670  0.116115  0.043959     24.000000
  0.160894  0.139338  0.043959     24.000000
  0.201117  0.162561  0.043959     12.000000
  0.080447  0.139338  0.043959     12.000000
  0.120670  0.162561  0.043959     24.000000
  0.160894  0.185784  0.043959     24.000000
  0.120670  0.209007  0.043959     12.000000
  0.160894  0.232230  0.043959     12.000000
  0.000000  0.000000  0.065939      2.000000
  0.040223  0.023223  0.065939     12.000000
  0.080447  0.046446  0.065939     12.000000
  0.120670  0.069669  0.065939     12.000000
  0.160894  0.092892  0.065939     12.000000
  0.201117  0.116115  0.065939     12.000000
  0.040223  0.069669  0.065939     12.000000
  0.080447  0.092892  0.065939     24.000000
  0.120670  0.116115  0.065939     24.000000
  0.160894  0.139338  0.065939     24.000000
  0.201117  0.162561  0.065939     12.000000
  0.080447  0.139338  0.065939     12.000000
  0.120670  0.162561  0.065939     24.000000
  0.160894  0.185784  0.065939     24.000000
  0.120670  0.209007  0.065939     12.000000
  0.160894  0.232230  0.065939     12.000000
  0.000000  0.000000  0.087918      2.000000
  0.040223  0.023223  0.087918     12.000000
  0.080447  0.046446  0.087918     12.000000
  0.120670  0.069669  0.087918     12.000000
  0.160894  0.092892  0.087918     12.000000
  0.201117  0.116115  0.087918     12.000000
  0.040223  0.069669  0.087918     12.000000
  0.080447  0.092892  0.087918     24.000000
  0.120670  0.116115  0.087918     24.000000
  0.160894  0.139338  0.087918     24.000000
  0.201117  0.162561  0.087918     12.000000
  0.080447  0.139338  0.087918     12.000000
  0.120670  0.162561  0.087918     24.000000
  0.160894  0.185784  0.087918     24.000000
  0.120670  0.209007  0.087918     12.000000
  0.160894  0.232230  0.087918     12.000000
  0.000000  0.000000  0.109898      2.000000
  0.040223  0.023223  0.109898     12.000000
  0.080447  0.046446  0.109898     12.000000
  0.120670  0.069669  0.109898     12.000000
  0.160894  0.092892  0.109898     12.000000
  0.201117  0.116115  0.109898     12.000000
  0.040223  0.069669  0.109898     12.000000
  0.080447  0.092892  0.109898     24.000000
  0.120670  0.116115  0.109898     24.000000
  0.160894  0.139338  0.109898     24.000000
  0.201117  0.162561  0.109898     12.000000
  0.080447  0.139338  0.109898     12.000000
  0.120670  0.162561  0.109898     24.000000
  0.160894  0.185784  0.109898     24.000000
  0.120670  0.209007  0.109898     12.000000
  0.160894  0.232230  0.109898     12.000000
 


--------------------------------------------------------------------------------------------------------




 Dimension of arrays:
   k-points           NKPTS =     96   k-points in BZ     NKDIM =     96   number of bands    NBANDS=     40
   number of dos      NEDOS =    301   number of ions     NIONS =      2
   non local maximal  LDIM  =      6   non local SUM 2l+1 LMDIM =     18
   total plane-waves  NPLWV =   1800
   max r-space proj   IRMAX =      1   max aug-charges    IRDMAX=   3704
   dimension x,y,z NGX =    10 NGY =   10 NGZ =   18
   dimension x,y,z NGXF=    20 NGYF=   20 NGZF=   36
   support grid    NGXF=    20 NGYF=   20 NGZF=   36
   ions per type =               2
   NGX,Y,Z   is equivalent  to a cutoff of   7.36,  7.36,  7.23 a.u.
   NGXF,Y,Z  is equivalent  to a cutoff of  14.71, 14.71, 14.47 a.u.

 SYSTEM =  unknown system                          
 POSCAR =  Fe                                      

 Startparameter for this run:
   NWRITE =      2    write-flag & timer
   PREC   = normal    normal or accurate (medium, high low for compatibility)
   ISTART =      0    job   : 0-new  1-cont  2-samecut
   ICHARG =      1    charge: 1-file 2-atom 10-const
   ISPIN  =      1    spin polarized calculation?
   LNONCOLLINEAR =      F non collinear calculations
   LSORBIT =      F    spin-orbit coupling
   INIWAV =      1    electr: 0-lowe 1-rand  2-diag
   LASPH  =      F    aspherical Exc in radial PAW
   METAGGA=      F    non-selfconsistent MetaGGA calc.

 Electronic Relaxation 1
   ENCUT  =  280.0 eV  20.58 Ry    4.54 a.u.   3.08  3.08  5.64*2*pi/ulx,y,z
   ENINI  =  280.0     initial cutoff
   ENAUG  =  511.4 eV  augmentation charge cutoff
   NELM   =     60;   NELMIN=  2; NELMDL= -5     # of ELM steps 
   EDIFF  = 0.1E-05   stopping-criterion for ELM
   LREAL  =      F    real-space projection
   NLSPLINE    = F    spline interpolate recip. space projectors
   LCOMPAT=      F    compatible to vasp.4.4
   GGA_COMPAT  = T    GGA compatible to vasp.4.4-vasp.4.6
   LMAXPAW     = -100 max onsite density
   LMAXMIX     =    2 max onsite mixed and CHGCAR
   VOSKOWN=      0    Vosko Wilk Nusair interpolation
   ROPT   =    0.00000
 Ionic relaxation
   EDIFFG = 0.1E-04   stopping-criterion for IOM
   NSW    =      0    number of steps for IOM
   NBLOCK =      1;   KBLOCK =      1    inner block; outer block 
   IBRION =     -1    ionic relax: 0-MD 1-quasi-New 2-CG
   NFREE  =      0    steps in history (QN), initial steepest desc. (CG)
   ISIF   =      2    stress and relaxation
   IWAVPR =      0    prediction:  0-non 1-charg 2-wave 3-comb
   ISYM   =      2    0-nonsym 1-usesym 2-fastsym
   LCORR  =      T    Harris-Foulkes like correction to forces

   POTIM  = 0.5000    time-step for ionic-motion
   TEIN   =    0.0    initial temperature
   TEBEG  =    0.0;   TEEND  =   0.0 temperature during run
   SMASS  =  -3.00    Nose mass-parameter (am)
   estimated Nose-frequenzy (Omega)   =  0.10E-29 period in steps = 0.13E+47 mass=  -0.117E-27a.u.
   SCALEE = 1.0000    scale energy and forces
   NPACO  =    256;   APACO  = 16.0  distance and # of slots for P.C.
   PSTRESS=    0.0 pullay stress

  Mass of Ions in am
   POMASS =  55.85
  Ionic Valenz
   ZVAL   =   8.00
  Atomic Wigner-Seitz radii
   RWIGS  =  -1.00
  virtual crystal weights 
   VCA    =   1.00
   NELECT =      16.0000    total number of electrons
   NUPDOWN=      -1.0000    fix difference up-down

 DOS related values:
   EMIN   =  10.00;   EMAX   =-10.00  energy-range for DOS
   EFERMI =   0.00
   ISMEAR =     1;   SIGMA  =   0.20  broadening in eV -4-tet -1-fermi 0-gaus

 Electronic relaxation 2 (details)
   IALGO  =     38    algorithm
   LDIAG  =      T    sub-space diagonalisation (order eigenvalues)
   LSUBROT=      F    optimize rotation matrix (better conditioning)
   TURBO    =      0    0=normal 1=particle mesh
   IRESTART =      0    0=no restart 2=restart with 2 vectors
   NREBOOT  =      0    no. of reboots
   NMIN     =      0    reboot dimension
   EREF     =   0.00    reference energy to select bands
   IMIX   =      4    mixing-type and parameters
     AMIX     =   0.40;   BMIX     =  1.00
     AMIX_MAG =   1.60;   BMIX_MAG =  1.00
     AMIN     =   0.10
     WC   =   100.;   INIMIX=   1;  MIXPRE=   1;  MAXMIX= -45

 Intra band minimization:
   WEIMIN = 0.0000     energy-eigenvalue tresh-hold
   EBREAK =  0.62E-08  absolut break condition
   DEPER  =   0.30     relativ break condition  

   TIME   =   0.40     timestep for ELM

  volume/ion in A,a.u.               =       9.15        61.74
  Fermi-wavevector in a.u.,A,eV,Ry     =   1.565512  2.958390 33.345557  2.450829
  Thomas-Fermi vector in A             =   2.667977
 
 Write flags
   LWAVE        =      T    write WAVECAR
   LDOWNSAMPLE  =      F    k-point downsampling of WAVECAR
   LCHARG       =      T    write CHGCAR
   LVTOT        =      F    write LOCPOT, total local potential
   LVHAR        =      F    write LOCPOT, Hartree potential only
   LELF         =      F    write electronic localiz. function (ELF)
   LORBIT       =      0    0 simple, 1 ext, 2 COOP (PROOUT), +10 PAW based schemes


 Dipole corrections
   LMONO  =      F    monopole corrections only (constant potential shift)
   LDIPOL =      F    correct potential (dipole corrections)
   IDIPOL =      0    1-x, 2-y, 3-z, 4-all directions 
   EPSILON=  1.0000000 bulk dielectric constant

 Exchange correlation treatment:
   GGA     =    PE    GGA type
   LEXCH   =     8    internal setting for exchange type
   VOSKOWN=      0    Vosko Wilk Nusair interpolation
   LHFCALC =     F    Hartree Fock is set to
   LHFONE  =     F    Hartree Fock one center treatment
   AEXX    =    0.0000 exact exchange contribution

 Linear response parameters
   LEPSILON=     F    determine dielectric tensor
   LRPA    =     F    only Hartree local field effects (RPA)
   LNABLA  =     F    use nabla operator in PAW spheres
   LVEL    =     F    velocity operator in full k-point grid
   LINTERFAST=   F  fast interpolation
   KINTER  =     0    interpolate to denser k-point grid
   CSHIFT  =0.1000    complex shift for real part using Kramers Kronig
   OMEGAMAX=  -1.0    maximum frequency
   DEG_THRESHOLD= 0.2000000E-02 threshold for treating states as degnerate
   RTIME   =   -0.100 relaxation time in fs
  (WPLASMAI=    0.000 imaginary part of plasma frequency in eV, 0.658/RTIME)
   DFIELD  = 0.0000000 0.0000000 0.0000000 field for delta impulse in time
 
 Orbital magnetization related:
   ORBITALMAG=     F  switch on orbital magnetization
   LCHIMAG   =     F  perturbation theory with respect to B field
   DQ        =  0.001000  dq finite difference perturbation B field
   LLRAUG    =     F  two centre corrections for induced B field



--------------------------------------------------------------------------------------------------------


 Static calculation
 charge density and potential will be updated during run
 non-spin polarized calculation
 Variant of blocked Davidson
 Davidson routine will perform the subspace rotation
 perform sub-space diagonalisation
    after iterative eigenvector-optimisation
 modified Broyden-mixing scheme, WC =      100.0
 initial mixing is a Kerker type mixing with AMIX =  0.4000 and BMIX =      1.0000
 Hartree-type preconditioning will be used
 using additional bands           32
 reciprocal scheme for non local part
 use partial core corrections
 calculate Harris-corrections to forces 
   (improved forces if not selfconsistent)
 use gradient corrections 
 use of overlap-Matrix (Vanderbilt PP)
 Methfessel and Paxton  Order N= 1 SIGMA  =   0.20


--------------------------------------------------------------------------------------------------------


  energy-cutoff  :      280.00
  volume of cell :       18.30
      direct lattice vectors                 reciprocal lattice vectors
     2.260100000  0.000000000  0.000000000     0.442458298  0.255453418  0.000000000
    -1.130050000  1.957304015  0.000000000     0.000000000  0.510906835  0.000000000
     0.000000000  0.000000000  4.136080000     0.000000000  0.000000000  0.241774821

  length of vectors
     2.260100000  2.260100000  4.136080000     0.510906835  0.510906835  0.241774821


 
 k-points in units of 2pi/SCALE and weight: KPOINTS created by Atomic Simulation Env
   0.00000000  0.00000000  0.00000000       0.001
   0.04022348  0.02322304  0.00000000       0.005
   0.08044696  0.04644608  0.00000000       0.005
   0.12067044  0.06966911  0.00000000       0.005
   0.16089393  0.09289215  0.00000000       0.005
   0.20111741  0.11611519  0.00000000       0.005
   0.04022348  0.06966911  0.00000000       0.005
   0.08044696  0.09289215  0.00000000       0.009
   0.12067044  0.11611519  0.00000000       0.009
   0.16089393  0.13933823  0.00000000       0.009
   0.20111741  0.16256127  0.00000000       0.005
   0.08044696  0.13933823  0.00000000       0.005
   0.12067044  0.16256127  0.00000000       0.009
   0.16089393  0.18578430  0.00000000       0.009
   0.12067044  0.20900734  0.00000000       0.005
   0.16089393  0.23223038  0.00000000       0.005
   0.00000000  0.00000000  0.02197953       0.002
   0.04022348  0.02322304  0.02197953       0.009
   0.08044696  0.04644608  0.02197953       0.009
   0.12067044  0.06966911  0.02197953       0.009
   0.16089393  0.09289215  0.02197953       0.009
   0.20111741  0.11611519  0.02197953       0.009
   0.04022348  0.06966911  0.02197953       0.009
   0.08044696  0.09289215  0.02197953       0.018
   0.12067044  0.11611519  0.02197953       0.018
   0.16089393  0.13933823  0.02197953       0.018
   0.20111741  0.16256127  0.02197953       0.009
   0.08044696  0.13933823  0.02197953       0.009
   0.12067044  0.16256127  0.02197953       0.018
   0.16089393  0.18578430  0.02197953       0.018
   0.12067044  0.20900734  0.02197953       0.009
   0.16089393  0.23223038  0.02197953       0.009
   0.00000000  0.00000000  0.04395906       0.002
   0.04022348  0.02322304  0.04395906       0.009
   0.08044696  0.04644608  0.04395906       0.009
   0.12067044  0.06966911  0.04395906       0.009
   0.16089393  0.09289215  0.04395906       0.009
   0.20111741  0.11611519  0.04395906       0.009
   0.04022348  0.06966911  0.04395906       0.009
   0.08044696  0.09289215  0.04395906       0.018
   0.12067044  0.11611519  0.04395906       0.018
   0.16089393  0.13933823  0.04395906       0.018
   0.20111741  0.16256127  0.04395906       0.009
   0.08044696  0.13933823  0.04395906       0.009
   0.12067044  0.16256127  0.04395906       0.018
   0.16089393  0.18578430  0.04395906       0.018
   0.12067044  0.20900734  0.04395906       0.009
   0.16089393  0.23223038  0.04395906       0.009
   0.00000000  0.00000000  0.06593859       0.002
   0.04022348  0.02322304  0.06593859       0.009
   0.08044696  0.04644608  0.06593859       0.009
   0.12067044  0.06966911  0.06593859       0.009
   0.16089393  0.09289215  0.06593859       0.009
   0.20111741  0.11611519  0.06593859       0.009
   0.04022348  0.06966911  0.06593859       0.009
   0.08044696  0.09289215  0.06593859       0.018
   0.12067044  0.11611519  0.06593859       0.018
   0.16089393  0.13933823  0.06593859       0.018
   0.20111741  0.16256127  0.06593859       0.009
   0.08044696  0.13933823  0.06593859       0.009
   0.12067044  0.16256127  0.06593859       0.018
   0.16089393  0.18578430  0.06593859       0.018
   0.12067044  0.20900734  0.06593859       0.009
   0.16089393  0.23223038  0.06593859       0.009
   0.00000000  0.00000000  0.08791812       0.002
   0.04022348  0.02322304  0.08791812       0.009
   0.08044696  0.04644608  0.08791812       0.009
   0.12067044  0.06966911  0.08791812       0.009
   0.16089393  0.09289215  0.08791812       0.009
   0.20111741  0.11611519  0.08791812       0.009
   0.04022348  0.06966911  0.08791812       0.009
   0.08044696  0.09289215  0.08791812       0.018
   0.12067044  0.11611519  0.08791812       0.018
   0.16089393  0.13933823  0.08791812       0.018
   0.20111741  0.16256127  0.08791812       0.009
   0.08044696  0.13933823  0.08791812       0.009
   0.12067044  0.16256127  0.08791812       0.018
   0.16089393  0.18578430  0.08791812       0.018
   0.12067044  0.20900734  0.08791812       0.009
   0.16089393  0.23223038  0.08791812       0.009
   0.00000000  0.00000000  0.10989765       0.002
   0.04022348  0.02322304  0.10989765       0.009
   0.08044696  0.04644608  0.10989765       0.009
   0.12067044  0.06966911  0.10989765       0.009
   0.16089393  0.09289215  0.10989765       0.009
   0.20111741  0.11611519  0.10989765       0.009
   0.04022348  0.06966911  0.10989765       0.009
   0.08044696  0.09289215  0.10989765       0.018
   0.12067044  0.11611519  0.10989765       0.018
   0.16089393  0.13933823  0.10989765       0.018
   0.20111741  0.16256127  0.10989765       0.009
   0.08044696  0.13933823  0.10989765       0.009
   0.12067044  0.16256127  0.10989765       0.018
   0.16089393  0.18578430  0.10989765       0.018
   0.12067044  0.20900734  0.10989765       0.009
   0.16089393  0.23223038  0.10989765       0.009
 
 k-points in reciprocal lattice and weights: KPOINTS created by Atomic Simulation Env
   0.00000000  0.00000000  0.00000000       0.001
   0.09090909  0.00000000  0.00000000       0.005
   0.18181818 -0.00000000  0.00000000       0.005
   0.27272727  0.00000000  0.00000000       0.005
   0.36363636  0.00000000  0.00000000       0.005
   0.45454545 -0.00000000  0.00000000       0.005
   0.09090909  0.09090909  0.00000000       0.005
   0.18181818  0.09090909  0.00000000       0.009
   0.27272727  0.09090909  0.00000000       0.009
   0.36363636  0.09090909  0.00000000       0.009
   0.45454545  0.09090909  0.00000000       0.005
   0.18181818  0.18181818  0.00000000       0.005
   0.27272727  0.18181818  0.00000000       0.009
   0.36363636  0.18181818  0.00000000       0.009
   0.27272727  0.27272727  0.00000000       0.005
   0.36363636  0.27272727  0.00000000       0.005
   0.00000000  0.00000000  0.09090909       0.002
   0.09090909  0.00000000  0.09090909       0.009
   0.18181818 -0.00000000  0.09090909       0.009
   0.27272727  0.00000000  0.09090909       0.009
   0.36363636  0.00000000  0.09090909       0.009
   0.45454545 -0.00000000  0.09090909       0.009
   0.09090909  0.09090909  0.09090909       0.009
   0.18181818  0.09090909  0.09090909       0.018
   0.27272727  0.09090909  0.09090909       0.018
   0.36363636  0.09090909  0.09090909       0.018
   0.45454545  0.09090909  0.09090909       0.009
   0.18181818  0.18181818  0.09090909       0.009
   0.27272727  0.18181818  0.09090909       0.018
   0.36363636  0.18181818  0.09090909       0.018
   0.27272727  0.27272727  0.09090909       0.009
   0.36363636  0.27272727  0.09090909       0.009
   0.00000000  0.00000000  0.18181818       0.002
   0.09090909  0.00000000  0.18181818       0.009
   0.18181818 -0.00000000  0.18181818       0.009
   0.27272727  0.00000000  0.18181818       0.009
   0.36363636  0.00000000  0.18181818       0.009
   0.45454545 -0.00000000  0.18181818       0.009
   0.09090909  0.09090909  0.18181818       0.009
   0.18181818  0.09090909  0.18181818       0.018
   0.27272727  0.09090909  0.18181818       0.018
   0.36363636  0.09090909  0.18181818       0.018
   0.45454545  0.09090909  0.18181818       0.009
   0.18181818  0.18181818  0.18181818       0.009
   0.27272727  0.18181818  0.18181818       0.018
   0.36363636  0.18181818  0.18181818       0.018
   0.27272727  0.27272727  0.18181818       0.009
   0.36363636  0.27272727  0.18181818       0.009
   0.00000000  0.00000000  0.27272727       0.002
   0.09090909  0.00000000  0.27272727       0.009
   0.18181818 -0.00000000  0.27272727       0.009
   0.27272727  0.00000000  0.27272727       0.009
   0.36363636  0.00000000  0.27272727       0.009
   0.45454545 -0.00000000  0.27272727       0.009
   0.09090909  0.09090909  0.27272727       0.009
   0.18181818  0.09090909  0.27272727       0.018
   0.27272727  0.09090909  0.27272727       0.018
   0.36363636  0.09090909  0.27272727       0.018
   0.45454545  0.09090909  0.27272727       0.009
   0.18181818  0.18181818  0.27272727       0.009
   0.27272727  0.18181818  0.27272727       0.018
   0.36363636  0.18181818  0.27272727       0.018
   0.27272727  0.27272727  0.27272727       0.009
   0.36363636  0.27272727  0.27272727       0.009
   0.00000000  0.00000000  0.36363636       0.002
   0.09090909  0.00000000  0.36363636       0.009
   0.18181818 -0.00000000  0.36363636       0.009
   0.27272727  0.00000000  0.36363636       0.009
   0.36363636  0.00000000  0.36363636       0.009
   0.45454545 -0.00000000  0.36363636       0.009
   0.09090909  0.09090909  0.36363636       0.009
   0.18181818  0.09090909  0.36363636       0.018
   0.27272727  0.09090909  0.36363636       0.018
   0.36363636  0.09090909  0.36363636       0.018
   0.45454545  0.09090909  0.36363636       0.009
   0.18181818  0.18181818  0.36363636       0.009
   0.27272727  0.18181818  0.36363636       0.018
   0.36363636  0.18181818  0.36363636       0.018
   0.27272727  0.27272727  0.36363636       0.009
   0.36363636  0.27272727  0.36363636       0.009
   0.00000000  0.00000000  0.45454545       0.002
   0.09090909  0.00000000  0.45454545       0.009
   0.18181818 -0.00000000  0.45454545       0.009
   0.27272727  0.00000000  0.45454545       0.009
   0.36363636  0.00000000  0.45454545       0.009
   0.45454545 -0.00000000  0.45454545       0.009
   0.09090909  0.09090909  0.45454545       0.009
   0.18181818  0.09090909  0.45454545       0.018
   0.27272727  0.09090909  0.45454545       0.018
   0.36363636  0.09090909  0.45454545       0.018
   0.45454545  0.09090909  0.45454545       0.009
   0.18181818  0.18181818  0.45454545       0.009
   0.27272727  0.18181818  0.45454545       0.018
   0.36363636  0.18181818  0.45454545       0.018
   0.27272727  0.27272727  0.45454545       0.009
   0.36363636  0.27272727  0.45454545       0.009
 
 position of ions in fractional coordinates (direct lattice) 
   0.00000000  0.00000000  0.00000000
   0.33333333  0.66666667  0.50000000
 
 position of ions in cartesian coordinates  (Angst):
   0.00000000  0.00000000  0.00000000
   0.00000000  1.30486934  2.06804000
 


--------------------------------------------------------------------------------------------------------


 k-point   1 :   0.0000 0.0000 0.0000  plane waves:     185
 k-point   2 :   0.0909 0.0000 0.0000  plane waves:     189
 k-point   3 :   0.1818-0.0000 0.0000  plane waves:     193
 k-point   4 :   0.2727 0.0000 0.0000  plane waves:     197
 k-point   5 :   0.3636 0.0000 0.0000  plane waves:     198
 k-point   6 :   0.4545-0.0000 0.0000  plane waves:     200
 k-point   7 :   0.0909 0.0909 0.0000  plane waves:     197
 k-point   8 :   0.1818 0.0909 0.0000  plane waves:     197
 k-point   9 :   0.2727 0.0909 0.0000  plane waves:     191
 k-point  10 :   0.3636 0.0909 0.0000  plane waves:     193
 k-point  11 :   0.4545 0.0909 0.0000  plane waves:     195
 k-point  12 :   0.1818 0.1818 0.0000  plane waves:     189
 k-point  13 :   0.2727 0.1818 0.0000  plane waves:     192
 k-point  14 :   0.3636 0.1818 0.0000  plane waves:     199
 k-point  15 :   0.2727 0.2727 0.0000  plane waves:     199
 k-point  16 :   0.3636 0.2727 0.0000  plane waves:     199
 k-point  17 :   0.0000 0.0000 0.0909  plane waves:     185
 k-point  18 :   0.0909 0.0000 0.0909  plane waves:     192
 k-point  19 :   0.1818-0.0000 0.0909  plane waves:     198
 k-point  20 :   0.2727 0.0000 0.0909  plane waves:     195
 k-point  21 :   0.3636 0.0000 0.0909  plane waves:     194
 k-point  22 :   0.4545-0.0000 0.0909  plane waves:     200
 k-point  23 :   0.0909 0.0909 0.0909  plane waves:     194
 k-point  24 :   0.1818 0.0909 0.0909  plane waves:     195
 k-point  25 :   0.2727 0.0909 0.0909  plane waves:     191
 k-point  26 :   0.3636 0.0909 0.0909  plane waves:     193
 k-point  27 :   0.4545 0.0909 0.0909  plane waves:     197
 k-point  28 :   0.1818 0.1818 0.0909  plane waves:     195
 k-point  29 :   0.2727 0.1818 0.0909  plane waves:     194
 k-point  30 :   0.3636 0.1818 0.0909  plane waves:     199
 k-point  31 :   0.2727 0.2727 0.0909  plane waves:     200
 k-point  32 :   0.3636 0.2727 0.0909  plane waves:     201
 k-point  33 :   0.0000 0.0000 0.1818  plane waves:     185
 k-point  34 :   0.0909 0.0000 0.1818  plane waves:     191
 k-point  35 :   0.1818-0.0000 0.1818  plane waves:     191
 k-point  36 :   0.2727 0.0000 0.1818  plane waves:     195
 k-point  37 :   0.3636 0.0000 0.1818  plane waves:     198
 k-point  38 :   0.4545-0.0000 0.1818  plane waves:     198
 k-point  39 :   0.0909 0.0909 0.1818  plane waves:     190
 k-point  40 :   0.1818 0.0909 0.1818  plane waves:     191
 k-point  41 :   0.2727 0.0909 0.1818  plane waves:     191
 k-point  42 :   0.3636 0.0909 0.1818  plane waves:     197
 k-point  43 :   0.4545 0.0909 0.1818  plane waves:     196
 k-point  44 :   0.1818 0.1818 0.1818  plane waves:     195
 k-point  45 :   0.2727 0.1818 0.1818  plane waves:     197
 k-point  46 :   0.3636 0.1818 0.1818  plane waves:     198
 k-point  47 :   0.2727 0.2727 0.1818  plane waves:     198
 k-point  48 :   0.3636 0.2727 0.1818  plane waves:     198
 k-point  49 :   0.0000 0.0000 0.2727  plane waves:     197
 k-point  50 :   0.0909 0.0000 0.2727  plane waves:     187
 k-point  51 :   0.1818-0.0000 0.2727  plane waves:     190
 k-point  52 :   0.2727 0.0000 0.2727  plane waves:     191
 k-point  53 :   0.3636 0.0000 0.2727  plane waves:     196
 k-point  54 :   0.4545-0.0000 0.2727  plane waves:     198
 k-point  55 :   0.0909 0.0909 0.2727  plane waves:     188
 k-point  56 :   0.1818 0.0909 0.2727  plane waves:     191
 k-point  57 :   0.2727 0.0909 0.2727  plane waves:     193
 k-point  58 :   0.3636 0.0909 0.2727  plane waves:     198
 k-point  59 :   0.4545 0.0909 0.2727  plane waves:     196
 k-point  60 :   0.1818 0.1818 0.2727  plane waves:     194
 k-point  61 :   0.2727 0.1818 0.2727  plane waves:     198
 k-point  62 :   0.3636 0.1818 0.2727  plane waves:     198
 k-point  63 :   0.2727 0.2727 0.2727  plane waves:     199
 k-point  64 :   0.3636 0.2727 0.2727  plane waves:     198
 k-point  65 :   0.0000 0.0000 0.3636  plane waves:     192
 k-point  66 :   0.0909 0.0000 0.3636  plane waves:     185
 k-point  67 :   0.1818-0.0000 0.3636  plane waves:     186
 k-point  68 :   0.2727 0.0000 0.3636  plane waves:     188
 k-point  69 :   0.3636 0.0000 0.3636  plane waves:     192
 k-point  70 :   0.4545-0.0000 0.3636  plane waves:     195
 k-point  71 :   0.0909 0.0909 0.3636  plane waves:     188
 k-point  72 :   0.1818 0.0909 0.3636  plane waves:     191
 k-point  73 :   0.2727 0.0909 0.3636  plane waves:     196
 k-point  74 :   0.3636 0.0909 0.3636  plane waves:     194
 k-point  75 :   0.4545 0.0909 0.3636  plane waves:     195
 k-point  76 :   0.1818 0.1818 0.3636  plane waves:     194
 k-point  77 :   0.2727 0.1818 0.3636  plane waves:     197
 k-point  78 :   0.3636 0.1818 0.3636  plane waves:     198
 k-point  79 :   0.2727 0.2727 0.3636  plane waves:     199
 k-point  80 :   0.3636 0.2727 0.3636  plane waves:     204
 k-point  81 :   0.0000 0.0000 0.4545  plane waves:     192
 k-point  82 :   0.0909 0.0000 0.4545  plane waves:     185
 k-point  83 :   0.1818-0.0000 0.4545  plane waves:     188
 k-point  84 :   0.2727 0.0000 0.4545  plane waves:     188
 k-point  85 :   0.3636 0.0000 0.4545  plane waves:     198
 k-point  86 :   0.4545-0.0000 0.4545  plane waves:     195
 k-point  87 :   0.0909 0.0909 0.4545  plane waves:     186
 k-point  88 :   0.1818 0.0909 0.4545  plane waves:     189
 k-point  89 :   0.2727 0.0909 0.4545  plane waves:     194
 k-point  90 :   0.3636 0.0909 0.4545  plane waves:     192
 k-point  91 :   0.4545 0.0909 0.4545  plane waves:     194
 k-point  92 :   0.1818 0.1818 0.4545  plane waves:     196
 k-point  93 :   0.2727 0.1818 0.4545  plane waves:     197
 k-point  94 :   0.3636 0.1818 0.4545  plane waves:     198
 k-point  95 :   0.2727 0.2727 0.4545  plane waves:     204
 k-point  96 :   0.3636 0.2727 0.4545  plane waves:     207

 maximum number of plane-waves:       207
 maximum index in each direction: 
   IXMAX=    3   IYMAX=    3   IZMAX=    5
   IXMIN=   -3   IYMIN=   -3   IZMIN=   -6


 total amount of memory used by VASP MPI-rank0    48640. kBytes
=======================================================================

   base      :      30000. kBytes
   nonl-proj :       2868. kBytes
   grid      :        812. kBytes
   one-center:         31. kBytes
   wavefun   :      14929. kBytes
 
     INWAV:  cpu time    0.0000: real time    0.0000
 Broyden mixing: mesh for mixing (old mesh)
   NGX =  7   NGY =  7   NGZ = 11
  (NGX  = 20   NGY  = 20   NGZ  = 36)
  gives a total of    539 points

 initial charge density was supplied:
 charge density of overlapping atoms calculated
 number of electron      16.0000000 magnetization 
 keeping initial charge density in first step


--------------------------------------------------------------------------------------------------------


 Maximum index for augmentation-charges         3407 (set IRDMAX)


--------------------------------------------------------------------------------------------------------


 First call to EWALD:  gamma=   0.673
 Maximum number of real-space cells 4x 4x 2
 Maximum number of reciprocal cells 2x 2x 4

    FEWALD:  cpu time    0.0008: real time    0.0008


--------------------------------------- Iteration      1(   1)  ---------------------------------------


    POTLOK:  cpu time    0.0036: real time    0.0036
    SETDIJ:  cpu time    0.0022: real time    0.0022
     EDDAV:  cpu time    0.7964: real time    0.8164
       DOS:  cpu time    0.0052: real time    0.0052
    --------------------------------------------
      LOOP:  cpu time    0.8074: real time    0.8274

 eigenvalue-minimisations  :  9376
 total energy-change (2. order) : 0.6010502E+02  (-0.2495103E+03)
 number of electron      16.0000000 magnetization 
 augmentation part       16.0000000 magnetization 

 Free energy of the ion-electron system (eV)
  ---------------------------------------------------
  alpha Z        PSCENC =       151.09487714
  Ewald energy   TEWEN  =     -1270.07999042
  -Hartree energ DENC   =      -192.66928886
  -exchange      EXHF   =         0.00000000
  -V(xc)+E(xc)   XCENC  =         9.21538314
  PAW double counting   =      1109.69170683    -1125.09647265
  entropy T*S    EENTRO =        -0.00055381
  eigenvalues    EBANDS =       189.37444831
  atomic energy  EATOM  =      1188.57490811
  Solvation  Ediel_sol  =         0.00000000
  ---------------------------------------------------
  free energy    TOTEN  =        60.10501779 eV

  energy without entropy =       60.10557160  energy(sigma->0) =       60.10520239


--------------------------------------------------------------------------------------------------------




--------------------------------------- Iteration      1(   2)  ---------------------------------------


     EDDAV:  cpu time    0.6780: real time    0.6781
       DOS:  cpu time    0.0060: real time    0.0060
    --------------------------------------------
      LOOP:  cpu time    0.6840: real time    0.6841

 eigenvalue-minimisations  :  7896
 total energy-change (2. order) :-0.7424407E+02  (-0.6326733E+02)
 number of electron      16.0000000 magnetization 
 augmentation part       16.0000000 magnetization 

 Free energy of the ion-electron system (eV)
  ---------------------------------------------------
  alpha Z        PSCENC =       151.09487714
  Ewald energy   TEWEN  =     -1270.07999042
  -Hartree energ DENC   =      -192.66928886
  -exchange      EXHF   =         0.00000000
  -V(xc)+E(xc)   XCENC  =         9.21538314
  PAW double counting   =      1109.69170683    -1125.09647265
  entropy T*S    EENTRO =         0.00182631
  eigenvalues    EBANDS =       115.12799984
  atomic energy  EATOM  =      1188.57490811
  Solvation  Ediel_sol  =         0.00000000
  ---------------------------------------------------
  free energy    TOTEN  =       -14.13905056 eV

  energy without entropy =      -14.14087686  energy(sigma->0) =      -14.13965933


--------------------------------------------------------------------------------------------------------




--------------------------------------- Iteration      1(   3)  ---------------------------------------


     EDDAV:  cpu time    0.7908: real time    0.7908
       DOS:  cpu time    0.0064: real time    0.0064
    --------------------------------------------
      LOOP:  cpu time    0.7972: real time    0.7972

 eigenvalue-minimisations  :  9664
 total energy-change (2. order) :-0.4202332E+01  (-0.4004898E+01)
 number of electron      16.0000000 magnetization 
 augmentation part       16.0000000 magnetization 

 Free energy of the ion-electron system (eV)
  ---------------------------------------------------
  alpha Z        PSCENC =       151.09487714
  Ewald energy   TEWEN  =     -1270.07999042
  -Hartree energ DENC   =      -192.66928886
  -exchange      EXHF   =         0.00000000
  -V(xc)+E(xc)   XCENC  =         9.21538314
  PAW double counting   =      1109.69170683    -1125.09647265
  entropy T*S    EENTRO =        -0.00029947
  eigenvalues    EBANDS =       110.92779381
  atomic energy  EATOM  =      1188.57490811
  Solvation  Ediel_sol  =         0.00000000
  ---------------------------------------------------
  free energy    TOTEN  =       -18.34138237 eV

  energy without entropy =      -18.34108290  energy(sigma->0) =      -18.34128254


--------------------------------------------------------------------------------------------------------




--------------------------------------- Iteration      1(   4)  ---------------------------------------


     EDDAV:  cpu time    0.7370: real time    0.7370
       DOS:  cpu time    0.0065: real time    0.0065
    --------------------------------------------
      LOOP:  cpu time    0.7435: real time    0.7435

 eigenvalue-minimisations  :  9000
 total energy-change (2. order) :-0.1572892E-01  (-0.1572084E-01)
 number of electron      16.0000000 magnetization 
 augmentation part       16.0000000 magnetization 

 Free energy of the ion-electron system (eV)
  ---------------------------------------------------
  alpha Z        PSCENC =       151.09487714
  Ewald energy   TEWEN  =     -1270.07999042
  -Hartree energ DENC   =      -192.66928886
  -exchange      EXHF   =         0.00000000
  -V(xc)+E(xc)   XCENC  =         9.21538314
  PAW double counting   =      1109.69170683    -1125.09647265
  entropy T*S    EENTRO =        -0.00029130
  eigenvalues    EBANDS =       110.91205672
  atomic energy  EATOM  =      1188.57490811
  Solvation  Ediel_sol  =         0.00000000
  ---------------------------------------------------
  free energy    TOTEN  =       -18.35711129 eV

  energy without entropy =      -18.35681999  energy(sigma->0) =      -18.35701419


--------------------------------------------------------------------------------------------------------




--------------------------------------- Iteration      1(   5)  ---------------------------------------


     EDDAV:  cpu time    0.7531: real time    0.7532
       DOS:  cpu time    0.0065: real time    0.0065
    CHARGE:  cpu time    0.0198: real time    0.0198
    MIXING:  cpu time    0.0001: real time    0.0001
    --------------------------------------------
      LOOP:  cpu time    0.7796: real time    0.7796

 eigenvalue-minimisations  :  9240
 total energy-change (2. order) :-0.1113692E-04  (-0.1113489E-04)
 number of electron      15.9999911 magnetization 
 augmentation part        7.1920682 magnetization 

 Broyden mixing:
  rms(total) = 0.19147E+01    rms(broyden)= 0.19147E+01
  rms(prec ) = 0.29128E+01
  weight for this iteration     100.00

 Free energy of the ion-electron system (eV)
  ---------------------------------------------------
  alpha Z        PSCENC =       151.09487714
  Ewald energy   TEWEN  =     -1270.07999042
  -Hartree energ DENC   =      -192.66928886
  -exchange      EXHF   =         0.00000000
  -V(xc)+E(xc)   XCENC  =         9.21538314
  PAW double counting   =      1109.69170683    -1125.09647265
  entropy T*S    EENTRO =        -0.00029128
  eigenvalues    EBANDS =       110.91204557
  atomic energy  EATOM  =      1188.57490811
  Solvation  Ediel_sol  =         0.00000000
  ---------------------------------------------------
  free energy    TOTEN  =       -18.35712242 eV

  energy without entropy =      -18.35683114  energy(sigma->0) =      -18.35702533


--------------------------------------------------------------------------------------------------------




--------------------------------------- Iteration      1(   6)  ---------------------------------------


    POTLOK:  cpu time    0.0034: real time    0.0034
    SETDIJ:  cpu time    0.0022: real time    0.0022
     EDDAV:  cpu time    0.9066: real time    0.9067
       DOS:  cpu time    0.0063: real time    0.0063
    CHARGE:  cpu time    0.0196: real time    0.0196
    MIXING:  cpu time    0.0002: real time    0.0002
    --------------------------------------------
      LOOP:  cpu time    0.9383: real time    0.9384

 eigenvalue-minimisations  : 11224
 total energy-change (2. order) : 0.2585007E+01  (-0.1462418E+00)
 number of electron      15.9999893 magnetization 
 augmentation part        8.3590931 magnetization 

 Broyden mixing:
  rms(total) = 0.17020E+00    rms(broyden)= 0.17010E+00
  rms(prec ) = 0.22335E+00
  weight for this iteration     100.00

 eigenvalues of (default mixing * dielectric matrix)
  average eigenvalue GAMMA=   1.0200
  1.0200

 Free energy of the ion-electron system (eV)
  ---------------------------------------------------
  alpha Z        PSCENC =       151.09487714
  Ewald energy   TEWEN  =     -1270.07999042
  -Hartree energ DENC   =      -161.90044115
  -exchange      EXHF   =         0.00000000
  -V(xc)+E(xc)   XCENC  =         7.70546752
  PAW double counting   =      1325.13459314    -1337.33508295
  entropy T*S    EENTRO =         0.00157890
  eigenvalues    EBANDS =        81.03197448
  atomic energy  EATOM  =      1188.57490811
  Solvation  Ediel_sol  =         0.00000000
  ---------------------------------------------------
  free energy    TOTEN  =       -15.77211523 eV

  energy without entropy =      -15.77369413  energy(sigma->0) =      -15.77264153


--------------------------------------------------------------------------------------------------------




--------------------------------------- Iteration      1(   7)  ---------------------------------------


    POTLOK:  cpu time    0.0034: real time    0.0034
    SETDIJ:  cpu time    0.0021: real time    0.0021
     EDDAV:  cpu time    0.7785: real time    0.7786
       DOS:  cpu time    0.0065: real time    0.0065
    CHARGE:  cpu time    0.0205: real time    0.0205
    MIXING:  cpu time    0.0002: real time    0.0002
    --------------------------------------------
      LOOP:  cpu time    0.8114: real time    0.8114

 eigenvalue-minimisations  :  9632
 total energy-change (2. order) : 0.1241453E+00  (-0.6640316E-02)
 number of electron      15.9999895 magnetization 
 augmentation part        8.1819373 magnetization 

 Broyden mixing:
  rms(total) = 0.15610E+00    rms(broyden)= 0.15610E+00
  rms(prec ) = 0.22267E+00
  weight for this iteration     100.00

 eigenvalues of (default mixing * dielectric matrix)
  average eigenvalue GAMMA=   1.1794
  0.8210  1.5377

 Free energy of the ion-electron system (eV)
  ---------------------------------------------------
  alpha Z        PSCENC =       151.09487714
  Ewald energy   TEWEN  =     -1270.07999042
  -Hartree energ DENC   =      -163.50895237
  -exchange      EXHF   =         0.00000000
  -V(xc)+E(xc)   XCENC  =         7.81200384
  PAW double counting   =      1433.53462925    -1449.13473443
  entropy T*S    EENTRO =         0.00137069
  eigenvalues    EBANDS =        86.05791827
  atomic energy  EATOM  =      1188.57490811
  Solvation  Ediel_sol  =         0.00000000
  ---------------------------------------------------
  free energy    TOTEN  =       -15.64796991 eV

  energy without entropy =      -15.64934060  energy(sigma->0) =      -15.64842681


--------------------------------------------------------------------------------------------------------




--------------------------------------- Iteration      1(   8)  ---------------------------------------


    POTLOK:  cpu time    0.0034: real time    0.0034
    SETDIJ:  cpu time    0.0021: real time    0.0021
     EDDAV:  cpu time    0.8329: real time    0.8330
       DOS:  cpu time    0.0066: real time    0.0066
    CHARGE:  cpu time    0.0193: real time    0.0193
    MIXING:  cpu time    0.0002: real time    0.0002
    --------------------------------------------
      LOOP:  cpu time    0.8645: real time    0.8645

 eigenvalue-minimisations  : 10416
 total energy-change (2. order) : 0.3539699E-01  (-0.2585624E-03)
 number of electron      15.9999894 magnetization 
 augmentation part        8.2086423 magnetization 

 Broyden mixing:
  rms(total) = 0.55889E-01    rms(broyden)= 0.55888E-01
  rms(prec ) = 0.76158E-01
  weight for this iteration     100.00

 eigenvalues of (default mixing * dielectric matrix)
  average eigenvalue GAMMA=   1.5224
  2.6546  1.0679  0.8448

 Free energy of the ion-electron system (eV)
  ---------------------------------------------------
  alpha Z        PSCENC =       151.09487714
  Ewald energy   TEWEN  =     -1270.07999042
  -Hartree energ DENC   =      -160.99789173
  -exchange      EXHF   =         0.00000000
  -V(xc)+E(xc)   XCENC  =         7.71100615
  PAW double counting   =      1542.82381993    -1560.36497683
  entropy T*S    EENTRO =         0.00147038
  eigenvalues    EBANDS =        85.62420435
  atomic energy  EATOM  =      1188.57490811
  Solvation  Ediel_sol  =         0.00000000
  ---------------------------------------------------
  free energy    TOTEN  =       -15.61257292 eV

  energy without entropy =      -15.61404330  energy(sigma->0) =      -15.61306304


--------------------------------------------------------------------------------------------------------




--------------------------------------- Iteration      1(   9)  ---------------------------------------


    POTLOK:  cpu time    0.0034: real time    0.0034
    SETDIJ:  cpu time    0.0021: real time    0.0021
     EDDAV:  cpu time    0.8370: real time    0.8370
       DOS:  cpu time    0.0066: real time    0.0066
    CHARGE:  cpu time    0.0192: real time    0.0192
    MIXING:  cpu time    0.0002: real time    0.0002
    --------------------------------------------
      LOOP:  cpu time    0.8686: real time    0.8686

 eigenvalue-minimisations  : 10520
 total energy-change (2. order) : 0.6379773E-02  (-0.7120123E-04)
 number of electron      15.9999894 magnetization 
 augmentation part        8.2171594 magnetization 

 Broyden mixing:
  rms(total) = 0.54257E-02    rms(broyden)= 0.54242E-02
  rms(prec ) = 0.68589E-02
  weight for this iteration     100.00

 eigenvalues of (default mixing * dielectric matrix)
  average eigenvalue GAMMA=   1.5499
  2.6925  0.8506  0.9747  1.6819

 Free energy of the ion-electron system (eV)
  ---------------------------------------------------
  alpha Z        PSCENC =       151.09487714
  Ewald energy   TEWEN  =     -1270.07999042
  -Hartree energ DENC   =      -159.53276158
  -exchange      EXHF   =         0.00000000
  -V(xc)+E(xc)   XCENC  =         7.65583505
  PAW double counting   =      1623.87196220    -1642.77705467
  entropy T*S    EENTRO =         0.00149423
  eigenvalues    EBANDS =        85.58453679
  atomic energy  EATOM  =      1188.57490811
  Solvation  Ediel_sol  =         0.00000000
  ---------------------------------------------------
  free energy    TOTEN  =       -15.60619314 eV

  energy without entropy =      -15.60768737  energy(sigma->0) =      -15.60669122


--------------------------------------------------------------------------------------------------------




--------------------------------------- Iteration      1(  10)  ---------------------------------------


    POTLOK:  cpu time    0.0034: real time    0.0034
    SETDIJ:  cpu time    0.0021: real time    0.0021
     EDDAV:  cpu time    0.7110: real time    0.7110
       DOS:  cpu time    0.0066: real time    0.0066
    CHARGE:  cpu time    0.0197: real time    0.0197
    MIXING:  cpu time    0.0002: real time    0.0002
    --------------------------------------------
      LOOP:  cpu time    0.7431: real time    0.7431

 eigenvalue-minimisations  :  8656
 total energy-change (2. order) :-0.3083027E-04  (-0.2282934E-05)
 number of electron      15.9999894 magnetization 
 augmentation part        8.2171662 magnetization 

 Broyden mixing:
  rms(total) = 0.28527E-02    rms(broyden)= 0.28506E-02
  rms(prec ) = 0.39601E-02
  weight for this iteration     100.00

 eigenvalues of (default mixing * dielectric matrix)
  average eigenvalue GAMMA=   1.6491
  2.6075  2.4595  0.8482  1.0043  1.3261

 Free energy of the ion-electron system (eV)
  ---------------------------------------------------
  alpha Z        PSCENC =       151.09487714
  Ewald energy   TEWEN  =     -1270.07999042
  -Hartree energ DENC   =      -159.56716658
  -exchange      EXHF   =         0.00000000
  -V(xc)+E(xc)   XCENC  =         7.65842947
  PAW double counting   =      1627.27009836    -1646.13578644
  entropy T*S    EENTRO =         0.00149693
  eigenvalues    EBANDS =        85.57690945
  atomic energy  EATOM  =      1188.57490811
  Solvation  Ediel_sol  =         0.00000000
  ---------------------------------------------------
  free energy    TOTEN  =       -15.60622397 eV

  energy without entropy =      -15.60772091  energy(sigma->0) =      -15.60672295


--------------------------------------------------------------------------------------------------------




--------------------------------------- Iteration      1(  11)  ---------------------------------------


    POTLOK:  cpu time    0.0034: real time    0.0034
    SETDIJ:  cpu time    0.0022: real time    0.0022
     EDDAV:  cpu time    0.7297: real time    0.7298
       DOS:  cpu time    0.0067: real time    0.0067
    CHARGE:  cpu time    0.0203: real time    0.0203
    MIXING:  cpu time    0.0002: real time    0.0002
    --------------------------------------------
      LOOP:  cpu time    0.7626: real time    0.7626

 eigenvalue-minimisations  :  8816
 total energy-change (2. order) : 0.1870473E-04  (-0.4618955E-07)
 number of electron      15.9999894 magnetization 
 augmentation part        8.2168743 magnetization 

 Broyden mixing:
  rms(total) = 0.22986E-03    rms(broyden)= 0.22982E-03
  rms(prec ) = 0.39257E-03
  weight for this iteration     100.00

 eigenvalues of (default mixing * dielectric matrix)
  average eigenvalue GAMMA=   1.5643
  2.5799  2.5799  0.8482  0.9998  0.9998  1.3782

 Free energy of the ion-electron system (eV)
  ---------------------------------------------------
  alpha Z        PSCENC =       151.09487714
  Ewald energy   TEWEN  =     -1270.07999042
  -Hartree energ DENC   =      -159.63972801
  -exchange      EXHF   =         0.00000000
  -V(xc)+E(xc)   XCENC  =         7.66178406
  PAW double counting   =      1626.07487439    -1644.86894751
  entropy T*S    EENTRO =         0.00149613
  eigenvalues    EBANDS =        85.57452084
  atomic energy  EATOM  =      1188.57490811
  Solvation  Ediel_sol  =         0.00000000
  ---------------------------------------------------
  free energy    TOTEN  =       -15.60620527 eV

  energy without entropy =      -15.60770140  energy(sigma->0) =      -15.60670398


--------------------------------------------------------------------------------------------------------




--------------------------------------- Iteration      1(  12)  ---------------------------------------


    POTLOK:  cpu time    0.0034: real time    0.0034
    SETDIJ:  cpu time    0.0021: real time    0.0021
     EDDAV:  cpu time    0.5983: real time    0.5983
       DOS:  cpu time    0.0065: real time    0.0065
    CHARGE:  cpu time    0.0197: real time    0.0197
    MIXING:  cpu time    0.0002: real time    0.0002
    --------------------------------------------
      LOOP:  cpu time    0.6301: real time    0.6301

 eigenvalue-minimisations  :  6560
 total energy-change (2. order) : 0.1678845E-05  (-0.7736349E-08)
 number of electron      15.9999894 magnetization 
 augmentation part        8.2168259 magnetization 

 Broyden mixing:
  rms(total) = 0.12016E-03    rms(broyden)= 0.12011E-03
  rms(prec ) = 0.12932E-03
  weight for this iteration     100.00

 eigenvalues of (default mixing * dielectric matrix)
  average eigenvalue GAMMA=   1.6157
  2.5715  2.4963  2.0414  0.8483  1.0023  1.0097  1.3406

 Free energy of the ion-electron system (eV)
  ---------------------------------------------------
  alpha Z        PSCENC =       151.09487714
  Ewald energy   TEWEN  =     -1270.07999042
  -Hartree energ DENC   =      -159.64999983
  -exchange      EXHF   =         0.00000000
  -V(xc)+E(xc)   XCENC  =         7.66224431
  PAW double counting   =      1625.92368253    -1644.70803753
  entropy T*S    EENTRO =         0.00149600
  eigenvalues    EBANDS =        85.57461610
  atomic energy  EATOM  =      1188.57490811
  Solvation  Ediel_sol  =         0.00000000
  ---------------------------------------------------
  free energy    TOTEN  =       -15.60620359 eV

  energy without entropy =      -15.60769959  energy(sigma->0) =      -15.60670226


--------------------------------------------------------------------------------------------------------




--------------------------------------- Iteration      1(  13)  ---------------------------------------


    POTLOK:  cpu time    0.0034: real time    0.0034
    SETDIJ:  cpu time    0.0021: real time    0.0021
     EDDAV:  cpu time    0.5122: real time    0.5123
       DOS:  cpu time    0.0064: real time    0.0064
    --------------------------------------------
      LOOP:  cpu time    0.5241: real time    0.5241

 eigenvalue-minimisations  :  5168
 total energy-change (2. order) :-0.3850794E-06  (-0.6908500E-09)
 number of electron      15.9999894 magnetization 
 augmentation part        8.2168259 magnetization 

 Free energy of the ion-electron system (eV)
  ---------------------------------------------------
  alpha Z        PSCENC =       151.09487714
  Ewald energy   TEWEN  =     -1270.07999042
  -Hartree energ DENC   =      -159.64856541
  -exchange      EXHF   =         0.00000000
  -V(xc)+E(xc)   XCENC  =         7.66217125
  PAW double counting   =      1625.99977582    -1644.78586055
  entropy T*S    EENTRO =         0.00149598
  eigenvalues    EBANDS =        85.57498412
  atomic energy  EATOM  =      1188.57490811
  Solvation  Ediel_sol  =         0.00000000
  ---------------------------------------------------
  free energy    TOTEN  =       -15.60620398 eV

  energy without entropy =      -15.60769995  energy(sigma->0) =      -15.60670264


--------------------------------------------------------------------------------------------------------




 average (electrostatic) potential at core
  the test charge radii are     1.0103
  (the norm of the test charge is              1.0000)
       1 -41.4414       2 -41.4415
 
 
 
 E-fermi :   8.2205     XC(G=0): -14.4238     alpha+bet :-16.9434

 Fermi energy:         8.2204602731

 k-point     1 :       0.0000    0.0000    0.0000
  band No.  band energies     occupation 
      1      -1.3183      2.00000
      2       2.5279      2.00000
      3       5.3629      2.00000
      4       6.3710      2.00000
      5       6.3711      2.00000
      6       6.6825      2.00000
      7       6.6825      2.00000
      8       6.9740      2.00000
      9       8.0389      2.02552
     10       8.0389      2.02550
     11       9.1031     -0.00000
     12       9.1031     -0.00000
     13      16.0120      0.00000
     14      31.6254      0.00000
     15      33.1509      0.00000
     16      36.1539      0.00000
     17      39.4257      0.00000
     18      39.9772      0.00000
     19      39.9773      0.00000
     20      40.6242      0.00000
     21      40.6243      0.00000
     22      42.6941      0.00000
     23      42.6941      0.00000
     24      43.6831      0.00000
     25      46.6938      0.00000
     26      46.6938      0.00000
     27      47.3277      0.00000
     28      51.6153      0.00000
     29      51.6154      0.00000
     30      53.2090      0.00000
     31      53.2091      0.00000
     32      55.4819      0.00000
     33      62.7888      0.00000
     34      63.8010      0.00000
     35      64.1967      0.00000
     36      64.1970      0.00000
     37      65.0782      0.00000
     38      67.3397      0.00000
     39      67.3398      0.00000
     40      67.3867      0.00000

 k-point     2 :       0.0909    0.0000    0.0000
  band No.  band energies     occupation 
      1      -0.9483      2.00000
      2       2.8214      2.00000
      3       5.4460      2.00000
      4       6.1776      2.00000
      5       6.2366      2.00000
      6       6.5333      2.00000
      7       6.6035      2.00000
      8       6.8990      2.00000
      9       7.8209      2.01610
     10       7.9092      2.05018
     11       9.1326     -0.00000
     12      10.1889     -0.00000
     13      16.0353      0.00000
     14      32.0825      0.00000
     15      32.1141      0.00000
     16      34.8790      0.00000
     17      36.8660      0.00000
     18      38.2489      0.00000
     19      38.7269      0.00000
     20      39.2824      0.00000
     21      42.0748      0.00000
     22      42.9128      0.00000
     23      43.8260      0.00000
     24      44.3949      0.00000
     25      47.9677      0.00000
     26      48.2972      0.00000
     27      48.7406      0.00000
     28      49.0251      0.00000
     29      52.0912      0.00000
     30      54.6734      0.00000
     31      55.6821      0.00000
     32      57.4166      0.00000
     33      61.4585      0.00000
     34      63.1411      0.00000
     35      63.1821      0.00000
     36      63.5107      0.00000
     37      64.2764      0.00000
     38      67.5359      0.00000
     39      67.9399      0.00000
     40      68.8289      0.00000

 k-point     3 :       0.1818   -0.0000    0.0000
  band No.  band energies     occupation 
      1       0.0872      2.00000
      2       3.4973      2.00000
      3       5.0530      2.00000
      4       5.4130      2.00000
      5       5.9377      2.00000
      6       6.5989      2.00000
      7       7.2555      2.00000
      8       7.3156      2.00000
      9       7.5102      2.00001
     10       7.6042      2.00012
     11       9.1732     -0.00000
     12      12.1050     -0.00000
     13      16.1370      0.00000
     14      28.4588      0.00000
     15      33.0758      0.00000
     16      33.5426      0.00000
     17      33.7966      0.00000
     18      33.8405      0.00000
     19      38.6456      0.00000
     20      39.6893      0.00000
     21      40.1143      0.00000
     22      41.1505      0.00000
     23      44.6783      0.00000
     24      45.3962      0.00000
     25      48.8427      0.00000
     26      49.6015      0.00000
     27      50.8276      0.00000
     28      53.1299      0.00000
     29      55.2696      0.00000
     30      57.2057      0.00000
     31      58.4284      0.00000
     32      59.9483      0.00000
     33      60.5796      0.00000
     34      61.1079      0.00000
     35      61.4040      0.00000
     36      62.5206      0.00000
     37      65.5315      0.00000
     38      67.9487      0.00000
     39      68.8586      0.00000
     40      68.8773      0.00000

 k-point     4 :       0.2727    0.0000    0.0000
  band No.  band energies     occupation 
      1       1.5068      2.00000
      2       3.7349      2.00000
      3       4.1548      2.00000
      4       5.4570      2.00000
      5       5.7565      2.00000
      6       6.6904      2.00000
      7       7.2544      2.00000
      8       7.5065      2.00001
      9       8.1792      1.34127
     10       8.3656      0.06308
     11       9.1775     -0.00000
     12      14.2949      0.00000
     13      16.3809      0.00000
     14      24.2686      0.00000
     15      29.6269      0.00000
     16      31.1536      0.00000
     17      31.8163      0.00000
     18      33.9438      0.00000
     19      37.2845      0.00000
     20      39.3164      0.00000
     21      40.4130      0.00000
     22      40.4809      0.00000
     23      42.0518      0.00000
     24      45.1665      0.00000
     25      52.5098      0.00000
     26      53.5214      0.00000
     27      54.5820      0.00000
     28      55.3168      0.00000
     29      55.4375      0.00000
     30      58.0384      0.00000
     31      58.9901      0.00000
     32      61.0929      0.00000
     33      61.2712      0.00000
     34      61.3480      0.00000
     35      62.8810      0.00000
     36      65.9516      0.00000
     37      66.0860      0.00000
     38      68.4972      0.00000
     39      68.8314      0.00000
     40      69.6392      0.00000

 k-point     5 :       0.3636    0.0000    0.0000
  band No.  band energies     occupation 
      1       2.6275      2.00000
      2       3.3800      2.00000
      3       3.5546      2.00000
      4       5.6101      2.00000
      5       6.1411      2.00000
      6       6.4105      2.00000
      7       6.9655      2.00000
      8       9.0184     -0.00000
      9       9.1170     -0.00000
     10       9.1592     -0.00000
     11       9.2292     -0.00000
     12      16.4169      0.00000
     13      16.6378      0.00000
     14      21.0844      0.00000
     15      26.1269      0.00000
     16      28.8281      0.00000
     17      29.1349      0.00000
     18      33.3444      0.00000
     19      36.3847      0.00000
     20      39.8025      0.00000
     21      39.9742      0.00000
     22      41.1715      0.00000
     23      41.2315      0.00000
     24      44.9854      0.00000
     25      51.9536      0.00000
     26      54.2483      0.00000
     27      55.5896      0.00000
     28      58.7534      0.00000
     29      58.8617      0.00000
     30      58.9470      0.00000
     31      59.8815      0.00000
     32      62.6783      0.00000
     33      62.7165      0.00000
     34      63.2264      0.00000
     35      64.7995      0.00000
     36      66.1862      0.00000
     37      68.6068      0.00000
     38      68.8049      0.00000
     39      69.4571      0.00000
     40      70.4389      0.00000

 k-point     6 :       0.4545   -0.0000    0.0000
  band No.  band energies     occupation 
      1       2.8883      2.00000
      2       3.1604      2.00000
      3       3.2584      2.00000
      4       5.8236      2.00000
      5       6.3062      2.00000
      6       6.7042      2.00000
      7       6.8042      2.00000
      8       9.1419     -0.00000
      9       9.7054     -0.00000
     10       9.8071     -0.00000
     11      10.9824     -0.00000
     12      14.7436      0.00000
     13      18.8514      0.00000
     14      20.7982      0.00000
     15      23.3563      0.00000
     16      25.9455      0.00000
     17      27.9982      0.00000
     18      32.7356      0.00000
     19      36.0799      0.00000
     20      38.5357      0.00000
     21      39.7783      0.00000
     22      42.3020      0.00000
     23      43.7997      0.00000
     24      44.0333      0.00000
     25      48.5586      0.00000
     26      54.9100      0.00000
     27      55.9627      0.00000
     28      59.1964      0.00000
     29      60.8883      0.00000
     30      61.8092      0.00000
     31      63.0744      0.00000
     32      63.1040      0.00000
     33      63.2472      0.00000
     34      65.0325      0.00000
     35      66.4081      0.00000
     36      68.2912      0.00000
     37      68.6095      0.00000
     38      69.1052      0.00000
     39      71.6097      0.00000
     40      72.3756      0.00000

 k-point     7 :       0.0909    0.0909    0.0000
  band No.  band energies     occupation 
      1      -0.2414      2.00000
      2       3.3342      2.00000
      3       5.3515      2.00000
      4       5.4179      2.00000
      5       6.1862      2.00000
      6       6.2537      2.00000
      7       7.0815      2.00000
      8       7.3478      2.00000
      9       7.3720      2.00000
     10       7.8323      2.01926
     11       9.1205     -0.00000
     12      11.5687     -0.00000
     13      16.1018      0.00000
     14      30.1820      0.00000
     15      31.7758      0.00000
     16      32.8551      0.00000
     17      35.2302      0.00000
     18      37.4909      0.00000
     19      37.5330      0.00000
     20      38.6301      0.00000
     21      39.1132      0.00000
     22      44.8523      0.00000
     23      45.5855      0.00000
     24      46.3695      0.00000
     25      46.7935      0.00000
     26      47.6130      0.00000
     27      47.9388      0.00000
     28      53.7330      0.00000
     29      55.7692      0.00000
     30      56.4399      0.00000
     31      56.4921      0.00000
     32      59.6469      0.00000
     33      60.1708      0.00000
     34      61.3207      0.00000
     35      62.6242      0.00000
     36      62.7214      0.00000
     37      64.2882      0.00000
     38      67.7126      0.00000
     39      69.0760      0.00000
     40      69.1257      0.00000

 k-point     8 :       0.1818    0.0909    0.0000
  band No.  band energies     occupation 
      1       1.0245      2.00000
      2       3.9564      2.00000
      3       4.4820      2.00000
      4       5.1585      2.00000
      5       5.8433      2.00000
      6       6.7028      2.00000
      7       6.7750      2.00000
      8       7.5166      2.00001
      9       7.9351      2.06150
     10       8.2568      0.69840
     11       9.0857     -0.00000
     12      13.5339     -0.00000
     13      16.3246      0.00000
     14      26.4201      0.00000
     15      29.2607      0.00000
     16      31.5399      0.00000
     17      33.4664      0.00000
     18      34.8727      0.00000
     19      37.1303      0.00000
     20      37.9196      0.00000
     21      39.1794      0.00000
     22      43.9901      0.00000
     23      44.1645      0.00000
     24      46.1432      0.00000
     25      49.1014      0.00000
     26      49.7628      0.00000
     27      52.1656      0.00000
     28      55.8935      0.00000
     29      57.0695      0.00000
     30      58.2359      0.00000
     31      58.7845      0.00000
     32      60.6401      0.00000
     33      60.9084      0.00000
     34      61.4811      0.00000
     35      63.1032      0.00000
     36      63.1816      0.00000
     37      65.2450      0.00000
     38      68.0655      0.00000
     39      69.6645      0.00000
     40      69.7982      0.00000

 k-point     9 :       0.2727    0.0909    0.0000
  band No.  band energies     occupation 
      1       2.4203      2.00000
      2       3.7894      2.00000
      3       3.8276      2.00000
      4       5.3000      2.00000
      5       5.9932      2.00000
      6       6.2690      2.00000
      7       7.0868      2.00000
      8       7.6780      2.00085
      9       8.8607     -0.00006
     10       9.0444     -0.00000
     11       9.4040     -0.00000
     12      15.7807      0.00000
     13      16.7385      0.00000
     14      22.5062      0.00000
     15      27.4390      0.00000
     16      27.9638      0.00000
     17      31.3977      0.00000
     18      32.5812      0.00000
     19      37.3022      0.00000
     20      38.5768      0.00000
     21      38.7470      0.00000
     22      42.9190      0.00000
     23      43.4318      0.00000
     24      46.7712      0.00000
     25      51.1232      0.00000
     26      53.3615      0.00000
     27      54.5004      0.00000
     28      54.5387      0.00000
     29      57.4430      0.00000
     30      59.2700      0.00000
     31      59.3618      0.00000
     32      62.3667      0.00000
     33      63.2808      0.00000
     34      63.7342      0.00000
     35      64.0021      0.00000
     36      65.6700      0.00000
     37      67.9281      0.00000
     38      69.2557      0.00000
     39      69.3608      0.00000
     40      70.0509      0.00000

 k-point    10 :       0.3636    0.0909    0.0000
  band No.  band energies     occupation 
      1       3.1023      2.00000
      2       3.4387      2.00000
      3       3.4395      2.00000
      4       5.8298      2.00000
      5       5.9206      2.00000
      6       6.5054      2.00000
[...]
     18      29.5555      0.00000
     19      35.1613      0.00000
     20      36.0375      0.00000
     21      39.7810      0.00000
     22      40.1176      0.00000
     23      45.5216      0.00000
     24      46.5155      0.00000
     25      52.2919      0.00000
     26      54.0517      0.00000
     27      56.3614      0.00000
     28      57.7666      0.00000
     29      59.2243      0.00000
     30      60.3425      0.00000
     31      62.8079      0.00000
     32      62.8345      0.00000
     33      64.0208      0.00000
     34      64.4686      0.00000
     35      67.0188      0.00000
     36      67.2081      0.00000
     37      67.7269      0.00000
     38      68.0479      0.00000
     39      71.6711      0.00000
     40      72.2142      0.00000

 k-point    91 :       0.4545    0.0909    0.4545
  band No.  band energies     occupation 
      1       2.8002      2.00000
      2       2.9451      2.00000
      3       4.2299      2.00000
      4       4.2904      2.00000
      5       7.0749      2.00000
      6       7.5018      2.00000
      7       8.2732      0.57005
      8       8.6374     -0.01204
      9       9.2479     -0.00000
     10       9.3291     -0.00000
     11      11.9949     -0.00000
     12      12.5188     -0.00000
     13      19.0561      0.00000
     14      19.1294      0.00000
     15      27.6448      0.00000
     16      27.9484      0.00000
     17      29.0793      0.00000
     18      29.2106      0.00000
     19      34.6915      0.00000
     20      35.0790      0.00000
     21      39.0717      0.00000
     22      39.1841      0.00000
     23      45.6032      0.00000
     24      46.6204      0.00000
     25      52.4748      0.00000
     26      54.1722      0.00000
     27      57.8634      0.00000
     28      59.5335      0.00000
     29      61.2834      0.00000
     30      61.5063      0.00000
     31      61.7384      0.00000
     32      61.8342      0.00000
     33      64.1857      0.00000
     34      64.8298      0.00000
     35      67.5474      0.00000
     36      67.8496      0.00000
     37      69.1464      0.00000
     38      69.2998      0.00000
     39      72.4440      0.00000
     40      72.8032      0.00000

 k-point    92 :       0.1818    0.1818    0.4545
  band No.  band energies     occupation 
      1       3.0212      2.00000
      2       3.2442      2.00000
      3       5.0044      2.00000
      4       5.0205      2.00000
      5       5.5388      2.00000
      6       5.5530      2.00000
      7       7.4912      2.00000
      8       7.7443      2.00388
      9       8.9679     -0.00000
     10       9.2034     -0.00000
     11       9.7825     -0.00000
     12      10.2916     -0.00000
     13      24.8383      0.00000
     14      25.6727      0.00000
     15      26.2604      0.00000
     16      26.7784      0.00000
     17      27.6324      0.00000
     18      28.4300      0.00000
     19      39.2948      0.00000
     20      40.4920      0.00000
     21      41.3679      0.00000
     22      42.6452      0.00000
     23      44.5191      0.00000
     24      44.7476      0.00000
     25      51.2630      0.00000
     26      51.7273      0.00000
     27      54.0600      0.00000
     28      55.8298      0.00000
     29      58.0891      0.00000
     30      58.2615      0.00000
     31      60.5364      0.00000
     32      60.8887      0.00000
     33      62.4730      0.00000
     34      62.4973      0.00000
     35      64.0355      0.00000
     36      64.1247      0.00000
     37      66.8288      0.00000
     38      68.5523      0.00000
     39      70.3052      0.00000
     40      70.6543      0.00000

 k-point    93 :       0.2727    0.1818    0.4545
  band No.  band energies     occupation 
      1       3.3343      2.00000
      2       3.4363      2.00000
      3       4.7065      2.00000
      4       4.8995      2.00000
      5       6.0018      2.00000
      6       6.1567      2.00000
      7       7.3226      2.00000
      8       7.5705      2.00004
      9       9.0899     -0.00000
     10       9.4224     -0.00000
     11      11.5383     -0.00000
     12      12.0478     -0.00000
     13      22.3142      0.00000
     14      22.8511      0.00000
     15      25.1899      0.00000
     16      25.9545      0.00000
     17      27.2966      0.00000
     18      28.9340      0.00000
     19      36.8804      0.00000
     20      38.4875      0.00000
     21      39.7561      0.00000
     22      41.3611      0.00000
     23      45.6065      0.00000
     24      46.1097      0.00000
     25      52.9548      0.00000
     26      53.5155      0.00000
     27      55.4249      0.00000
     28      57.3895      0.00000
     29      59.4303      0.00000
     30      60.5254      0.00000
     31      62.0587      0.00000
     32      62.5033      0.00000
     33      63.4424      0.00000
     34      63.5514      0.00000
     35      64.9760      0.00000
     36      65.8833      0.00000
     37      67.0267      0.00000
     38      68.0023      0.00000
     39      71.3380      0.00000
     40      71.6984      0.00000

 k-point    94 :       0.3636    0.1818    0.4545
  band No.  band energies     occupation 
      1       3.3384      2.00000
      2       3.5007      2.00000
      3       4.5785      2.00000
      4       4.7517      2.00000
      5       6.1490      2.00000
      6       6.4945      2.00000
      7       7.6912      2.00118
      8       7.8024      2.01181
      9       9.0776     -0.00000
     10       9.2830     -0.00000
     11      13.4311     -0.00000
     12      13.8782      0.00000
     13      19.5462      0.00000
     14      19.9084      0.00000
     15      24.5822      0.00000
     16      25.3170      0.00000
     17      28.8845      0.00000
     18      29.9947      0.00000
     19      35.1079      0.00000
     20      36.1742      0.00000
     21      38.7874      0.00000
     22      40.3873      0.00000
     23      46.2690      0.00000
     24      46.7052      0.00000
     25      55.8311      0.00000
     26      56.6367      0.00000
     27      57.1100      0.00000
     28      57.8847      0.00000
     29      59.8489      0.00000
     30      60.9224      0.00000
     31      61.0941      0.00000
     32      61.5974      0.00000
     33      63.2384      0.00000
     34      63.7769      0.00000
     35      66.3232      0.00000
     36      66.6521      0.00000
     37      69.0369      0.00000
     38      69.1686      0.00000
     39      70.2213      0.00000
     40      70.9619      0.00000

 k-point    95 :       0.2727    0.2727    0.4545
  band No.  band energies     occupation 
      1       3.7890      2.00000
      2       3.8749      2.00000
      3       4.8798      2.00000
      4       5.1075      2.00000
      5       5.6209      2.00000
      6       5.8454      2.00000
      7       7.1322      2.00000
      8       7.3438      2.00000
      9       9.0938     -0.00000
     10       9.3195     -0.00000
     11      13.9274      0.00000
     12      14.4468      0.00000
     13      20.6443      0.00000
     14      21.0902      0.00000
     15      22.6351      0.00000
     16      23.0552      0.00000
     17      29.1091      0.00000
     18      30.6961      0.00000
     19      35.1414      0.00000
     20      36.5311      0.00000
     21      38.4033      0.00000
     22      39.5539      0.00000
     23      48.8083      0.00000
     24      49.2759      0.00000
     25      53.4423      0.00000
     26      53.4768      0.00000
     27      57.8396      0.00000
     28      59.8242      0.00000
     29      60.0921      0.00000
     30      60.9617      0.00000
     31      62.0957      0.00000
     32      62.1748      0.00000
     33      62.3431      0.00000
     34      62.6012      0.00000
     35      65.1570      0.00000
     36      65.4714      0.00000
     37      68.8511      0.00000
     38      69.0033      0.00000
     39      69.8142      0.00000
     40      69.8268      0.00000

 k-point    96 :       0.3636    0.2727    0.4545
  band No.  band energies     occupation 
      1       4.0325      2.00000
      2       4.1805      2.00000
      3       4.8237      2.00000
      4       4.9306      2.00000
      5       5.5896      2.00000
      6       5.7504      2.00000
      7       7.1700      2.00000
      8       7.3251      2.00000
      9       9.0800     -0.00000
     10       9.1599     -0.00000
     11      15.8976      0.00000
     12      16.0615      0.00000
     13      18.8312      0.00000
     14      19.1822      0.00000
     15      21.9664      0.00000
     16      22.4010      0.00000
     17      30.8894      0.00000
     18      31.7095      0.00000
     19      34.1222      0.00000
     20      34.3395      0.00000
     21      38.1160      0.00000
     22      38.9375      0.00000
     23      50.0827      0.00000
     24      50.7348      0.00000
     25      54.9398      0.00000
     26      55.4207      0.00000
     27      57.8568      0.00000
     28      58.3247      0.00000
     29      59.7231      0.00000
     30      59.8985      0.00000
     31      61.6311      0.00000
     32      62.1601      0.00000
     33      62.8873      0.00000
     34      63.0225      0.00000
     35      64.3671      0.00000
     36      65.7168      0.00000
     37      67.3247      0.00000
     38      67.9358      0.00000
     39      71.3045      0.00000
     40      71.5636      0.00000


--------------------------------------------------------------------------------------------------------


 soft charge-density along one line, spin component           1
         0         1         2         3         4         5         6         7         8         9
x     7.7832    0.0000    0.0569   -0.0985   -0.0487   -0.0843    0.0222   -0.0000    0.0010   -0.0017
x     0.0000    0.0000
y     7.7832    0.0000    0.0569    0.0985   -0.0487    0.0843    0.0222    0.0000    0.0010    0.0017
y     0.0000    0.0000
z     7.7832    0.0000    0.0000    0.0000    0.5032    0.0000    0.0000    0.0000   -0.1546    0.0000
z     0.0000    0.0000    0.0195   -0.0000    0.0000    0.0000    0.0069   -0.0000    0.0000    0.0000
 total charge-density along one line
x    16.0000    0.0000    1.3892   -2.4062    0.2513    0.4352    0.0037   -0.0000    0.0022   -0.0039
x    -0.0005   -0.0008    0.0008   -0.0000   -0.0001    0.0002    0.0001    0.0001   -0.0001    0.0000
x     0.0000    0.0000
y    16.0000    0.0000    1.3892    2.4062    0.2513   -0.4352    0.0037    0.0000    0.0022    0.0039
y    -0.0005    0.0008    0.0008    0.0000   -0.0001   -0.0002    0.0001   -0.0001   -0.0001   -0.0000
y     0.0000   -0.0000
z    16.0000    0.0000    0.0000    0.0000    6.0838   -0.0000    0.0000    0.0000    1.3497   -0.0000
z     0.0000   -0.0000    0.0459   -0.0000   -0.0000   -0.0000    0.0044    0.0000    0.0000   -0.0000
z     0.0016   -0.0000   -0.0000   -0.0000   -0.0008   -0.0000   -0.0000   -0.0000    0.0004   -0.0000
z    -0.0000   -0.0000   -0.0003    0.0000    0.0000    0.0000    0.0003   -0.0000
 
 pseudopotential strength for first ion, spin component:           1
 -3.682  -0.000  -0.000   0.000  -0.000  -4.268  -0.000  -0.000
 -0.000  -3.655   0.000  -0.000  -0.000  -0.000  -4.241   0.000
 -0.000   0.000  -3.663  -0.000  -0.000  -0.000   0.000  -4.249
  0.000  -0.000  -0.000  -3.655  -0.000   0.000  -0.000  -0.000
 -0.000  -0.000  -0.000  -0.000  -3.682  -0.000  -0.000  -0.000
 -4.268  -0.000  -0.000   0.000  -0.000  -4.810  -0.000  -0.000
 -0.000  -4.241   0.000  -0.000  -0.000  -0.000  -4.783   0.000
 -0.000   0.000  -4.249  -0.000  -0.000  -0.000   0.000  -4.791
  0.000  -0.000  -0.000  -4.241  -0.000   0.000  -0.000  -0.000
 -0.000  -0.000  -0.000  -0.000  -4.268  -0.000  -0.000  -0.000
  0.000  -0.000  -0.001   0.000  -0.000   0.000  -0.000  -0.001
  0.000  -0.000  -0.001   0.000  -0.000   0.000  -0.000  -0.001
 -0.000   0.000  -0.000  -0.000  -0.001  -0.000   0.000  -0.000
 -0.000  -0.000   0.000  -0.000  -0.000  -0.000  -0.000   0.000
 -0.001  -0.000   0.000   0.000  -0.000  -0.001  -0.000   0.000
 -0.000   0.000  -0.000  -0.000  -0.001  -0.000   0.000  -0.000
 -0.000  -0.000   0.000  -0.000  -0.000  -0.000  -0.000   0.000
 -0.001  -0.000   0.000   0.000  -0.000  -0.001  -0.000   0.000
 total augmentation occupancy for first ion, spin component:           1
  1.820   0.000   0.000   0.000  -0.000  -1.441   0.000  -0.000  -0.000   0.000   0.000  -0.000   0.000  -0.000   0.038  -0.000
  0.000   2.445  -0.000  -0.000   0.000   0.000  -1.727   0.000   0.000  -0.000  -0.000   0.000   0.000   0.000  -0.000  -0.000
  0.000   0.000   1.425  -0.000  -0.000  -0.000   0.000  -1.051   0.000   0.000   0.092  -0.018  -0.000   0.000  -0.000  -0.000
  0.000  -0.000  -0.000   2.445   0.000  -0.000   0.000   0.000  -1.727   0.000   0.000   0.000   0.000   0.000  -0.000   0.000
 -0.000   0.000  -0.000   0.000   1.820   0.000   0.000   0.000  -0.000  -1.441   0.000  -0.000   0.038   0.000  -0.000  -0.001
 -1.441   0.000  -0.000  -0.000   0.000   2.449   0.000   0.000   0.000   0.000  -0.000   0.000  -0.000   0.000  -0.050   0.000
  0.000  -1.727   0.000   0.000   0.000  -0.000   2.354   0.000  -0.000   0.000  -0.000   0.000   0.000   0.000   0.000   0.000
 -0.000   0.000  -1.051   0.000   0.000   0.000   0.000   2.042  -0.000  -0.000  -0.194   0.010   0.000   0.000  -0.000   0.000
  0.000   0.000   0.000  -1.727  -0.000   0.000  -0.000  -0.000   2.354   0.000  -0.000   0.000   0.000  -0.000  -0.000   0.000
  0.000  -0.000   0.000   0.000  -1.441  -0.000   0.000  -0.000   0.000   2.449  -0.000   0.000  -0.050  -0.000   0.000   0.002
  0.000   0.000   0.092   0.000   0.000  -0.000   0.000  -0.194   0.000  -0.000   3.011  -0.357   0.000   0.000   0.000   0.000
 -0.000   0.000  -0.018   0.000  -0.000   0.000   0.000   0.010  -0.000   0.000  -0.357   0.048  -0.000   0.000   0.000   0.000
  0.000   0.000  -0.000  -0.000   0.038  -0.000   0.000  -0.000   0.000  -0.050   0.000   0.000   0.416  -0.000  -0.000  -0.031
 -0.000   0.000   0.000   0.000  -0.000  -0.000  -0.000   0.000   0.000   0.000   0.000   0.000  -0.000   0.380  -0.000  -0.000
  0.038   0.000   0.000  -0.000  -0.000  -0.050  -0.000  -0.000  -0.000   0.000   0.000  -0.000  -0.000   0.000   0.416   0.000
 -0.000   0.000   0.000   0.000  -0.001   0.000   0.000   0.000   0.000   0.002   0.000   0.000  -0.031  -0.000   0.000   0.003
  0.000   0.000   0.000  -0.000  -0.000   0.000   0.000   0.000   0.000   0.000   0.000   0.000  -0.000  -0.035  -0.000   0.000
 -0.001   0.000  -0.000  -0.000   0.000   0.002  -0.000   0.000   0.000  -0.000   0.000   0.000   0.000   0.000  -0.031  -0.000


------------------------ aborting loop because EDIFF is reached ----------------------------------------


    CHARGE:  cpu time    0.0196: real time    0.0196
    FORLOC:  cpu time    0.0002: real time    0.0002
    FORNL :  cpu time    0.0894: real time    0.0894
    STRESS:  cpu time    0.1335: real time    0.1335
    FORCOR:  cpu time    0.0034: real time    0.0034
    FORHAR:  cpu time    0.0007: real time    0.0007
    MIXING:  cpu time    0.0002: real time    0.0002

  FORCE on cell =-STRESS in cart. coord.  units (eV):
  Direction    XX          YY          ZZ          XY          YZ          ZX
  --------------------------------------------------------------------------------------
  Alpha Z   151.09488   151.09488   151.09488
  Ewald    -399.03433  -399.03433  -472.01231     0.00000     0.00000    -0.00000
  Hartree    61.89163    61.89163    35.86501    -0.00000    -0.00000    -0.00000
  E(xc)     -79.91594   -79.91594   -79.50316     0.00009    -0.00000    -0.00000
  Local      94.86431    94.86444   188.50305    -0.00055     0.00000    -0.00000
  n-local   -49.72325   -49.06077   -52.79205    -5.35625     1.36267     0.87146
  augment    74.83014    74.82995    75.77673     0.00061    -0.00000    -0.00000
  Kinetic   157.46235   150.77285   151.47237     1.98808    -0.73217     0.32900
  Fock        0.00000     0.00000     0.00000     0.00000     0.00000     0.00000
  -------------------------------------------------------------------------------------
  Total       8.45625     8.45625    -1.59549    -0.00000    -0.00000     0.00000
  in kB     740.48042   740.48042  -139.71078    -0.00000    -0.00000     0.00000
  external pressure =      447.08 kB  Pullay stress =        0.00 kB


 VOLUME and BASIS-vectors are now :
 -----------------------------------------------------------------------------
  energy-cutoff  :      280.00
  volume of cell :       18.30
      direct lattice vectors                 reciprocal lattice vectors
     2.260100000  0.000000000  0.000000000     0.442458298  0.255453418  0.000000000
    -1.130050000  1.957304015  0.000000000     0.000000000  0.510906835  0.000000000
     0.000000000  0.000000000  4.136080000     0.000000000  0.000000000  0.241774821

  length of vectors
     2.260100000  2.260100000  4.136080000     0.510906835  0.510906835  0.241774821


 FORCES acting on ions
    electron-ion (+dipol)            ewald-force                    non-local-force                 convergence-correction
 -----------------------------------------------------------------------------------------------
   0.950E-06 -.318E-06 -.239E-13   0.483E-12 -.263E-12 -.235E-13   -.320E-17 0.319E-17 0.809E-19   -.229E-09 0.136E-09 -.343E-13
   0.150E-05 0.166E-05 0.248E-12   -.474E-12 0.268E-12 0.235E-13   0.350E-17 -.100E-17 0.124E-18   0.223E-09 -.132E-09 0.708E-13
 -----------------------------------------------------------------------------------------------
   0.245E-05 0.134E-05 0.224E-12   0.933E-14 0.576E-14 -.561E-17   0.302E-18 0.219E-17 0.205E-18   -.626E-11 0.379E-11 0.366E-13
 
 
 POSITION                                       TOTAL-FORCE (eV/Angst)
 -----------------------------------------------------------------------------------
      0.00000      0.00000      0.00000        -0.000000      0.000000      0.000000
      0.00000      1.30487      2.06804         0.000000     -0.000000     -0.000000
 -----------------------------------------------------------------------------------
    total drift:                                0.000002      0.000001      0.000000


--------------------------------------------------------------------------------------------------------



  FREE ENERGIE OF THE ION-ELECTRON SYSTEM (eV)
  ---------------------------------------------------
  free  energy   TOTEN  =       -15.60620398 eV

  energy  without entropy=      -15.60769995  energy(sigma->0) =      -15.60670264
 


--------------------------------------------------------------------------------------------------------


    POTLOK:  cpu time    0.0055: real time    0.0055


--------------------------------------------------------------------------------------------------------


 writing wavefunctions
     LOOP+:  cpu time   10.2462: real time   10.2667
    4ORBIT:  cpu time    0.0000: real time    0.0000

 total amount of memory used by VASP MPI-rank0    48640. kBytes
=======================================================================

   base      :      30000. kBytes
   nonl-proj :       2868. kBytes
   grid      :        812. kBytes
   one-center:         31. kBytes
   wavefun   :      14929. kBytes
 
  
  
 General timing and accounting informations for this job:
 ========================================================
  
                  Total CPU time used (sec):       10.416
                            User time (sec):       10.348
                          System time (sec):        0.068
                         Elapsed time (sec):       10.426
  
                   Maximum memory used (kb):       54512.
                   Average memory used (kb):          N/A
  
                          Minor page faults:         7283
                          Major page faults:            0
                 Voluntary context switches:           26
