 vasp.6.2.0 18Jan21 (build Mar 17 2021 09:06:54) complex                        
  
 POSCAR found type information on POSCAR Fe
 POSCAR found :  1 types and       2 ions
 LDA part: xc-table for Pade appr. of Perdew
 POSCAR, INCAR and KPOINTS ok, starting setup
 FFT: planning ...
 WAVECAR not read
 WARNING: chargedensity file is incomplete
 entering main loop
       N       E                     dE             d eps       ncg     rms          rms(c)
DAV:   1     0.601050177884E+02    0.60105E+02   -0.24951E+03  9376   0.331E+02
DAV:   2    -0.141390505561E+02   -0.74244E+02   -0.63267E+02  7896   0.968E+01
DAV:   3    -0.183413823661E+02   -0.42023E+01   -0.40049E+01  9664   0.239E+01
DAV:   4    -0.183571112858E+02   -0.15729E-01   -0.15721E-01  9000   0.152E+00
DAV:   5    -0.183571224227E+02   -0.11137E-04   -0.11135E-04  9240   0.389E-02    0.191E+01
DAV:   6    -0.157721152302E+02    0.25850E+01   -0.14624E+00 11224   0.220E+01    0.170E+00
DAV:   7    -0.156479699089E+02    0.12415E+00   -0.66403E-02  9632   0.365E+00    0.156E+00
DAV:   8    -0.156125729174E+02    0.35397E-01   -0.25856E-03 10416   0.330E-01    0.559E-01
DAV:   9    -0.156061931445E+02    0.63798E-02   -0.71201E-04 10520   0.143E-01    0.543E-02
DAV:  10    -0.156062239748E+02   -0.30830E-04   -0.22829E-05  8656   0.233E-02    0.285E-02
DAV:  11    -0.156062052700E+02    0.18705E-04   -0.46190E-07  8816   0.548E-03    0.230E-03
DAV:  12    -0.156062035912E+02    0.16788E-05   -0.77363E-08  6560   0.121E-03    0.120E-03
DAV:  13    -0.156062039763E+02   -0.38508E-06   -0.69085E-09  5168   0.405E-04
   1 F= -.15606204E+02 E0= -.15606703E+02  d E =0.149598E-02
 writing wavefunctions
