<?xml version="1.0" encoding="ISO-8859-1"?>
<modeling>
 <generator>
  <i name="program" type="string">vasp </i>
  <i name="version" type="string">6.2.0  </i>
  <i name="subversion" type="string">18Jan21 (build Mar 17 2021 09:06:54) complex                          serial </i>
  <i name="platform" type="string">LinuxIFC </i>
  <i name="date" type="string">2021 09 09 </i>
  <i name="time" type="string">12:00:31 </i>
 </generator>
 <incar>
  <i type="string" name="PREC">normal</i>
  <i type="int" name="ICHARG">     1</i>
  <i type="int" name="IBRION">     1</i>
  <i name="EDIFF">      0.00000100</i>
  <i type="int" name="NSW">     0</i>
  <i type="int" name="ISIF">     2</i>
  <i name="ENCUT">    280.00000000</i>
  <i type="int" name="NBANDS">    40</i>
  <i type="int" name="ISMEAR">     1</i>
  <i name="SIGMA">      0.20000000</i>
  <i type="logical" name="LCHARG"> T  </i>
  <i type="int" name="KPAR">     1</i>
  <i type="int" name="NCORE">     1</i>
  <i type="string" name="GGA">PE</i>
 </incar>
 <primitive_cell>
  <structure name="primitive_cell" >
   <crystal>
    <varray name="basis" >
     <v>       2.26010000       0.00000000       0.00000000 </v>
     <v>      -1.13005000       1.95730402       0.00000000 </v>
     <v>       0.00000000       0.00000000       4.13608000 </v>
    </varray>
    <i name="volume">     18.29678870 </i>
    <varray name="rec_basis" >
     <v>       0.44245830       0.25545342       0.00000000 </v>
     <v>       0.00000000       0.51090684       0.00000000 </v>
     <v>       0.00000000       0.00000000       0.24177482 </v>
    </varray>
   </crystal>
   <varray name="positions" >
    <v>       0.00000000       0.00000000       0.00000000 </v>
    <v>       0.33333333       0.66666667       0.50000000 </v>
   </varray>
  </structure>
  <varray name="primitive_index" >
   <v type="int" >        1 </v>
   <v type="int" >        2 </v>
  </varray>
 </primitive_cell>
 <kpoints>
  <generation param="Monkhorst-Pack">
   <v type="int" name="divisions">      11       11       11 </v>
   <v name="usershift">      0.00000000       0.00000000       0.00000000 </v>
   <v name="genvec1">      0.09090909       0.00000000       0.00000000 </v>
   <v name="genvec2">      0.00000000       0.09090909       0.00000000 </v>
   <v name="genvec3">      0.00000000       0.00000000       0.09090909 </v>
   <v name="shift">      0.00000000       0.00000000       0.00000000 </v>
  </generation>
  <varray name="kpointlist" >
   <v>       0.00000000       0.00000000       0.00000000 </v>
   <v>       0.09090909       0.00000000       0.00000000 </v>
   <v>       0.18181818      -0.00000000       0.00000000 </v>
   <v>       0.27272727       0.00000000       0.00000000 </v>
   <v>       0.36363636       0.00000000       0.00000000 </v>
   <v>       0.45454545      -0.00000000       0.00000000 </v>
   <v>       0.09090909       0.09090909       0.00000000 </v>
   <v>       0.18181818       0.09090909       0.00000000 </v>
   <v>       0.27272727       0.09090909       0.00000000 </v>
   <v>       0.36363636       0.09090909       0.00000000 </v>
   <v>       0.45454545       0.09090909       0.00000000 </v>
   <v>       0.18181818       0.18181818       0.00000000 </v>
   <v>       0.27272727       0.18181818       0.00000000 </v>
   <v>       0.36363636       0.18181818       0.00000000 </v>
   <v>       0.27272727       0.27272727       0.00000000 </v>
   <v>       0.36363636       0.27272727       0.00000000 </v>
   <v>       0.00000000       0.00000000       0.09090909 </v>
   <v>       0.09090909       0.00000000       0.09090909 </v>
   <v>       0.18181818      -0.00000000       0.09090909 </v>
   <v>       0.27272727       0.00000000       0.09090909 </v>
   <v>       0.36363636       0.00000000       0.09090909 </v>
   <v>       0.45454545      -0.00000000       0.09090909 </v>
   <v>       0.09090909       0.09090909       0.09090909 </v>
   <v>       0.18181818       0.09090909       0.09090909 </v>
   <v>       0.27272727       0.09090909       0.09090909 </v>
   <v>       0.36363636       0.09090909       0.09090909 </v>
   <v>       0.45454545       0.09090909       0.09090909 </v>
   <v>       0.18181818       0.18181818       0.09090909 </v>
   <v>       0.27272727       0.18181818       0.09090909 </v>
   <v>       0.36363636       0.18181818       0.09090909 </v>
   <v>       0.27272727       0.27272727       0.09090909 </v>
   <v>       0.36363636       0.27272727       0.09090909 </v>
   <v>       0.00000000       0.00000000       0.18181818 </v>
   <v>       0.09090909       0.00000000       0.18181818 </v>
   <v>       0.18181818      -0.00000000       0.18181818 </v>
   <v>       0.27272727       0.00000000       0.18181818 </v>
   <v>       0.36363636       0.00000000       0.18181818 </v>
   <v>       0.45454545      -0.00000000       0.18181818 </v>
   <v>       0.09090909       0.09090909       0.18181818 </v>
   <v>       0.18181818       0.09090909       0.18181818 </v>
   <v>       0.27272727       0.09090909       0.18181818 </v>
   <v>       0.36363636       0.09090909       0.18181818 </v>
   <v>       0.45454545       0.09090909       0.18181818 </v>
   <v>       0.18181818       0.18181818       0.18181818 </v>
   <v>       0.27272727       0.18181818       0.18181818 </v>
   <v>       0.36363636       0.18181818       0.18181818 </v>
   <v>       0.27272727       0.27272727       0.18181818 </v>
   <v>       0.36363636       0.27272727       0.18181818 </v>
   <v>       0.00000000       0.00000000       0.27272727 </v>
   <v>       0.09090909       0.00000000       0.27272727 </v>
   <v>       0.18181818      -0.00000000       0.27272727 </v>
   <v>       0.27272727       0.00000000       0.27272727 </v>
   <v>       0.36363636       0.00000000       0.27272727 </v>
   <v>       0.45454545      -0.00000000       0.27272727 </v>
   <v>       0.09090909       0.09090909       0.27272727 </v>
   <v>       0.18181818       0.09090909       0.27272727 </v>
   <v>       0.27272727       0.09090909       0.27272727 </v>
   <v>       0.36363636       0.09090909       0.27272727 </v>
   <v>       0.45454545       0.09090909       0.27272727 </v>
   <v>       0.18181818       0.18181818       0.27272727 </v>
   <v>       0.27272727       0.18181818       0.27272727 </v>
   <v>       0.36363636       0.18181818       0.27272727 </v>
   <v>       0.27272727       0.27272727       0.27272727 </v>
   <v>       0.36363636       0.27272727       0.27272727 </v>
   <v>       0.00000000       0.00000000       0.36363636 </v>
   <v>       0.09090909       0.00000000       0.36363636 </v>
   <v>       0.18181818      -0.00000000       0.36363636 </v>
   <v>       0.27272727       0.00000000       0.36363636 </v>
   <v>       0.36363636       0.00000000       0.36363636 </v>
   <v>       0.45454545      -0.00000000       0.36363636 </v>
   <v>       0.09090909       0.09090909       0.36363636 </v>
   <v>       0.18181818       0.09090909       0.36363636 </v>
   <v>       0.27272727       0.09090909       0.36363636 </v>
   <v>       0.36363636       0.09090909       0.36363636 </v>
   <v>       0.45454545       0.09090909       0.36363636 </v>
   <v>       0.18181818       0.18181818       0.36363636 </v>
   <v>       0.27272727       0.18181818       0.36363636 </v>
   <v>       0.36363636       0.18181818       0.36363636 </v>
   <v>       0.27272727       0.27272727       0.36363636 </v>
   <v>       0.36363636       0.27272727       0.36363636 </v>
   <v>       0.00000000       0.00000000       0.45454545 </v>
   <v>       0.09090909       0.00000000       0.45454545 </v>
   <v>       0.18181818      -0.00000000       0.45454545 </v>
   <v>       0.27272727       0.00000000       0.45454545 </v>
   <v>       0.36363636       0.00000000       0.45454545 </v>
   <v>       0.45454545      -0.00000000       0.45454545 </v>
   <v>       0.09090909       0.09090909       0.45454545 </v>
   <v>       0.18181818       0.09090909       0.45454545 </v>
   <v>       0.27272727       0.09090909       0.45454545 </v>
   <v>       0.36363636       0.09090909       0.45454545 </v>
   <v>       0.45454545       0.09090909       0.45454545 </v>
   <v>       0.18181818       0.18181818       0.45454545 </v>
   <v>       0.27272727       0.18181818       0.45454545 </v>
   <v>       0.36363636       0.18181818       0.45454545 </v>
   <v>       0.27272727       0.27272727       0.45454545 </v>
   <v>       0.36363636       0.27272727       0.45454545 </v>
  </varray>
  <varray name="weights" >
   <v>       0.00075131 </v>
   <v>       0.00450789 </v>
   <v>       0.00450789 </v>
   <v>       0.00450789 </v>
   <v>       0.00450789 </v>
   <v>       0.00450789 </v>
   <v>       0.00450789 </v>
   <v>       0.00901578 </v>
   <v>       0.00901578 </v>
   <v>       0.00901578 </v>
   <v>       0.00450789 </v>
   <v>       0.00450789 </v>
   <v>       0.00901578 </v>
   <v>       0.00901578 </v>
   <v>       0.00450789 </v>
   <v>       0.00450789 </v>
   <v>       0.00150263 </v>
   <v>       0.00901578 </v>
   <v>       0.00901578 </v>
   <v>       0.00901578 </v>
   <v>       0.00901578 </v>
   <v>       0.00901578 </v>
   <v>       0.00901578 </v>
   <v>       0.01803156 </v>
   <v>       0.01803156 </v>
   <v>       0.01803156 </v>
   <v>       0.00901578 </v>
   <v>       0.00901578 </v>
   <v>       0.01803156 </v>
   <v>       0.01803156 </v>
   <v>       0.00901578 </v>
   <v>       0.00901578 </v>
   <v>       0.00150263 </v>
   <v>       0.00901578 </v>
   <v>       0.00901578 </v>
   <v>       0.00901578 </v>
   <v>       0.00901578 </v>
   <v>       0.00901578 </v>
   <v>       0.00901578 </v>
   <v>       0.01803156 </v>
   <v>       0.01803156 </v>
   <v>       0.01803156 </v>
   <v>       0.00901578 </v>
   <v>       0.00901578 </v>
   <v>       0.01803156 </v>
   <v>       0.01803156 </v>
   <v>       0.00901578 </v>
   <v>       0.00901578 </v>
   <v>       0.00150263 </v>
   <v>       0.00901578 </v>
   <v>       0.00901578 </v>
   <v>       0.00901578 </v>
   <v>       0.00901578 </v>
   <v>       0.00901578 </v>
   <v>       0.00901578 </v>
   <v>       0.01803156 </v>
   <v>       0.01803156 </v>
   <v>       0.01803156 </v>
   <v>       0.00901578 </v>
   <v>       0.00901578 </v>
   <v>       0.01803156 </v>
   <v>       0.01803156 </v>
   <v>       0.00901578 </v>
   <v>       0.00901578 </v>
   <v>       0.00150263 </v>
   <v>       0.00901578 </v>
   <v>       0.00901578 </v>
   <v>       0.00901578 </v>
   <v>       0.00901578 </v>
   <v>       0.00901578 </v>
   <v>       0.00901578 </v>
   <v>       0.01803156 </v>
   <v>       0.01803156 </v>
   <v>       0.01803156 </v>
   <v>       0.00901578 </v>
   <v>       0.00901578 </v>
   <v>       0.01803156 </v>
   <v>       0.01803156 </v>
   <v>       0.00901578 </v>
   <v>       0.00901578 </v>
   <v>       0.00150263 </v>
   <v>       0.00901578 </v>
   <v>       0.00901578 </v>
   <v>       0.00901578 </v>
   <v>       0.00901578 </v>
   <v>       0.00901578 </v>
   <v>       0.00901578 </v>
   <v>       0.01803156 </v>
   <v>       0.01803156 </v>
   <v>       0.01803156 </v>
   <v>       0.00901578 </v>
   <v>       0.00901578 </v>
   <v>       0.01803156 </v>
   <v>       0.01803156 </v>
   <v>       0.00901578 </v>
   <v>       0.00901578 </v>
  </varray>
 </kpoints>
 <parameters>
  <separator name="general" >
   <i type="string" name="SYSTEM">unknown system</i>
   <i type="logical" name="LCOMPAT"> F  </i>
  </separator>
  <separator name="electronic" >
   <i type="string" name="PREC">normal</i>
   <i name="ENMAX">    280.00000000</i>
   <i name="ENAUG">    511.36800000</i>
   <i name="EDIFF">      0.00000100</i>
   <i type="int" name="IALGO">    38</i>
   <i type="int" name="IWAVPR">     0</i>
   <i type="int" name="NBANDS">    40</i>
   <i type="int" name="NBANDSLOW">    -1</i>
   <i type="int" name="NBANDSHIGH">    -1</i>
   <i name="NELECT">     16.00000000</i>
   <i type="int" name="TURBO">     0</i>
   <i type="int" name="IRESTART">     0</i>
   <i type="int" name="NREBOOT">     0</i>
   <i type="int" name="NMIN">     0</i>
   <i name="EREF">      0.00000000</i>
   <separator name="electronic smearing" >
    <i type="int" name="ISMEAR">     1</i>
    <i name="SIGMA">      0.20000000</i>
    <i name="KSPACING">      0.50000000</i>
    <i type="logical" name="KGAMMA"> T  </i>
    <i type="logical" name="KBLOWUP"> T  </i>
   </separator>
   <separator name="electronic projectors" >
    <i type="logical" name="LREAL"> F  </i>
    <v name="ROPT">      0.00000000</v>
    <i type="int" name="LMAXPAW">  -100</i>
    <i type="int" name="LMAXMIX">     2</i>
    <i type="logical" name="NLSPLINE"> F  </i>
   </separator>
   <separator name="electronic startup" >
    <i type="int" name="ISTART">     0</i>
    <i type="int" name="ICHARG">     1</i>
    <i type="int" name="INIWAV">     1</i>
   </separator>
   <separator name="electronic spin" >
    <i type="int" name="ISPIN">     1</i>
    <i type="logical" name="LNONCOLLINEAR"> F  </i>
    <v name="MAGMOM">      1.00000000      1.00000000</v>
    <i name="NUPDOWN">     -1.00000000</i>
    <i type="logical" name="LSORBIT"> F  </i>
    <v name="SAXIS">      0.00000000      0.00000000      1.00000000</v>
    <i type="logical" name="LSPIRAL"> F  </i>
    <v name="QSPIRAL">      0.00000000      0.00000000      0.00000000</v>
    <i type="logical" name="LZEROZ"> F  </i>
   </separator>
   <separator name="electronic exchange-correlation" >
    <i type="logical" name="LASPH"> F  </i>
    <i type="logical" name="LMETAGGA"> F  </i>
   </separator>
   <separator name="electronic convergence" >
    <i type="int" name="NELM">    60</i>
    <i type="int" name="NELMDL">    -5</i>
    <i type="int" name="NELMIN">     2</i>
    <i name="ENINI">    280.00000000</i>
    <separator name="electronic convergence detail" >
     <i type="logical" name="LDIAG"> T  </i>
     <i type="logical" name="LSUBROT"> F  </i>
     <i name="WEIMIN">      0.00000000</i>
     <i name="EBREAK">      0.00000001</i>
     <i name="DEPER">      0.30000000</i>
     <i type="int" name="NRMM">     4</i>
     <i name="TIME">      0.40000000</i>
    </separator>
   </separator>
   <separator name="electronic mixer" >
    <i name="AMIX">      0.40000000</i>
    <i name="BMIX">      1.00000000</i>
    <i name="AMIN">      0.10000000</i>
    <i name="AMIX_MAG">      1.60000000</i>
    <i name="BMIX_MAG">      1.00000000</i>
    <separator name="electronic mixer details" >
     <i type="int" name="IMIX">     4</i>
     <i type="logical" name="MIXFIRST"> F  </i>
     <i type="int" name="MAXMIX">   -45</i>
     <i name="WC">    100.00000000</i>
     <i type="int" name="INIMIX">     1</i>
     <i type="int" name="MIXPRE">     1</i>
     <i type="int" name="MREMOVE">     5</i>
    </separator>
   </separator>
   <separator name="electronic dipolcorrection" >
    <i type="logical" name="LDIPOL"> F  </i>
    <i type="logical" name="LMONO"> F  </i>
    <i type="int" name="IDIPOL">     0</i>
    <i name="EPSILON">      1.00000000</i>
    <v name="DIPOL">   -100.00000000   -100.00000000   -100.00000000</v>
    <i name="EFIELD">      0.00000000</i>
   </separator>
  </separator>
  <separator name="grids" >
   <i type="int" name="NGX">    10</i>
   <i type="int" name="NGY">    10</i>
   <i type="int" name="NGZ">    18</i>
   <i type="int" name="NGXF">    20</i>
   <i type="int" name="NGYF">    20</i>
   <i type="int" name="NGZF">    36</i>
   <i type="logical" name="ADDGRID"> F  </i>
  </separator>
  <separator name="ionic" >
   <i type="int" name="NSW">     0</i>
   <i type="int" name="IBRION">    -1</i>
   <i type="int" name="MDALGO">     0</i>
   <i type="int" name="ISIF">     2</i>
   <i name="PSTRESS">      0.00000000</i>
   <i name="EDIFFG">      0.00001000</i>
   <i type="int" name="NFREE">     0</i>
   <i name="POTIM">      0.50000000</i>
   <i name="SMASS">     -3.00000000</i>
   <i name="SCALEE">      1.00000000</i>
  </separator>
  <separator name="ionic md" >
   <i name="TEBEG">      0.00010000</i>
   <i name="TEEND">      0.00010000</i>
   <i type="int" name="NBLOCK">     1</i>
   <i type="int" name="KBLOCK">     1</i>
   <i type="int" name="NPACO">   256</i>
   <i name="APACO">     16.00000000</i>
  </separator>
  <separator name="symmetry" >
   <i type="int" name="ISYM">     2</i>
   <i name="SYMPREC">      0.00001000</i>
  </separator>
  <separator name="dos" >
   <i type="int" name="LORBIT">     0</i>
   <v name="RWIGS">     -1.00000000</v>
   <i type="int" name="NEDOS">   301</i>
   <i name="EMIN">     10.00000000</i>
   <i name="EMAX">    -10.00000000</i>
   <i name="EFERMI">      0.00000000</i>
  </separator>
  <separator name="writing" >
   <i type="int" name="NWRITE">     2</i>
   <i type="logical" name="LWAVE"> T  </i>
   <i type="logical" name="LDOWNSAMPLE"> F  </i>
   <i type="logical" name="LCHARG"> T  </i>
   <i type="logical" name="LPARD"> F  </i>
   <i type="logical" name="LVTOT"> F  </i>
   <i type="logical" name="LVHAR"> F  </i>
   <i type="logical" name="LELF"> F  </i>
   <i type="logical" name="LOPTICS"> F  </i>
   <v name="STM">      0.00000000      0.00000000      0.00000000      0.00000000      0.00000000      0.00000000      0.00000000</v>
  </separator>
  <separator name="performance" >
   <i type="int" name="NPAR">     1</i>
   <i type="int" name="NSIM">     4</i>
   <i type="int" name="NBLK">    -1</i>
   <i type="logical" name="LPLANE"> T  </i>
   <i type="logical" name="LSCALAPACK"> F  </i>
   <i type="logical" name="LSCAAWARE"> F  </i>
   <i type="logical" name="LSCALU"> F  </i>
   <i type="logical" name="LASYNC"> F  </i>
   <i type="logical" name="LORBITALREAL"> F  </i>
  </separator>
  <separator name="miscellaneous" >
   <i type="int" name="IDIOT">     3</i>
   <i type="int" name="PHON_NSTRUCT">    -1</i>
   <i type="logical" name="LMUSIC"> F  </i>
   <v name="POMASS">     55.84700000</v>
   <v name="DARWINR">      0.00000000</v>
   <v name="DARWINV">      1.00000000</v>
   <i type="logical" name="LCORR"> T  </i>
  </separator>
  <i type="logical" name="GGA_COMPAT"> T  </i>
  <i type="logical" name="LBERRY"> F  </i>
  <i type="int" name="ICORELEVEL">     0</i>
  <i type="logical" name="LDAU"> F  </i>
  <i type="int" name="I_CONSTRAINED_M">     0</i>
  <separator name="electronic exchange-correlation" >
   <i type="string" name="GGA">PE</i>
   <i type="int" name="VOSKOWN">     0</i>
   <i type="logical" name="LHFCALC"> F  </i>
   <i type="string" name="PRECFOCK"></i>
   <i type="logical" name="LSYMGRAD"> F  </i>
   <i type="logical" name="LHFONE"> F  </i>
   <i type="logical" name="LRHFCALC"> F  </i>
   <i type="logical" name="LTHOMAS"> F  </i>
   <i type="logical" name="LMODELHF"> F  </i>
   <i type="logical" name="LFOCKACE"> F  </i>
   <i name="ENCUT4O">     -1.00000000</i>
   <i type="int" name="EXXOEP">     0</i>
   <i type="int" name="FOURORBIT">     0</i>
   <i name="AEXX">      0.00000000</i>
   <i name="HFALPHA">      0.00000000</i>
   <i name="MCALPHA">      0.00000000</i>
   <i name="ALDAX">      1.00000000</i>
   <i name="AGGAX">      1.00000000</i>
   <i name="ALDAC">      1.00000000</i>
   <i name="AGGAC">      1.00000000</i>
   <i type="int" name="NKREDX">     1</i>
   <i type="int" name="NKREDY">     1</i>
   <i type="int" name="NKREDZ">     1</i>
   <i type="logical" name="SHIFTRED"> F  </i>
   <i type="logical" name="ODDONLY"> F  </i>
   <i type="logical" name="EVENONLY"> F  </i>
   <i type="int" name="LMAXFOCK">     0</i>
   <i type="int" name="NMAXFOCKAE">     0</i>
   <i type="logical" name="LFOCKAEDFT"> F  </i>
   <i name="HFSCREEN">      0.00000000</i>
   <i name="HFSCREENC">      0.00000000</i>
   <i type="int" name="NBANDSGWLOW">     0</i>
  </separator>
  <separator name="vdW DFT" >
   <i type="logical" name="LUSE_VDW"> F  </i>
   <i name="Zab_VDW">     -0.84910000</i>
   <i name="PARAM1">      0.12340000</i>
   <i name="PARAM2">      1.00000000</i>
   <i name="PARAM3">      0.00000000</i>
  </separator>
  <separator name="model GW" >
   <i type="int" name="MODEL_GW">     0</i>
   <i name="MODEL_EPS0">      5.48903661</i>
   <i name="MODEL_ALPHA">      1.00000000</i>
  </separator>
  <separator name="linear response parameters" >
   <i type="logical" name="LEPSILON"> F  </i>
   <i type="logical" name="LRPA"> F  </i>
   <i type="logical" name="LNABLA"> F  </i>
   <i type="logical" name="LVEL"> F  </i>
   <i type="int" name="KINTER">     0</i>
   <i name="CSHIFT">      0.10000000</i>
   <i name="OMEGAMAX">     -1.00000000</i>
   <i name="DEG_THRESHOLD">      0.00200000</i>
   <i name="RTIME">     -0.10000000</i>
   <i name="WPLASMAI">      0.00000000</i>
   <v name="DFIELD">      0.00000000      0.00000000      0.00000000</v>
   <v name="WPLASMA">      0.00000000      0.00000000      0.00000000      0.00000000      0.00000000      0.00000000      0.00000000      0.00000000      0.00000000</v>
  </separator>
  <separator name="orbital magnetization" >
   <i type="logical" name="NUCIND"> F  </i>
   <v name="MAGPOS">      0.00000000      0.00000000      0.00000000</v>
   <i type="logical" name="LNICSALL"> T  </i>
   <i type="logical" name="ORBITALMAG"> F  </i>
   <i type="logical" name="LMAGBLOCH"> F  </i>
   <i type="logical" name="LCHIMAG"> F  </i>
   <i type="logical" name="LGAUGE"> T  </i>
   <i type="int" name="MAGATOM">     0</i>
   <v name="MAGDIPOL">      0.00000000      0.00000000      0.00000000</v>
   <v name="AVECCONST">      0.00000000      0.00000000      0.00000000</v>
  </separator>
  <separator name="response functions" >
   <i type="logical" name="LFINITE_TEMPERATURE"> F  </i>
   <i type="logical" name="LADDER"> F  </i>
   <i type="logical" name="LRPAFORCE"> F  </i>
   <i type="logical" name="LFXC"> F  </i>
   <i type="logical" name="LHARTREE"> T  </i>
   <i type="int" name="IBSE">     0</i>
   <v type="int" name="KPOINT">    -1     0     0     0</v>
   <i type="logical" name="LTCTC"> F  </i>
   <i type="logical" name="LTCTE"> F  </i>
   <i type="logical" name="LTETE"> F  </i>
   <i type="logical" name="LTRIPLET"> F  </i>
   <i type="logical" name="LFXCEPS"> F  </i>
   <i type="logical" name="LFXHEG"> F  </i>
   <i type="int" name="NATURALO">     2</i>
   <i type="logical" name="LHOLEGF"> F  </i>
   <i type="logical" name="L2ORDER"> F  </i>
   <i type="logical" name="LDMP1"> F  </i>
   <i type="logical" name="LMP2LT"> F  </i>
   <i type="logical" name="LSMP2LT"> F  </i>
   <i type="logical" name="LGWLF"> F  </i>
   <i name="ENCUTGW">     -2.00000000</i>
   <i name="ENCUTGWSOFT">     -2.00000000</i>
   <i name="ENCUTLF">     -1.00000000</i>
   <i type="logical" name="LESF_SPLINES"> F  </i>
   <i type="int" name="LMAXMP2">    -1</i>
   <i name="SCISSOR">      0.00000000</i>
   <i type="int" name="NOMEGA">     0</i>
   <i type="int" name="NOMEGAR">     0</i>
   <i type="int" name="NBANDSGW">    -1</i>
   <i type="int" name="NBANDSO">    -1</i>
   <i type="int" name="NBANDSV">    -1</i>
   <i type="int" name="NELM">     1</i>
   <i type="int" name="NELMHF">     1</i>
   <i type="int" name="DIM">     3</i>
   <i type="int" name="IESPILON">     4</i>
   <i type="int" name="ANTIRES">     0</i>
   <i name="OMEGAMAX">    -30.00000000</i>
   <i name="OMEGAMIN">    -30.00000000</i>
   <i name="OMEGATL">   -200.00000000</i>
   <i type="int" name="OMEGAGRID">     0</i>
   <i name="CSHIFT">     -0.10000000</i>
   <i type="logical" name="LSELFENERGY"> F  </i>
   <i type="logical" name="LSPECTRAL"> F  </i>
   <i type="logical" name="LSPECTRALGW"> F  </i>
   <i type="logical" name="LSINGLES"> F  </i>
   <i type="logical" name="LFERMIGW"> F  </i>
   <i type="logical" name="ODDONLYGW"> F  </i>
   <i type="logical" name="EVENONLYGW"> F  </i>
   <i type="int" name="NKREDLFX">     1</i>
   <i type="int" name="NKREDLFY">     1</i>
   <i type="int" name="NKREDLFZ">     1</i>
   <i type="int" name="MAXMEM">  2800</i>
   <i type="int" name="TELESCOPE">     0</i>
   <i type="int" name="NTAUPAR">    -1</i>
   <i type="int" name="NOMEGAPAR">    -1</i>
   <i name="DAMP_NEWTON">      0.80000001</i>
   <i name="LAMBDA">      1.00000000</i>
  </separator>
  <separator name="External order field" >
   <i name="OFIELD_KAPPA">      0.00000000</i>
   <v name="OFIELD_K">      0.00000000      0.00000000      0.00000000</v>
   <i name="OFIELD_Q6_NEAR">      0.00000000</i>
   <i name="OFIELD_Q6_FAR">      0.00000000</i>
   <i name="OFIELD_A">      0.00000000</i>
  </separator>
 </parameters>
 <atominfo>
  <atoms>       2 </atoms>
  <types>       1 </types>
  <array name="atoms" >
   <dimension dim="1">ion</dimension>
   <field type="string">element</field>
   <field type="int">atomtype</field>
   <set>
    <rc><c>Fe</c><c>   1</c></rc>
    <rc><c>Fe</c><c>   1</c></rc>
   </set>
  </array>
  <array name="atomtypes" >
   <dimension dim="1">type</dimension>
   <field type="int">atomspertype</field>
   <field type="string">element</field>
   <field>mass</field>
   <field>valence</field>
   <field type="string">pseudopotential</field>
   <set>
    <rc><c>   2</c><c>Fe</c><c>     55.84700000</c><c>      8.00000000</c><c>  PAW_PBE Fe 06Sep2000                  </c></rc>
   </set>
  </array>
 </atominfo>
 <structure name="initialpos" >
  <crystal>
   <varray name="basis" >
    <v>       2.26010000       0.00000000       0.00000000 </v>
    <v>      -1.13005000       1.95730402       0.00000000 </v>
    <v>       0.00000000       0.00000000       4.13608000 </v>
   </varray>
   <i name="volume">     18.29678870 </i>
   <varray name="rec_basis" >
    <v>       0.44245830       0.25545342       0.00000000 </v>
    <v>       0.00000000       0.51090684       0.00000000 </v>
    <v>       0.00000000       0.00000000       0.24177482 </v>
   </varray>
  </crystal>
  <varray name="positions" >
   <v>       0.00000000       0.00000000       0.00000000 </v>
   <v>       0.33333333       0.66666667       0.50000000 </v>
  </varray>
 </structure>
 <calculation>
  <scstep>
   <time name="dav">    0.80    0.82</time>
   <time name="total">    0.81    0.83</time>
   <energy>
    <i name="alphaZ">    151.09487714 </i>
    <i name="ewald">  -1270.07999042 </i>
    <i name="hartreedc">   -192.66928886 </i>
    <i name="XCdc">      9.21538314 </i>
    <i name="pawpsdc">   1109.69170683 </i>
    <i name="pawaedc">  -1125.09647265 </i>
    <i name="eentropy">     -0.00055381 </i>
    <i name="bandstr">    189.37444831 </i>
    <i name="atom">   1188.57490811 </i>
    <i name="e_fr_energy">     60.10501779 </i>
    <i name="e_wo_entrp">     60.10557160 </i>
    <i name="e_0_energy">     60.10520239 </i>
   </energy>
  </scstep>
  <scstep>
   <time name="dav">    0.68    0.68</time>
   <time name="total">    0.68    0.68</time>
   <energy>
    <i name="e_fr_energy">    -14.13905056 </i>
    <i name="e_wo_entrp">    -14.14087686 </i>
    <i name="e_0_energy">    -14.13965933 </i>
   </energy>
  </scstep>
  <scstep>
   <time name="dav">    0.79    0.79</time>
   <time name="total">    0.80    0.80</time>
   <energy>
    <i name="e_fr_energy">    -18.34138237 </i>
    <i name="e_wo_entrp">    -18.34108290 </i>
    <i name="e_0_energy">    -18.34128254 </i>
   </energy>
  </scstep>
  <scstep>
   <time name="dav">    0.74    0.74</time>
   <time name="total">    0.74    0.74</time>
   <energy>
    <i name="e_fr_energy">    -18.35711129 </i>
    <i name="e_wo_entrp">    -18.35681999 </i>
    <i name="e_0_energy">    -18.35701419 </i>
   </energy>
  </scstep>
  <scstep>
   <time name="dav">    0.75    0.75</time>
   <time name="total">    0.78    0.78</time>
   <energy>
    <i name="e_fr_energy">    -18.35712242 </i>
    <i name="e_wo_entrp">    -18.35683114 </i>
    <i name="e_0_energy">    -18.35702533 </i>
   </energy>
  </scstep>
  <scstep>
   <time name="dav">    0.91    0.91</time>
   <time name="total">    0.94    0.94</time>
   <energy>
    <i name="e_fr_energy">    -15.77211523 </i>
    <i name="e_wo_entrp">    -15.77369413 </i>
    <i name="e_0_energy">    -15.77264153 </i>
   </energy>
  </scstep>
  <scstep>
   <time name="dav">    0.78    0.78</time>
   <time name="total">    0.81    0.81</time>
   <energy>
    <i name="e_fr_energy">    -15.64796991 </i>
    <i name="e_wo_entrp">    -15.64934060 </i>
    <i name="e_0_energy">    -15.64842681 </i>
   </energy>
  </scstep>
  <scstep>
   <time name="dav">    0.83    0.83</time>
   <time name="total">    0.86    0.86</time>
   <energy>
    <i name="e_fr_energy">    -15.61257292 </i>
    <i name="e_wo_entrp">    -15.61404330 </i>
    <i name="e_0_energy">    -15.61306304 </i>
   </energy>
  </scstep>
  <scstep>
   <time name="dav">    0.84    0.84</time>
   <time name="total">    0.87    0.87</time>
   <energy>
    <i name="e_fr_energy">    -15.60619314 </i>
    <i name="e_wo_entrp">    -15.60768737 </i>
    <i name="e_0_energy">    -15.60669122 </i>
   </energy>
  </scstep>
  <scstep>
   <time name="dav">    0.71    0.71</time>
   <time name="total">    0.74    0.74</time>
   <energy>
    <i name="e_fr_energy">    -15.60622397 </i>
    <i name="e_wo_entrp">    -15.60772091 </i>
    <i name="e_0_energy">    -15.60672295 </i>
   </energy>
  </scstep>
  <scstep>
   <time name="dav">    0.73    0.73</time>
   <time name="total">    0.76    0.76</time>
   <energy>
    <i name="e_fr_energy">    -15.60620527 </i>
    <i name="e_wo_entrp">    -15.60770140 </i>
    <i name="e_0_energy">    -15.60670398 </i>
   </energy>
  </scstep>
  <scstep>
   <time name="dav">    0.60    0.60</time>
   <time name="total">    0.63    0.63</time>
   <energy>
    <i name="e_fr_energy">    -15.60620359 </i>
    <i name="e_wo_entrp">    -15.60769959 </i>
    <i name="e_0_energy">    -15.60670226 </i>
   </energy>
  </scstep>
  <scstep>
   <time name="dav">    0.51    0.51</time>
   <time name="total">    0.52    0.52</time>
   <energy>
    <i name="alphaZ">    151.09487714 </i>
    <i name="ewald">  -1270.07999042 </i>
    <i name="hartreedc">   -159.64856541 </i>
    <i name="XCdc">      7.66217125 </i>
    <i name="pawpsdc">   1625.99977582 </i>
    <i name="pawaedc">  -1644.78586055 </i>
    <i name="eentropy">      0.00149598 </i>
    <i name="bandstr">     85.57498412 </i>
    <i name="atom">   1188.57490811 </i>
    <i name="e_fr_energy">    -15.60620398 </i>
    <i name="e_wo_entrp">    -15.60769995 </i>
    <i name="e_0_energy">    -15.60670264 </i>
   </energy>
  </scstep>
  <structure>
   <crystal>
    <varray name="basis" >
     <v>       2.26010000       0.00000000       0.00000000 </v>
     <v>      -1.13005000       1.95730402       0.00000000 </v>
     <v>       0.00000000       0.00000000       4.13608000 </v>
    </varray>
    <i name="volume">     18.29678870 </i>
    <varray name="rec_basis" >
     <v>       0.44245830       0.25545342       0.00000000 </v>
     <v>       0.00000000       0.51090684       0.00000000 </v>
     <v>       0.00000000       0.00000000       0.24177482 </v>
    </varray>
   </crystal>
   <varray name="positions" >
    <v>       0.00000000       0.00000000       0.00000000 </v>
    <v>       0.33333333       0.66666667       0.50000000 </v>
   </varray>
  </structure>
  <varray name="forces" >
   <v>      -0.00000000       0.00000000       0.00000000 </v>
   <v>       0.00000000      -0.00000000      -0.00000000 </v>
  </varray>
  <varray name="stress" >
   <v>     740.48042057      -0.00000000       0.00000000 </v>
   <v>      -0.00000000     740.48042057      -0.00000000 </v>
   <v>       0.00000000      -0.00000000    -139.71078136 </v>
  </varray>
  <energy>
   <i name="e_fr_energy">    -15.60620398 </i>
   <i name="e_wo_entrp">    -15.60769995 </i>
   <i name="e_0_energy">    -15.60670264 </i>
  </energy>
  <time name="totalsc">   10.25   10.27</time>
  <eigenvalues>
   <array>
    <dimension dim="1">band</dimension>
    <dimension dim="2">kpoint</dimension>
    <dimension dim="3">spin</dimension>
    <field>eigene</field>
    <field>occ</field>
    <set>
     <set comment="spin 1">
      <set comment="kpoint 1">
       <r>   -1.3183    1.0000 </r>
       <r>    2.5279    1.0000 </r>
       <r>    5.3629    1.0000 </r>
       <r>    6.3710    1.0000 </r>
       <r>    6.3711    1.0000 </r>
       <r>    6.6825    1.0000 </r>
       <r>    6.6825    1.0000 </r>
       <r>    6.9740    1.0000 </r>
       <r>    8.0389    1.0128 </r>
       <r>    8.0389    1.0128 </r>
       <r>    9.1031   -0.0000 </r>
       <r>    9.1031   -0.0000 </r>
       <r>   16.0120    0.0000 </r>
       <r>   31.6254    0.0000 </r>
       <r>   33.1509    0.0000 </r>
       <r>   36.1539    0.0000 </r>
       <r>   39.4257    0.0000 </r>
       <r>   39.9772    0.0000 </r>
       <r>   39.9773    0.0000 </r>
       <r>   40.6242    0.0000 </r>
       <r>   40.6243    0.0000 </r>
       <r>   42.6941    0.0000 </r>
       <r>   42.6941    0.0000 </r>
       <r>   43.6831    0.0000 </r>
       <r>   46.6938    0.0000 </r>
       <r>   46.6938    0.0000 </r>
       <r>   47.3277    0.0000 </r>
       <r>   51.6153    0.0000 </r>
       <r>   51.6154    0.0000 </r>
       <r>   53.2090    0.0000 </r>
       <r>   53.2091    0.0000 </r>
       <r>   55.4819    0.0000 </r>
       <r>   62.7888    0.0000 </r>
       <r>   63.8010    0.0000 </r>
       <r>   64.1967    0.0000 </r>
       <r>   64.1970    0.0000 </r>
       <r>   65.0782    0.0000 </r>
       <r>   67.3397    0.0000 </r>
       <r>   67.3398    0.0000 </r>
       <r>   67.3867    0.0000 </r>
      </set>
      <set comment="kpoint 2">
       <r>   -0.9483    1.0000 </r>
       <r>    2.8214    1.0000 </r>
       <r>    5.4460    1.0000 </r>
       <r>    6.1776    1.0000 </r>
       <r>    6.2366    1.0000 </r>
       <r>    6.5333    1.0000 </r>
       <r>    6.6035    1.0000 </r>
       <r>    6.8990    1.0000 </r>
       <r>    7.8209    1.0081 </r>
       <r>    7.9092    1.0251 </r>
       <r>    9.1326   -0.0000 </r>
       <r>   10.1889   -0.0000 </r>
       <r>   16.0353    0.0000 </r>
       <r>   32.0825    0.0000 </r>
       <r>   32.1141    0.0000 </r>
       <r>   34.8790    0.0000 </r>
       <r>   36.8660    0.0000 </r>
       <r>   38.2489    0.0000 </r>
       <r>   38.7269    0.0000 </r>
       <r>   39.2824    0.0000 </r>
       <r>   42.0748    0.0000 </r>
       <r>   42.9128    0.0000 </r>
       <r>   43.8260    0.0000 </r>
       <r>   44.3949    0.0000 </r>
       <r>   47.9677    0.0000 </r>
       <r>   48.2972    0.0000 </r>
       <r>   48.7406    0.0000 </r>
       <r>   49.0251    0.0000 </r>
       <r>   52.0912    0.0000 </r>
       <r>   54.6734    0.0000 </r>
       <r>   55.6821    0.0000 </r>
       <r>   57.4166    0.0000 </r>
       <r>   61.4585    0.0000 </r>
       <r>   63.1411    0.0000 </r>
       <r>   63.1821    0.0000 </r>
       <r>   63.5107    0.0000 </r>
       <r>   64.2764    0.0000 </r>
       <r>   67.5359    0.0000 </r>
       <r>   67.9399    0.0000 </r>
       <r>   68.8289    0.0000 </r>
      </set>
      <set comment="kpoint 3">
       <r>    0.0872    1.0000 </r>
       <r>    3.4973    1.0000 </r>
       <r>    5.0530    1.0000 </r>
       <r>    5.4130    1.0000 </r>
       <r>    5.9377    1.0000 </r>
       <r>    6.5989    1.0000 </r>
       <r>    7.2555    1.0000 </r>
       <r>    7.3156    1.0000 </r>
       <r>    7.5102    1.0000 </r>
       <r>    7.6042    1.0001 </r>
       <r>    9.1732   -0.0000 </r>
       <r>   12.1050   -0.0000 </r>
       <r>   16.1370    0.0000 </r>
       <r>   28.4588    0.0000 </r>
       <r>   33.0758    0.0000 </r>
       <r>   33.5426    0.0000 </r>
       <r>   33.7966    0.0000 </r>
       <r>   33.8405    0.0000 </r>
       <r>   38.6456    0.0000 </r>
       <r>   39.6893    0.0000 </r>
       <r>   40.1143    0.0000 </r>
       <r>   41.1505    0.0000 </r>
       <r>   44.6783    0.0000 </r>
       <r>   45.3962    0.0000 </r>
       <r>   48.8427    0.0000 </r>
       <r>   49.6015    0.0000 </r>
       <r>   50.8276    0.0000 </r>
       <r>   53.1299    0.0000 </r>
       <r>   55.2696    0.0000 </r>
       <r>   57.2057    0.0000 </r>
       <r>   58.4284    0.0000 </r>
       <r>   59.9483    0.0000 </r>
       <r>   60.5796    0.0000 </r>
       <r>   61.1079    0.0000 </r>
       <r>   61.4040    0.0000 </r>
       <r>   62.5206    0.0000 </r>
       <r>   65.5315    0.0000 </r>
       <r>   67.9487    0.0000 </r>
       <r>   68.8586    0.0000 </r>
       <r>   68.8773    0.0000 </r>
      </set>
      <set comment="kpoint 4">
       <r>    1.5068    1.0000 </r>
       <r>    3.7349    1.0000 </r>
       <r>    4.1548    1.0000 </r>
       <r>    5.4570    1.0000 </r>
       <r>    5.7565    1.0000 </r>
       <r>    6.6904    1.0000 </r>
       <r>    7.2544    1.0000 </r>
       <r>    7.5065    1.0000 </r>
       <r>    8.1792    0.6706 </r>
       <r>    8.3656    0.0315 </r>
       <r>    9.1775   -0.0000 </r>
       <r>   14.2949    0.0000 </r>
       <r>   16.3809    0.0000 </r>
       <r>   24.2686    0.0000 </r>
       <r>   29.6269    0.0000 </r>
       <r>   31.1536    0.0000 </r>
       <r>   31.8163    0.0000 </r>
       <r>   33.9438    0.0000 </r>
       <r>   37.2845    0.0000 </r>
       <r>   39.3164    0.0000 </r>
       <r>   40.4130    0.0000 </r>
       <r>   40.4809    0.0000 </r>
       <r>   42.0518    0.0000 </r>
       <r>   45.1665    0.0000 </r>
       <r>   52.5098    0.0000 </r>
       <r>   53.5214    0.0000 </r>
       <r>   54.5820    0.0000 </r>
       <r>   55.3168    0.0000 </r>
       <r>   55.4375    0.0000 </r>
       <r>   58.0384    0.0000 </r>
       <r>   58.9901    0.0000 </r>
       <r>   61.0929    0.0000 </r>
       <r>   61.2712    0.0000 </r>
       <r>   61.3480    0.0000 </r>
       <r>   62.8810    0.0000 </r>
       <r>   65.9516    0.0000 </r>
       <r>   66.0860    0.0000 </r>
       <r>   68.4972    0.0000 </r>
       <r>   68.8314    0.0000 </r>
       <r>   69.6392    0.0000 </r>
      </set>
      <set comment="kpoint 5">
       <r>    2.6275    1.0000 </r>
       <r>    3.3800    1.0000 </r>
       <r>    3.5546    1.0000 </r>
       <r>    5.6101    1.0000 </r>
       <r>    6.1411    1.0000 </r>
       <r>    6.4105    1.0000 </r>
       <r>    6.9655    1.0000 </r>
       <r>    9.0184   -0.0000 </r>
       <r>    9.1170   -0.0000 </r>
       <r>    9.1592   -0.0000 </r>
       <r>    9.2292   -0.0000 </r>
       <r>   16.4169    0.0000 </r>
       <r>   16.6378    0.0000 </r>
       <r>   21.0844    0.0000 </r>
       <r>   26.1269    0.0000 </r>
       <r>   28.8281    0.0000 </r>
       <r>   29.1349    0.0000 </r>
       <r>   33.3444    0.0000 </r>
       <r>   36.3847    0.0000 </r>
       <r>   39.8025    0.0000 </r>
       <r>   39.9742    0.0000 </r>
       <r>   41.1715    0.0000 </r>
       <r>   41.2315    0.0000 </r>
       <r>   44.9854    0.0000 </r>
       <r>   51.9536    0.0000 </r>
       <r>   54.2483    0.0000 </r>
       <r>   55.5896    0.0000 </r>
       <r>   58.7534    0.0000 </r>
       <r>   58.8617    0.0000 </r>
       <r>   58.9470    0.0000 </r>
       <r>   59.8815    0.0000 </r>
       <r>   62.6783    0.0000 </r>
       <r>   62.7165    0.0000 </r>
       <r>   63.2264    0.0000 </r>
       <r>   64.7995    0.0000 </r>
       <r>   66.1862    0.0000 </r>
       <r>   68.6068    0.0000 </r>
       <r>   68.8049    0.0000 </r>
       <r>   69.4571    0.0000 </r>
       <r>   70.4389    0.0000 </r>
      </set>
      <set comment="kpoint 6">
       <r>    2.8883    1.0000 </r>
       <r>    3.1604    1.0000 </r>
       <r>    3.2584    1.0000 </r>
       <r>    5.8236    1.0000 </r>
       <r>    6.3062    1.0000 </r>
       <r>    6.7042    1.0000 </r>
       <r>    6.8042    1.0000 </r>
       <r>    9.1419   -0.0000 </r>
       <r>    9.7054   -0.0000 </r>
       <r>    9.8071   -0.0000 </r>
       <r>   10.9824   -0.0000 </r>
       <r>   14.7436    0.0000 </r>
       <r>   18.8514    0.0000 </r>
       <r>   20.7982    0.0000 </r>
       <r>   23.3563    0.0000 </r>
       <r>   25.9455    0.0000 </r>
       <r>   27.9982    0.0000 </r>
       <r>   32.7356    0.0000 </r>
       <r>   36.0799    0.0000 </r>
       <r>   38.5357    0.0000 </r>
       <r>   39.7783    0.0000 </r>
       <r>   42.3020    0.0000 </r>
       <r>   43.7997    0.0000 </r>
       <r>   44.0333    0.0000 </r>
       <r>   48.5586    0.0000 </r>
       <r>   54.9100    0.0000 </r>
       <r>   55.9627    0.0000 </r>
       <r>   59.1964    0.0000 </r>
       <r>   60.8883    0.0000 </r>
       <r>   61.8092    0.0000 </r>
       <r>   63.0744    0.0000 </r>
       <r>   63.1040    0.0000 </r>
       <r>   63.2472    0.0000 </r>
       <r>   65.0325    0.0000 </r>
       <r>   66.4081    0.0000 </r>
       <r>   68.2912    0.0000 </r>
       <r>   68.6095    0.0000 </r>
       <r>   69.1052    0.0000 </r>
       <r>   71.6097    0.0000 </r>
       <r>   72.3756    0.0000 </r>
      </set>
      <set comment="kpoint 7">
       <r>   -0.2414    1.0000 </r>
       <r>    3.3342    1.0000 </r>
       <r>    5.3515    1.0000 </r>
       <r>    5.4179    1.0000 </r>
       <r>    6.1862    1.0000 </r>
       <r>    6.2537    1.0000 </r>
       <r>    7.0815    1.0000 </r>
       <r>    7.3478    1.0000 </r>
       <r>    7.3720    1.0000 </r>
       <r>    7.8323    1.0096 </r>
       <r>    9.1205   -0.0000 </r>
       <r>   11.5687   -0.0000 </r>
       <r>   16.1018    0.0000 </r>
       <r>   30.1820    0.0000 </r>
       <r>   31.7758    0.0000 </r>
       <r>   32.8551    0.0000 </r>
       <r>   35.2302    0.0000 </r>
       <r>   37.4909    0.0000 </r>
       <r>   37.5330    0.0000 </r>
       <r>   38.6301    0.0000 </r>
       <r>   39.1132    0.0000 </r>
       <r>   44.8523    0.0000 </r>
       <r>   45.5855    0.0000 </r>
       <r>   46.3695    0.0000 </r>
       <r>   46.7935    0.0000 </r>
       <r>   47.6130    0.0000 </r>
       <r>   47.9388    0.0000 </r>
       <r>   53.7330    0.0000 </r>
       <r>   55.7692    0.0000 </r>
       <r>   56.4399    0.0000 </r>
       <r>   56.4921    0.0000 </r>
       <r>   59.6469    0.0000 </r>
       <r>   60.1708    0.0000 </r>
       <r>   61.3207    0.0000 </r>
       <r>   62.6242    0.0000 </r>
       <r>   62.7214    0.0000 </r>
       <r>   64.2882    0.0000 </r>
       <r>   67.7126    0.0000 </r>
       <r>   69.0760    0.0000 </r>
       <r>   69.1257    0.0000 </r>
      </set>
      <set comment="kpoint 8">
       <r>    1.0245    1.0000 </r>
       <r>    3.9564    1.0000 </r>
       <r>    4.4820    1.0000 </r>
       <r>    5.1585    1.0000 </r>
       <r>    5.8433    1.0000 </r>
       <r>    6.7028    1.0000 </r>
       <r>    6.7750    1.0000 </r>
       <r>    7.5166    1.0000 </r>
       <r>    7.9351    1.0308 </r>
       <r>    8.2568    0.3492 </r>
       <r>    9.0857   -0.0000 </r>
       <r>   13.5339   -0.0000 </r>
       <r>   16.3246    0.0000 </r>
       <r>   26.4201    0.0000 </r>
       <r>   29.2607    0.0000 </r>
       <r>   31.5399    0.0000 </r>
       <r>   33.4664    0.0000 </r>
       <r>   34.8727    0.0000 </r>
       <r>   37.1303    0.0000 </r>
       <r>   37.9196    0.0000 </r>
       <r>   39.1794    0.0000 </r>
       <r>   43.9901    0.0000 </r>
       <r>   44.1645    0.0000 </r>
       <r>   46.1432    0.0000 </r>
       <r>   49.1014    0.0000 </r>
       <r>   49.7628    0.0000 </r>
       <r>   52.1656    0.0000 </r>
       <r>   55.8935    0.0000 </r>
       <r>   57.0695    0.0000 </r>
       <r>   58.2359    0.0000 </r>
       <r>   58.7845    0.0000 </r>
       <r>   60.6401    0.0000 </r>
       <r>   60.9084    0.0000 </r>
       <r>   61.4811    0.0000 </r>
       <r>   63.1032    0.0000 </r>
       <r>   63.1816    0.0000 </r>
       <r>   65.2450    0.0000 </r>
       <r>   68.0655    0.0000 </r>
       <r>   69.6645    0.0000 </r>
       <r>   69.7982    0.0000 </r>
      </set>
      <set comment="kpoint 9">
       <r>    2.4203    1.0000 </r>
       <r>    3.7894    1.0000 </r>
       <r>    3.8276    1.0000 </r>
       <r>    5.3000    1.0000 </r>
       <r>    5.9932    1.0000 </r>
       <r>    6.2690    1.0000 </r>
       <r>    7.0868    1.0000 </r>
       <r>    7.6780    1.0004 </r>
       <r>    8.8607   -0.0000 </r>
       <r>    9.0444   -0.0000 </r>
       <r>    9.4040   -0.0000 </r>
       <r>   15.7807    0.0000 </r>
       <r>   16.7385    0.0000 </r>
       <r>   22.5062    0.0000 </r>
       <r>   27.4390    0.0000 </r>
       <r>   27.9638    0.0000 </r>
       <r>   31.3977    0.0000 </r>
       <r>   32.5812    0.0000 </r>
       <r>   37.3022    0.0000 </r>
       <r>   38.5768    0.0000 </r>
       <r>   38.7470    0.0000 </r>
       <r>   42.9190    0.0000 </r>
       <r>   43.4318    0.0000 </r>
       <r>   46.7712    0.0000 </r>
       <r>   51.1232    0.0000 </r>
       <r>   53.3615    0.0000 </r>
       <r>   54.5004    0.0000 </r>
       <r>   54.5387    0.0000 </r>
       <r>   57.4430    0.0000 </r>
       <r>   59.2700    0.0000 </r>
       <r>   59.3618    0.0000 </r>
       <r>   62.3667    0.0000 </r>
       <r>   63.2808    0.0000 </r>
       <r>   63.7342    0.0000 </r>
       <r>   64.0021    0.0000 </r>
       <r>   65.6700    0.0000 </r>
       <r>   67.9281    0.0000 </r>
       <r>   69.2557    0.0000 </r>
       <r>   69.3608    0.0000 </r>
       <r>   70.0509    0.0000 </r>
      </set>
      <set comment="kpoint 10">
       <r>    3.1023    1.0000 </r>
       <r>    3.4387    1.0000 </r>
       <r>    3.4395    1.0000 </r>
       <r>    5.8298    1.0000 </r>
       <r>    5.9206    1.0000 </r>
       <r>    6.5054    1.0000 </r>
       <r>    6.7420    1.0000 </r>
       <r>    8.8363   -0.0001 </r>
       <r>    9.0043   -0.0000 </r>
       <r>    9.4831   -0.0000 </r>
       <r>   10.8114   -0.0000 </r>
       <r>   16.1933    0.0000 </r>
       <r>   18.1438    0.0000 </r>
       <r>   20.6688    0.0000 </r>
       <r>   24.7937    0.0000 </r>
       <r>   25.9307    0.0000 </r>
       <r>   28.0169    0.0000 </r>
       <r>   31.6663    0.0000 </r>
       <r>   36.4372    0.0000 </r>
       <r>   38.2873    0.0000 </r>
       <r>   40.4569    0.0000 </r>
       <r>   43.0112    0.0000 </r>
       <r>   43.8075    0.0000 </r>
       <r>   45.8051    0.0000 </r>
       <r>   50.6187    0.0000 </r>
       <r>   53.6629    0.0000 </r>
       <r>   54.9671    0.0000 </r>
       <r>   56.7666    0.0000 </r>
       <r>   59.0965    0.0000 </r>
       <r>   60.4398    0.0000 </r>
       <r>   61.7814    0.0000 </r>
       <r>   62.9570    0.0000 </r>
       <r>   63.4283    0.0000 </r>
       <r>   66.0140    0.0000 </r>
       <r>   66.8818    0.0000 </r>
       <r>   67.3784    0.0000 </r>
       <r>   67.9479    0.0000 </r>
       <r>   69.9443    0.0000 </r>
       <r>   70.3421    0.0000 </r>
       <r>   71.9499    0.0000 </r>
      </set>
      <set comment="kpoint 11">
       <r>    3.1061    1.0000 </r>
       <r>    3.3118    1.0000 </r>
       <r>    3.3804    1.0000 </r>
       <r>    5.7961    1.0000 </r>
       <r>    6.3824    1.0000 </r>
       <r>    6.5680    1.0000 </r>
       <r>    6.6108    1.0000 </r>
       <r>    8.9871   -0.0000 </r>
       <r>    9.5112   -0.0000 </r>
       <r>    9.5479   -0.0000 </r>
       <r>   12.1510   -0.0000 </r>
       <r>   14.5510    0.0000 </r>
       <r>   19.7489    0.0000 </r>
       <r>   21.2567    0.0000 </r>
       <r>   22.9275    0.0000 </r>
       <r>   24.8480    0.0000 </r>
       <r>   26.6174    0.0000 </r>
       <r>   31.3197    0.0000 </r>
       <r>   36.0417    0.0000 </r>
       <r>   38.1450    0.0000 </r>
       <r>   40.9803    0.0000 </r>
       <r>   43.5704    0.0000 </r>
       <r>   44.7818    0.0000 </r>
       <r>   45.0558    0.0000 </r>
       <r>   48.5075    0.0000 </r>
       <r>   54.4868    0.0000 </r>
       <r>   55.4010    0.0000 </r>
       <r>   56.9842    0.0000 </r>
       <r>   61.0876    0.0000 </r>
       <r>   61.1072    0.0000 </r>
       <r>   63.3607    0.0000 </r>
       <r>   63.4631    0.0000 </r>
       <r>   63.7618    0.0000 </r>
       <r>   65.2522    0.0000 </r>
       <r>   66.5207    0.0000 </r>
       <r>   69.1764    0.0000 </r>
       <r>   69.6276    0.0000 </r>
       <r>   69.9405    0.0000 </r>
       <r>   70.0283    0.0000 </r>
       <r>   71.7996    0.0000 </r>
      </set>
      <set comment="kpoint 12">
       <r>    2.3809    1.0000 </r>
       <r>    3.9904    1.0000 </r>
       <r>    4.4875    1.0000 </r>
       <r>    4.6240    1.0000 </r>
       <r>    5.9384    1.0000 </r>
       <r>    6.2327    1.0000 </r>
       <r>    6.9775    1.0000 </r>
       <r>    7.2094    1.0000 </r>
       <r>    8.8282   -0.0001 </r>
       <r>    8.9082   -0.0000 </r>
       <r>    9.4945   -0.0000 </r>
       <r>   15.5179    0.0000 </r>
       <r>   16.8827    0.0000 </r>
       <r>   24.2895    0.0000 </r>
       <r>   25.2451    0.0000 </r>
       <r>   29.5322    0.0000 </r>
       <r>   31.2082    0.0000 </r>
       <r>   33.9184    0.0000 </r>
       <r>   34.4323    0.0000 </r>
       <r>   37.8526    0.0000 </r>
       <r>   40.6007    0.0000 </r>
       <r>   45.2011    0.0000 </r>
       <r>   46.1623    0.0000 </r>
       <r>   47.6242    0.0000 </r>
       <r>   48.7557    0.0000 </r>
       <r>   50.7751    0.0000 </r>
       <r>   51.5404    0.0000 </r>
       <r>   55.6411    0.0000 </r>
       <r>   58.0142    0.0000 </r>
       <r>   58.4303    0.0000 </r>
       <r>   58.6680    0.0000 </r>
       <r>   62.6876    0.0000 </r>
       <r>   62.7743    0.0000 </r>
       <r>   64.4858    0.0000 </r>
       <r>   65.1991    0.0000 </r>
       <r>   66.2494    0.0000 </r>
       <r>   66.5693    0.0000 </r>
       <r>   68.4443    0.0000 </r>
       <r>   69.1186    0.0000 </r>
       <r>   71.2434    0.0000 </r>
      </set>
      <set comment="kpoint 13">
       <r>    3.5898    1.0000 </r>
       <r>    3.6891    1.0000 </r>
       <r>    4.0675    1.0000 </r>
       <r>    4.9790    1.0000 </r>
       <r>    5.8903    1.0000 </r>
       <r>    6.2972    1.0000 </r>
       <r>    6.7092    1.0000 </r>
       <r>    7.6953    1.0006 </r>
       <r>    8.7568   -0.0005 </r>
       <r>    9.3771   -0.0000 </r>
       <r>   11.0206   -0.0000 </r>
       <r>   17.6471    0.0000 </r>
       <r>   17.8231    0.0000 </r>
       <r>   21.1701    0.0000 </r>
       <r>   23.4514    0.0000 </r>
       <r>   26.7966    0.0000 </r>
       <r>   29.4649    0.0000 </r>
       <r>   30.1704    0.0000 </r>
       <r>   33.1806    0.0000 </r>
       <r>   40.2581    0.0000 </r>
       <r>   41.0619    0.0000 </r>
       <r>   45.0184    0.0000 </r>
       <r>   46.9813    0.0000 </r>
       <r>   48.9167    0.0000 </r>
       <r>   49.5645    0.0000 </r>
       <r>   51.5252    0.0000 </r>
       <r>   52.8576    0.0000 </r>
       <r>   53.8133    0.0000 </r>
       <r>   57.1634    0.0000 </r>
       <r>   58.8343    0.0000 </r>
       <r>   61.3339    0.0000 </r>
       <r>   63.0072    0.0000 </r>
       <r>   63.7707    0.0000 </r>
       <r>   66.0927    0.0000 </r>
       <r>   67.1984    0.0000 </r>
       <r>   67.3804    0.0000 </r>
       <r>   69.1391    0.0000 </r>
       <r>   69.5126    0.0000 </r>
       <r>   71.5488    0.0000 </r>
       <r>   72.2713    0.0000 </r>
      </set>
      <set comment="kpoint 14">
       <r>    3.5631    1.0000 </r>
       <r>    3.7265    1.0000 </r>
       <r>    3.9596    1.0000 </r>
       <r>    5.6467    1.0000 </r>
       <r>    5.8039    1.0000 </r>
       <r>    6.2720    1.0000 </r>
       <r>    6.6255    1.0000 </r>
       <r>    8.5824   -0.0141 </r>
       <r>    8.6703   -0.0033 </r>
       <r>    9.3265   -0.0000 </r>
       <r>   12.8188   -0.0000 </r>
       <r>   16.1422    0.0000 </r>
       <r>   20.1793    0.0000 </r>
       <r>   21.2841    0.0000 </r>
       <r>   22.4460    0.0000 </r>
       <r>   24.0107    0.0000 </r>
       <r>   27.0280    0.0000 </r>
       <r>   28.7847    0.0000 </r>
       <r>   32.5159    0.0000 </r>
       <r>   41.1837    0.0000 </r>
       <r>   42.7429    0.0000 </r>
       <r>   45.0121    0.0000 </r>
       <r>   45.8686    0.0000 </r>
       <r>   47.3026    0.0000 </r>
       <r>   51.2498    0.0000 </r>
       <r>   51.9279    0.0000 </r>
       <r>   53.3378    0.0000 </r>
       <r>   55.1545    0.0000 </r>
       <r>   59.0190    0.0000 </r>
       <r>   59.9596    0.0000 </r>
       <r>   60.8746    0.0000 </r>
       <r>   63.0281    0.0000 </r>
       <r>   63.6138    0.0000 </r>
       <r>   64.3307    0.0000 </r>
       <r>   68.0765    0.0000 </r>
       <r>   69.2545    0.0000 </r>
       <r>   69.9755    0.0000 </r>
       <r>   71.0399    0.0000 </r>
       <r>   71.2442    0.0000 </r>
       <r>   71.6956    0.0000 </r>
      </set>
      <set comment="kpoint 15">
       <r>    3.7394    1.0000 </r>
       <r>    4.2885    1.0000 </r>
       <r>    4.6613    1.0000 </r>
       <r>    4.6958    1.0000 </r>
       <r>    5.7037    1.0000 </r>
       <r>    6.1864    1.0000 </r>
       <r>    6.6445    1.0000 </r>
       <r>    8.0059    1.0311 </r>
       <r>    8.5033   -0.0312 </r>
       <r>    9.2714   -0.0000 </r>
       <r>   12.9982   -0.0000 </r>
       <r>   18.3576    0.0000 </r>
       <r>   19.0911    0.0000 </r>
       <r>   20.2341    0.0000 </r>
       <r>   22.0588    0.0000 </r>
       <r>   26.0506    0.0000 </r>
       <r>   26.3245    0.0000 </r>
       <r>   28.8997    0.0000 </r>
       <r>   29.7358    0.0000 </r>
       <r>   42.0387    0.0000 </r>
       <r>   42.9853    0.0000 </r>
       <r>   47.9998    0.0000 </r>
       <r>   48.4226    0.0000 </r>
       <r>   48.7999    0.0000 </r>
       <r>   49.5332    0.0000 </r>
       <r>   49.8419    0.0000 </r>
       <r>   52.8795    0.0000 </r>
       <r>   55.2860    0.0000 </r>
       <r>   55.4855    0.0000 </r>
       <r>   60.0399    0.0000 </r>
       <r>   60.0497    0.0000 </r>
       <r>   62.8148    0.0000 </r>
       <r>   63.7234    0.0000 </r>
       <r>   64.2451    0.0000 </r>
       <r>   68.3004    0.0000 </r>
       <r>   69.4502    0.0000 </r>
       <r>   69.5890    0.0000 </r>
       <r>   70.0272    0.0000 </r>
       <r>   70.9265    0.0000 </r>
       <r>   73.6327    0.0000 </r>
      </set>
      <set comment="kpoint 16">
       <r>    3.8071    1.0000 </r>
       <r>    4.3944    1.0000 </r>
       <r>    4.5423    1.0000 </r>
       <r>    5.1130    1.0000 </r>
       <r>    5.7826    1.0000 </r>
       <r>    5.7985    1.0000 </r>
       <r>    6.8052    1.0000 </r>
       <r>    8.4055   -0.0155 </r>
       <r>    8.4713   -0.0353 </r>
       <r>    8.8536   -0.0000 </r>
       <r>   14.8922    0.0000 </r>
       <r>   16.4096    0.0000 </r>
       <r>   18.7010    0.0000 </r>
       <r>   22.3431    0.0000 </r>
       <r>   23.0302    0.0000 </r>
       <r>   23.8524    0.0000 </r>
       <r>   25.9313    0.0000 </r>
       <r>   27.0596    0.0000 </r>
       <r>   29.1287    0.0000 </r>
       <r>   42.3545    0.0000 </r>
       <r>   45.7840    0.0000 </r>
       <r>   46.3384    0.0000 </r>
       <r>   48.0423    0.0000 </r>
       <r>   48.1083    0.0000 </r>
       <r>   49.6396    0.0000 </r>
       <r>   51.3571    0.0000 </r>
       <r>   54.7209    0.0000 </r>
       <r>   55.6567    0.0000 </r>
       <r>   55.8415    0.0000 </r>
       <r>   59.1601    0.0000 </r>
       <r>   60.0240    0.0000 </r>
       <r>   60.7587    0.0000 </r>
       <r>   63.4568    0.0000 </r>
       <r>   63.4881    0.0000 </r>
       <r>   67.8471    0.0000 </r>
       <r>   69.5899    0.0000 </r>
       <r>   70.2132    0.0000 </r>
       <r>   70.4098    0.0000 </r>
       <r>   71.9035    0.0000 </r>
       <r>   72.8617    0.0000 </r>
      </set>
      <set comment="kpoint 17">
       <r>   -1.2358    1.0000 </r>
       <r>    2.4982    1.0000 </r>
       <r>    5.3425    1.0000 </r>
       <r>    6.3664    1.0000 </r>
       <r>    6.3664    1.0000 </r>
       <r>    6.6678    1.0000 </r>
       <r>    6.6678    1.0000 </r>
       <r>    6.7675    1.0000 </r>
       <r>    8.0724    0.9731 </r>
       <r>    8.0725    0.9731 </r>
       <r>    9.0917   -0.0000 </r>
       <r>    9.0917   -0.0000 </r>
       <r>   16.3714    0.0000 </r>
       <r>   30.9864    0.0000 </r>
       <r>   33.2839    0.0000 </r>
       <r>   35.9909    0.0000 </r>
       <r>   39.8931    0.0000 </r>
       <r>   40.0006    0.0000 </r>
       <r>   40.0006    0.0000 </r>
       <r>   40.6233    0.0000 </r>
       <r>   40.6234    0.0000 </r>
       <r>   42.6842    0.0000 </r>
       <r>   42.6843    0.0000 </r>
       <r>   43.9499    0.0000 </r>
       <r>   46.4214    0.0000 </r>
       <r>   46.4214    0.0000 </r>
       <r>   47.5330    0.0000 </r>
       <r>   51.8216    0.0000 </r>
       <r>   51.8217    0.0000 </r>
       <r>   53.5505    0.0000 </r>
       <r>   53.5505    0.0000 </r>
       <r>   55.2257    0.0000 </r>
       <r>   61.7230    0.0000 </r>
       <r>   63.9602    0.0000 </r>
       <r>   64.0428    0.0000 </r>
       <r>   64.0431    0.0000 </r>
       <r>   65.9065    0.0000 </r>
       <r>   66.0795    0.0000 </r>
       <r>   66.0796    0.0000 </r>
       <r>   66.2265    0.0000 </r>
      </set>
      <set comment="kpoint 18">
       <r>   -0.8679    1.0000 </r>
       <r>    2.7955    1.0000 </r>
       <r>    5.4295    1.0000 </r>
       <r>    6.0290    1.0000 </r>
       <r>    6.2178    1.0000 </r>
       <r>    6.5505    1.0000 </r>
       <r>    6.5966    1.0000 </r>
       <r>    6.8828    1.0000 </r>
       <r>    7.8644    1.0152 </r>
       <r>    7.9484    1.0331 </r>
       <r>    9.1178   -0.0000 </r>
       <r>   10.0466   -0.0000 </r>
       <r>   16.4304    0.0000 </r>
       <r>   31.3441    0.0000 </r>
       <r>   32.2993    0.0000 </r>
       <r>   34.8154    0.0000 </r>
       <r>   36.9305    0.0000 </r>
       <r>   37.8040    0.0000 </r>
       <r>   39.1540    0.0000 </r>
       <r>   39.6749    0.0000 </r>
       <r>   41.8487    0.0000 </r>
       <r>   43.0391    0.0000 </r>
       <r>   43.8878    0.0000 </r>
       <r>   44.5407    0.0000 </r>
       <r>   47.6820    0.0000 </r>
       <r>   48.0097    0.0000 </r>
       <r>   49.2802    0.0000 </r>
       <r>   49.4472    0.0000 </r>
       <r>   51.9739    0.0000 </r>
       <r>   54.7967    0.0000 </r>
       <r>   55.9175    0.0000 </r>
       <r>   57.2274    0.0000 </r>
       <r>   60.2160    0.0000 </r>
       <r>   62.8245    0.0000 </r>
       <r>   63.6023    0.0000 </r>
       <r>   63.7198    0.0000 </r>
       <r>   64.8078    0.0000 </r>
       <r>   66.1058    0.0000 </r>
       <r>   66.8751    0.0000 </r>
       <r>   68.1617    0.0000 </r>
      </set>
      <set comment="kpoint 19">
       <r>    0.1585    1.0000 </r>
       <r>    3.4835    1.0000 </r>
       <r>    4.9771    1.0000 </r>
       <r>    5.4260    1.0000 </r>
       <r>    5.9070    1.0000 </r>
       <r>    6.5391    1.0000 </r>
       <r>    7.2262    1.0000 </r>
       <r>    7.4164    1.0000 </r>
       <r>    7.4732    1.0000 </r>
       <r>    7.6871    1.0005 </r>
       <r>    9.1501   -0.0000 </r>
       <r>   11.7578   -0.0000 </r>
       <r>   16.6632    0.0000 </r>
       <r>   28.5096    0.0000 </r>
       <r>   32.2932    0.0000 </r>
       <r>   33.3002    0.0000 </r>
       <r>   33.8796    0.0000 </r>
       <r>   34.1318    0.0000 </r>
       <r>   38.3040    0.0000 </r>
       <r>   40.0822    0.0000 </r>
       <r>   40.6571    0.0000 </r>
       <r>   40.7321    0.0000 </r>
       <r>   44.9773    0.0000 </r>
       <r>   45.7897    0.0000 </r>
       <r>   49.0344    0.0000 </r>
       <r>   49.5135    0.0000 </r>
       <r>   50.6389    0.0000 </r>
       <r>   53.1662    0.0000 </r>
       <r>   54.8121    0.0000 </r>
       <r>   57.5004    0.0000 </r>
       <r>   58.6131    0.0000 </r>
       <r>   59.0800    0.0000 </r>
       <r>   59.9765    0.0000 </r>
       <r>   61.0424    0.0000 </r>
       <r>   61.9319    0.0000 </r>
       <r>   63.0143    0.0000 </r>
       <r>   65.3549    0.0000 </r>
       <r>   66.8597    0.0000 </r>
       <r>   67.8605    0.0000 </r>
       <r>   69.9669    0.0000 </r>
      </set>
      <set comment="kpoint 20">
       <r>    1.5507    1.0000 </r>
       <r>    3.7241    1.0000 </r>
       <r>    4.1447    1.0000 </r>
       <r>    5.4272    1.0000 </r>
       <r>    5.7483    1.0000 </r>
       <r>    6.7144    1.0000 </r>
       <r>    7.2773    1.0000 </r>
       <r>    7.5506    1.0000 </r>
       <r>    8.1876    0.6370 </r>
       <r>    8.3534    0.0531 </r>
       <r>    9.1544   -0.0000 </r>
       <r>   13.5854   -0.0000 </r>
       <r>   17.2163    0.0000 </r>
       <r>   24.3316    0.0000 </r>
       <r>   29.2965    0.0000 </r>
       <r>   31.2628    0.0000 </r>
       <r>   31.9447    0.0000 </r>
       <r>   33.7404    0.0000 </r>
       <r>   36.8876    0.0000 </r>
       <r>   39.0669    0.0000 </r>
       <r>   39.6121    0.0000 </r>
       <r>   41.3545    0.0000 </r>
       <r>   42.8899    0.0000 </r>
       <r>   45.6637    0.0000 </r>
       <r>   52.5926    0.0000 </r>
       <r>   52.7414    0.0000 </r>
       <r>   53.9011    0.0000 </r>
       <r>   54.1993    0.0000 </r>
       <r>   57.2085    0.0000 </r>
       <r>   58.2233    0.0000 </r>
       <r>   59.2394    0.0000 </r>
       <r>   60.6726    0.0000 </r>
       <r>   61.2651    0.0000 </r>
       <r>   61.2690    0.0000 </r>
       <r>   63.2419    0.0000 </r>
       <r>   65.1014    0.0000 </r>
       <r>   66.5159    0.0000 </r>
       <r>   67.8297    0.0000 </r>
       <r>   68.5732    0.0000 </r>
       <r>   70.1627    0.0000 </r>
      </set>
      <set comment="kpoint 21">
       <r>    2.6010    1.0000 </r>
       <r>    3.3200    1.0000 </r>
       <r>    3.6807    1.0000 </r>
       <r>    5.3333    1.0000 </r>
       <r>    6.3092    1.0000 </r>
       <r>    6.6029    1.0000 </r>
       <r>    7.0025    1.0000 </r>
       <r>    8.9765   -0.0000 </r>
       <r>    9.0528   -0.0000 </r>
       <r>    9.1304   -0.0000 </r>
       <r>    9.2763   -0.0000 </r>
       <r>   15.0888    0.0000 </r>
       <r>   18.0070    0.0000 </r>
       <r>   21.1637    0.0000 </r>
       <r>   25.8366    0.0000 </r>
       <r>   29.1265    0.0000 </r>
       <r>   29.2578    0.0000 </r>
       <r>   33.3252    0.0000 </r>
       <r>   36.2600    0.0000 </r>
       <r>   38.4037    0.0000 </r>
       <r>   39.5345    0.0000 </r>
       <r>   41.4328    0.0000 </r>
       <r>   42.7359    0.0000 </r>
       <r>   45.4331    0.0000 </r>
       <r>   50.9847    0.0000 </r>
       <r>   55.2372    0.0000 </r>
       <r>   55.3049    0.0000 </r>
       <r>   57.8339    0.0000 </r>
       <r>   57.9829    0.0000 </r>
       <r>   60.0891    0.0000 </r>
       <r>   60.4162    0.0000 </r>
       <r>   62.6121    0.0000 </r>
       <r>   62.7436    0.0000 </r>
       <r>   63.4855    0.0000 </r>
       <r>   64.8050    0.0000 </r>
       <r>   66.1304    0.0000 </r>
       <r>   67.5512    0.0000 </r>
       <r>   68.8609    0.0000 </r>
       <r>   70.0487    0.0000 </r>
       <r>   70.6330    0.0000 </r>
      </set>
      <set comment="kpoint 22">
       <r>    2.8441    1.0000 </r>
       <r>    2.9781    1.0000 </r>
       <r>    3.5348    1.0000 </r>
       <r>    5.3939    1.0000 </r>
       <r>    6.5032    1.0000 </r>
       <r>    6.8447    1.0000 </r>
       <r>    7.0486    1.0000 </r>
       <r>    9.0823   -0.0000 </r>
       <r>    9.7099   -0.0000 </r>
       <r>    9.8072   -0.0000 </r>
       <r>   10.8778   -0.0000 </r>
       <r>   14.5133    0.0000 </r>
       <r>   18.8520    0.0000 </r>
       <r>   20.7935    0.0000 </r>
       <r>   23.4820    0.0000 </r>
       <r>   26.2444    0.0000 </r>
       <r>   28.1289    0.0000 </r>
       <r>   32.7567    0.0000 </r>
       <r>   36.0162    0.0000 </r>
       <r>   37.5128    0.0000 </r>
       <r>   40.8562    0.0000 </r>
       <r>   41.1063    0.0000 </r>
       <r>   43.0023    0.0000 </r>
       <r>   45.8686    0.0000 </r>
       <r>   48.5350    0.0000 </r>
       <r>   55.4205    0.0000 </r>
       <r>   55.4773    0.0000 </r>
       <r>   58.3960    0.0000 </r>
       <r>   60.8432    0.0000 </r>
       <r>   62.0007    0.0000 </r>
       <r>   63.0181    0.0000 </r>
       <r>   63.2289    0.0000 </r>
       <r>   63.7177    0.0000 </r>
       <r>   64.8843    0.0000 </r>
       <r>   66.7719    0.0000 </r>
       <r>   68.1619    0.0000 </r>
       <r>   68.6683    0.0000 </r>
       <r>   69.7161    0.0000 </r>
       <r>   71.4313    0.0000 </r>
       <r>   71.7267    0.0000 </r>
      </set>
      <set comment="kpoint 23">
       <r>   -0.1664    1.0000 </r>
       <r>    3.3166    1.0000 </r>
       <r>    5.2565    1.0000 </r>
       <r>    5.4259    1.0000 </r>
       <r>    6.1150    1.0000 </r>
       <r>    6.2711    1.0000 </r>
       <r>    7.0631    1.0000 </r>
       <r>    7.3112    1.0000 </r>
       <r>    7.4792    1.0000 </r>
       <r>    7.8717    1.0167 </r>
       <r>    9.1026   -0.0000 </r>
       <r>   11.2897   -0.0000 </r>
       <r>   16.5813    0.0000 </r>
       <r>   30.2078    0.0000 </r>
       <r>   31.8219    0.0000 </r>
       <r>   32.2380    0.0000 </r>
       <r>   34.8999    0.0000 </r>
       <r>   37.6685    0.0000 </r>
       <r>   37.9195    0.0000 </r>
       <r>   37.9787    0.0000 </r>
       <r>   39.9380    0.0000 </r>
       <r>   44.8870    0.0000 </r>
       <r>   45.5219    0.0000 </r>
       <r>   46.1996    0.0000 </r>
       <r>   46.7072    0.0000 </r>
       <r>   48.1085    0.0000 </r>
       <r>   48.3658    0.0000 </r>
       <r>   53.5822    0.0000 </r>
       <r>   55.3918    0.0000 </r>
       <r>   56.5522    0.0000 </r>
       <r>   56.9142    0.0000 </r>
       <r>   58.9052    0.0000 </r>
       <r>   59.2936    0.0000 </r>
       <r>   62.2634    0.0000 </r>
       <r>   62.5266    0.0000 </r>
       <r>   62.9845    0.0000 </r>
       <r>   64.4070    0.0000 </r>
       <r>   66.4213    0.0000 </r>
       <r>   68.1829    0.0000 </r>
       <r>   69.5517    0.0000 </r>
      </set>
      <set comment="kpoint 24">
       <r>    1.0831    1.0000 </r>
       <r>    3.9532    1.0000 </r>
       <r>    4.4327    1.0000 </r>
       <r>    5.1816    1.0000 </r>
       <r>    5.8143    1.0000 </r>
       <r>    6.4885    1.0000 </r>
       <r>    7.0364    1.0000 </r>
       <r>    7.4821    1.0000 </r>
       <r>    7.9921    1.0343 </r>
       <r>    8.2372    0.4295 </r>
       <r>    9.0698   -0.0000 </r>
       <r>   12.9888   -0.0000 </r>
       <r>   17.0168    0.0000 </r>
       <r>   26.4811    0.0000 </r>
       <r>   29.3136    0.0000 </r>
       <r>   31.2841    0.0000 </r>
       <r>   32.9426    0.0000 </r>
       <r>   35.1658    0.0000 </r>
       <r>   36.2965    0.0000 </r>
       <r>   38.4671    0.0000 </r>
       <r>   39.6557    0.0000 </r>
       <r>   43.7767    0.0000 </r>
       <r>   44.4940    0.0000 </r>
       <r>   46.6202    0.0000 </r>
       <r>   48.8913    0.0000 </r>
       <r>   49.7687    0.0000 </r>
       <r>   52.3087    0.0000 </r>
       <r>   54.9587    0.0000 </r>
       <r>   57.3079    0.0000 </r>
       <r>   57.9852    0.0000 </r>
       <r>   59.4438    0.0000 </r>
       <r>   60.4975    0.0000 </r>
       <r>   60.6515    0.0000 </r>
       <r>   61.6064    0.0000 </r>
       <r>   62.9165    0.0000 </r>
       <r>   63.5266    0.0000 </r>
       <r>   65.4140    0.0000 </r>
       <r>   67.1763    0.0000 </r>
       <r>   68.9831    0.0000 </r>
       <r>   69.7837    0.0000 </r>
      </set>
      <set comment="kpoint 25">
       <r>    2.4318    1.0000 </r>
       <r>    3.7303    1.0000 </r>
       <r>    3.9004    1.0000 </r>
       <r>    5.2412    1.0000 </r>
       <r>    5.9619    1.0000 </r>
       <r>    6.3960    1.0000 </r>
       <r>    7.0998    1.0000 </r>
       <r>    7.6944    1.0006 </r>
       <r>    8.8716   -0.0000 </r>
       <r>    8.9714   -0.0000 </r>
       <r>    9.4340   -0.0000 </r>
       <r>   14.7338    0.0000 </r>
       <r>   17.8838    0.0000 </r>
       <r>   22.5713    0.0000 </r>
       <r>   27.3626    0.0000 </r>
       <r>   27.8523    0.0000 </r>
       <r>   31.5477    0.0000 </r>
       <r>   32.5021    0.0000 </r>
       <r>   36.9686    0.0000 </r>
       <r>   37.8343    0.0000 </r>
       <r>   39.3019    0.0000 </r>
       <r>   43.0067    0.0000 </r>
       <r>   43.9432    0.0000 </r>
       <r>   47.2201    0.0000 </r>
       <r>   50.6775    0.0000 </r>
       <r>   52.0862    0.0000 </r>
       <r>   54.4060    0.0000 </r>
       <r>   55.9593    0.0000 </r>
       <r>   57.4846    0.0000 </r>
       <r>   58.7024    0.0000 </r>
       <r>   59.8919    0.0000 </r>
       <r>   62.2771    0.0000 </r>
       <r>   62.9174    0.0000 </r>
       <r>   63.7555    0.0000 </r>
       <r>   64.5174    0.0000 </r>
       <r>   65.6521    0.0000 </r>
       <r>   67.2214    0.0000 </r>
       <r>   69.0301    0.0000 </r>
       <r>   69.2719    0.0000 </r>
       <r>   70.1243    0.0000 </r>
      </set>
      <set comment="kpoint 26">
       <r>    3.0160    1.0000 </r>
       <r>    3.3115    1.0000 </r>
       <r>    3.7023    1.0000 </r>
       <r>    5.3417    1.0000 </r>
       <r>    6.3755    1.0000 </r>
       <r>    6.5298    1.0000 </r>
       <r>    6.8490    1.0000 </r>
       <r>    8.8205   -0.0001 </r>
       <r>    8.9378   -0.0000 </r>
       <r>    9.4961   -0.0000 </r>
       <r>   10.7918   -0.0000 </r>
       <r>   15.6078    0.0000 </r>
       <r>   18.5793    0.0000 </r>
       <r>   20.8630    0.0000 </r>
       <r>   24.5340    0.0000 </r>
       <r>   26.1461    0.0000 </r>
       <r>   28.3055    0.0000 </r>
       <r>   31.5132    0.0000 </r>
       <r>   36.5890    0.0000 </r>
       <r>   38.0216    0.0000 </r>
       <r>   39.7772    0.0000 </r>
       <r>   42.3908    0.0000 </r>
       <r>   44.9376    0.0000 </r>
       <r>   46.1764    0.0000 </r>
       <r>   50.2990    0.0000 </r>
       <r>   53.1531    0.0000 </r>
       <r>   55.1571    0.0000 </r>
       <r>   57.4377    0.0000 </r>
       <r>   59.2942    0.0000 </r>
       <r>   60.2810    0.0000 </r>
       <r>   61.6937    0.0000 </r>
       <r>   62.9131    0.0000 </r>
       <r>   63.3826    0.0000 </r>
       <r>   65.5540    0.0000 </r>
       <r>   67.0919    0.0000 </r>
       <r>   67.3684    0.0000 </r>
       <r>   68.3573    0.0000 </r>
       <r>   69.5108    0.0000 </r>
       <r>   70.2212    0.0000 </r>
       <r>   72.1683    0.0000 </r>
      </set>
      <set comment="kpoint 27">
       <r>    3.0566    1.0000 </r>
       <r>    3.1201    1.0000 </r>
       <r>    3.6815    1.0000 </r>
       <r>    5.3895    1.0000 </r>
       <r>    6.4349    1.0000 </r>
       <r>    6.8085    1.0000 </r>
       <r>    6.8293    1.0000 </r>
       <r>    8.9213   -0.0000 </r>
       <r>    9.5053   -0.0000 </r>
       <r>    9.5443   -0.0000 </r>
       <r>   12.0767   -0.0000 </r>
       <r>   14.4504    0.0000 </r>
       <r>   19.6532    0.0000 </r>
       <r>   20.8364    0.0000 </r>
       <r>   23.4982    0.0000 </r>
       <r>   25.0543    0.0000 </r>
       <r>   26.7919    0.0000 </r>
       <r>   31.1742    0.0000 </r>
       <r>   36.1753    0.0000 </r>
       <r>   38.0361    0.0000 </r>
       <r>   40.6014    0.0000 </r>
       <r>   41.9727    0.0000 </r>
       <r>   44.9981    0.0000 </r>
       <r>   46.9030    0.0000 </r>
       <r>   48.4057    0.0000 </r>
       <r>   53.4597    0.0000 </r>
       <r>   55.8509    0.0000 </r>
       <r>   57.7262    0.0000 </r>
       <r>   61.0309    0.0000 </r>
       <r>   61.1344    0.0000 </r>
       <r>   63.2417    0.0000 </r>
       <r>   63.2807    0.0000 </r>
       <r>   63.8493    0.0000 </r>
       <r>   65.3925    0.0000 </r>
       <r>   65.7591    0.0000 </r>
       <r>   69.4132    0.0000 </r>
       <r>   69.7712    0.0000 </r>
       <r>   70.2542    0.0000 </r>
       <r>   70.4332    0.0000 </r>
       <r>   71.5979    0.0000 </r>
      </set>
      <set comment="kpoint 28">
       <r>    2.4102    1.0000 </r>
       <r>    3.9465    1.0000 </r>
       <r>    4.5229    1.0000 </r>
       <r>    4.6432    1.0000 </r>
       <r>    5.9308    1.0000 </r>
       <r>    6.1636    1.0000 </r>
       <r>    7.0966    1.0000 </r>
       <r>    7.1875    1.0000 </r>
       <r>    8.8268   -0.0001 </r>
       <r>    8.8658   -0.0000 </r>
       <r>    9.5257   -0.0000 </r>
       <r>   14.6142    0.0000 </r>
       <r>   17.8971    0.0000 </r>
       <r>   24.3553    0.0000 </r>
       <r>   25.3203    0.0000 </r>
       <r>   29.2797    0.0000 </r>
       <r>   30.8456    0.0000 </r>
       <r>   34.2660    0.0000 </r>
       <r>   34.4622    0.0000 </r>
       <r>   37.1634    0.0000 </r>
       <r>   41.2679    0.0000 </r>
       <r>   45.6665    0.0000 </r>
       <r>   46.0835    0.0000 </r>
       <r>   47.3630    0.0000 </r>
       <r>   48.0420    0.0000 </r>
       <r>   51.3536    0.0000 </r>
       <r>   51.4697    0.0000 </r>
       <r>   55.8880    0.0000 </r>
       <r>   56.7103    0.0000 </r>
       <r>   58.6821    0.0000 </r>
       <r>   59.8287    0.0000 </r>
       <r>   62.6319    0.0000 </r>
       <r>   62.7374    0.0000 </r>
       <r>   64.2845    0.0000 </r>
       <r>   64.6444    0.0000 </r>
       <r>   66.5518    0.0000 </r>
       <r>   66.8956    0.0000 </r>
       <r>   67.9915    0.0000 </r>
       <r>   69.2906    0.0000 </r>
       <r>   69.5050    0.0000 </r>
      </set>
      <set comment="kpoint 29">
       <r>    3.4836    1.0000 </r>
       <r>    3.7730    1.0000 </r>
       <r>    4.0958    1.0000 </r>
       <r>    4.9533    1.0000 </r>
       <r>    5.9367    1.0000 </r>
       <r>    6.2860    1.0000 </r>
       <r>    6.7404    1.0000 </r>
       <r>    7.7307    1.0015 </r>
       <r>    8.6853   -0.0025 </r>
       <r>    9.4067   -0.0000 </r>
       <r>   11.0356   -0.0000 </r>
       <r>   16.3437    0.0000 </r>
       <r>   19.1607    0.0000 </r>
       <r>   21.2806    0.0000 </r>
       <r>   23.5186    0.0000 </r>
       <r>   26.5141    0.0000 </r>
       <r>   29.1340    0.0000 </r>
       <r>   30.5601    0.0000 </r>
       <r>   33.5361    0.0000 </r>
       <r>   38.7831    0.0000 </r>
       <r>   42.0716    0.0000 </r>
       <r>   45.2481    0.0000 </r>
       <r>   46.4630    0.0000 </r>
       <r>   49.1421    0.0000 </r>
       <r>   49.4265    0.0000 </r>
       <r>   50.7098    0.0000 </r>
       <r>   54.0083    0.0000 </r>
       <r>   54.0415    0.0000 </r>
       <r>   56.9134    0.0000 </r>
       <r>   59.2968    0.0000 </r>
       <r>   61.3258    0.0000 </r>
       <r>   63.0101    0.0000 </r>
       <r>   63.7317    0.0000 </r>
       <r>   66.0368    0.0000 </r>
       <r>   67.1395    0.0000 </r>
       <r>   67.4412    0.0000 </r>
       <r>   68.4058    0.0000 </r>
       <r>   69.8414    0.0000 </r>
       <r>   70.7290    0.0000 </r>
       <r>   71.7089    0.0000 </r>
      </set>
      <set comment="kpoint 30">
       <r>    3.4538    1.0000 </r>
       <r>    3.7494    1.0000 </r>
       <r>    4.1173    1.0000 </r>
       <r>    5.2785    1.0000 </r>
       <r>    6.0903    1.0000 </r>
       <r>    6.2102    1.0000 </r>
       <r>    6.7778    1.0000 </r>
       <r>    8.5868   -0.0132 </r>
       <r>    8.5992   -0.0111 </r>
       <r>    9.3455   -0.0000 </r>
       <r>   12.8319   -0.0000 </r>
       <r>   16.0109    0.0000 </r>
       <r>   19.8248    0.0000 </r>
       <r>   21.6293    0.0000 </r>
       <r>   22.3546    0.0000 </r>
       <r>   24.2185    0.0000 </r>
       <r>   27.3814    0.0000 </r>
       <r>   28.4667    0.0000 </r>
       <r>   32.9388    0.0000 </r>
       <r>   40.2875    0.0000 </r>
       <r>   42.3970    0.0000 </r>
       <r>   44.2665    0.0000 </r>
       <r>   46.7939    0.0000 </r>
       <r>   48.0832    0.0000 </r>
       <r>   50.7328    0.0000 </r>
       <r>   51.1620    0.0000 </r>
       <r>   54.4269    0.0000 </r>
       <r>   55.7476    0.0000 </r>
       <r>   59.1603    0.0000 </r>
       <r>   59.7716    0.0000 </r>
       <r>   60.9862    0.0000 </r>
       <r>   63.0134    0.0000 </r>
       <r>   63.3989    0.0000 </r>
       <r>   64.5853    0.0000 </r>
       <r>   67.9122    0.0000 </r>
       <r>   68.7434    0.0000 </r>
       <r>   70.0636    0.0000 </r>
       <r>   70.2039    0.0000 </r>
       <r>   70.9144    0.0000 </r>
       <r>   72.0233    0.0000 </r>
      </set>
      <set comment="kpoint 31">
       <r>    3.7332    1.0000 </r>
       <r>    4.3077    1.0000 </r>
       <r>    4.6073    1.0000 </r>
       <r>    4.7142    1.0000 </r>
       <r>    5.7845    1.0000 </r>
       <r>    6.0944    1.0000 </r>
       <r>    6.6901    1.0000 </r>
       <r>    8.0544    0.9974 </r>
       <r>    8.4277   -0.0285 </r>
       <r>    9.3001   -0.0000 </r>
       <r>   13.0360   -0.0000 </r>
       <r>   17.8768    0.0000 </r>
       <r>   19.1628    0.0000 </r>
       <r>   20.4526    0.0000 </r>
       <r>   22.3537    0.0000 </r>
       <r>   25.8032    0.0000 </r>
       <r>   25.9742    0.0000 </r>
       <r>   29.3875    0.0000 </r>
       <r>   30.1682    0.0000 </r>
       <r>   40.4831    0.0000 </r>
       <r>   43.8770    0.0000 </r>
       <r>   47.0144    0.0000 </r>
       <r>   47.0686    0.0000 </r>
       <r>   49.8552    0.0000 </r>
       <r>   50.0143    0.0000 </r>
       <r>   50.6717    0.0000 </r>
       <r>   53.6055    0.0000 </r>
       <r>   55.1453    0.0000 </r>
       <r>   55.4655    0.0000 </r>
       <r>   60.1320    0.0000 </r>
       <r>   60.2680    0.0000 </r>
       <r>   62.7907    0.0000 </r>
       <r>   63.4560    0.0000 </r>
       <r>   64.5216    0.0000 </r>
       <r>   68.1602    0.0000 </r>
       <r>   69.3555    0.0000 </r>
       <r>   69.3573    0.0000 </r>
       <r>   70.3852    0.0000 </r>
       <r>   70.9379    0.0000 </r>
       <r>   72.8702    0.0000 </r>
      </set>
      <set comment="kpoint 32">
       <r>    3.8116    1.0000 </r>
       <r>    4.4138    1.0000 </r>
       <r>    4.5767    1.0000 </r>
       <r>    5.0289    1.0000 </r>
       <r>    5.7604    1.0000 </r>
       <r>    5.8213    1.0000 </r>
       <r>    6.8336    1.0000 </r>
       <r>    8.3280    0.1100 </r>
       <r>    8.5073   -0.0305 </r>
       <r>    8.8897   -0.0000 </r>
       <r>   14.9642    0.0000 </r>
       <r>   16.3934    0.0000 </r>
       <r>   18.6921    0.0000 </r>
       <r>   22.1891    0.0000 </r>
       <r>   22.2708    0.0000 </r>
       <r>   24.4881    0.0000 </r>
       <r>   25.8158    0.0000 </r>
       <r>   27.4284    0.0000 </r>
       <r>   29.6025    0.0000 </r>
       <r>   41.3502    0.0000 </r>
       <r>   44.4724    0.0000 </r>
       <r>   46.6717    0.0000 </r>
       <r>   47.1280    0.0000 </r>
       <r>   49.3912    0.0000 </r>
       <r>   50.4105    0.0000 </r>
       <r>   52.2396    0.0000 </r>
       <r>   54.4245    0.0000 </r>
       <r>   55.8997    0.0000 </r>
       <r>   56.0394    0.0000 </r>
       <r>   58.9107    0.0000 </r>
       <r>   59.9127    0.0000 </r>
       <r>   60.9799    0.0000 </r>
       <r>   63.4363    0.0000 </r>
       <r>   63.4568    0.0000 </r>
       <r>   67.7726    0.0000 </r>
       <r>   69.4239    0.0000 </r>
       <r>   70.1157    0.0000 </r>
       <r>   70.5149    0.0000 </r>
       <r>   72.0490    0.0000 </r>
       <r>   72.9431    0.0000 </r>
      </set>
      <set comment="kpoint 33">
       <r>   -0.9918    1.0000 </r>
       <r>    2.3903    1.0000 </r>
       <r>    5.2853    1.0000 </r>
       <r>    6.2689    1.0000 </r>
       <r>    6.3569    1.0000 </r>
       <r>    6.3570    1.0000 </r>
       <r>    6.6267    1.0000 </r>
       <r>    6.6267    1.0000 </r>
       <r>    8.1662    0.7204 </r>
       <r>    8.1662    0.7204 </r>
       <r>    9.0560   -0.0000 </r>
       <r>    9.0561   -0.0000 </r>
       <r>   17.3457    0.0000 </r>
[...]
       <r>   24.5822    0.0000 </r>
       <r>   25.3170    0.0000 </r>
       <r>   28.8845    0.0000 </r>
       <r>   29.9947    0.0000 </r>
       <r>   35.1079    0.0000 </r>
       <r>   36.1742    0.0000 </r>
       <r>   38.7874    0.0000 </r>
       <r>   40.3873    0.0000 </r>
       <r>   46.2690    0.0000 </r>
       <r>   46.7052    0.0000 </r>
       <r>   55.8311    0.0000 </r>
       <r>   56.6367    0.0000 </r>
       <r>   57.1100    0.0000 </r>
       <r>   57.8847    0.0000 </r>
       <r>   59.8489    0.0000 </r>
       <r>   60.9224    0.0000 </r>
       <r>   61.0941    0.0000 </r>
       <r>   61.5974    0.0000 </r>
       <r>   63.2384    0.0000 </r>
       <r>   63.7769    0.0000 </r>
       <r>   66.3232    0.0000 </r>
       <r>   66.6521    0.0000 </r>
       <r>   69.0369    0.0000 </r>
       <r>   69.1686    0.0000 </r>
       <r>   70.2213    0.0000 </r>
       <r>   70.9619    0.0000 </r>
      </set>
      <set comment="kpoint 95">
       <r>    3.7890    1.0000 </r>
       <r>    3.8749    1.0000 </r>
       <r>    4.8798    1.0000 </r>
       <r>    5.1075    1.0000 </r>
       <r>    5.6209    1.0000 </r>
       <r>    5.8454    1.0000 </r>
       <r>    7.1322    1.0000 </r>
       <r>    7.3438    1.0000 </r>
       <r>    9.0938   -0.0000 </r>
       <r>    9.3195   -0.0000 </r>
       <r>   13.9274    0.0000 </r>
       <r>   14.4468    0.0000 </r>
       <r>   20.6443    0.0000 </r>
       <r>   21.0902    0.0000 </r>
       <r>   22.6351    0.0000 </r>
       <r>   23.0552    0.0000 </r>
       <r>   29.1091    0.0000 </r>
       <r>   30.6961    0.0000 </r>
       <r>   35.1414    0.0000 </r>
       <r>   36.5311    0.0000 </r>
       <r>   38.4033    0.0000 </r>
       <r>   39.5539    0.0000 </r>
       <r>   48.8083    0.0000 </r>
       <r>   49.2759    0.0000 </r>
       <r>   53.4423    0.0000 </r>
       <r>   53.4768    0.0000 </r>
       <r>   57.8396    0.0000 </r>
       <r>   59.8242    0.0000 </r>
       <r>   60.0921    0.0000 </r>
       <r>   60.9617    0.0000 </r>
       <r>   62.0957    0.0000 </r>
       <r>   62.1748    0.0000 </r>
       <r>   62.3431    0.0000 </r>
       <r>   62.6012    0.0000 </r>
       <r>   65.1570    0.0000 </r>
       <r>   65.4714    0.0000 </r>
       <r>   68.8511    0.0000 </r>
       <r>   69.0033    0.0000 </r>
       <r>   69.8142    0.0000 </r>
       <r>   69.8268    0.0000 </r>
      </set>
      <set comment="kpoint 96">
       <r>    4.0325    1.0000 </r>
       <r>    4.1805    1.0000 </r>
       <r>    4.8237    1.0000 </r>
       <r>    4.9306    1.0000 </r>
       <r>    5.5896    1.0000 </r>
       <r>    5.7504    1.0000 </r>
       <r>    7.1700    1.0000 </r>
       <r>    7.3251    1.0000 </r>
       <r>    9.0800   -0.0000 </r>
       <r>    9.1599   -0.0000 </r>
       <r>   15.8976    0.0000 </r>
       <r>   16.0615    0.0000 </r>
       <r>   18.8312    0.0000 </r>
       <r>   19.1822    0.0000 </r>
       <r>   21.9664    0.0000 </r>
       <r>   22.4010    0.0000 </r>
       <r>   30.8894    0.0000 </r>
       <r>   31.7095    0.0000 </r>
       <r>   34.1222    0.0000 </r>
       <r>   34.3395    0.0000 </r>
       <r>   38.1160    0.0000 </r>
       <r>   38.9375    0.0000 </r>
       <r>   50.0827    0.0000 </r>
       <r>   50.7348    0.0000 </r>
       <r>   54.9398    0.0000 </r>
       <r>   55.4207    0.0000 </r>
       <r>   57.8568    0.0000 </r>
       <r>   58.3247    0.0000 </r>
       <r>   59.7231    0.0000 </r>
       <r>   59.8985    0.0000 </r>
       <r>   61.6311    0.0000 </r>
       <r>   62.1601    0.0000 </r>
       <r>   62.8873    0.0000 </r>
       <r>   63.0225    0.0000 </r>
       <r>   64.3671    0.0000 </r>
       <r>   65.7168    0.0000 </r>
       <r>   67.3247    0.0000 </r>
       <r>   67.9358    0.0000 </r>
       <r>   71.3045    0.0000 </r>
       <r>   71.5636    0.0000 </r>
      </set>
     </set>
    </set>
   </array>
  </eigenvalues>
  <separator name="orbital magnetization" >
   <v name="MAGDIPOLOUT">      0.00000000      0.00000000      0.00000000</v>
  </separator>
  <dos>
   <i name="efermi">      8.22046027 </i>
   <total>
    <array>
     <dimension dim="1">gridpoints</dimension>
     <dimension dim="2">spin</dimension>
     <field>energy</field>
     <field>total</field>
     <field>integrated</field>
     <set>
      <set comment="spin 1">
       <r>    -5.0659     0.0000     0.0000 </r>
       <r>    -4.7911     0.0000     0.0000 </r>
       <r>    -4.5163     0.0000     0.0000 </r>
       <r>    -4.2414     0.0000     0.0000 </r>
       <r>    -3.9666     0.0000     0.0000 </r>
       <r>    -3.6918     0.0000     0.0000 </r>
       <r>    -3.4170     0.0000     0.0000 </r>
       <r>    -3.1422    -0.0000    -0.0000 </r>
       <r>    -2.8673    -0.0000    -0.0000 </r>
       <r>    -2.5925    -0.0000    -0.0000 </r>
       <r>    -2.3177    -0.0000    -0.0000 </r>
       <r>    -2.0429    -0.0000    -0.0000 </r>
       <r>    -1.7681    -0.0000    -0.0000 </r>
       <r>    -1.4932    -0.0004    -0.0001 </r>
       <r>    -1.2184     0.0089     0.0023 </r>
       <r>    -0.9436     0.0445     0.0146 </r>
       <r>    -0.6688     0.0998     0.0420 </r>
       <r>    -0.3939     0.0519     0.0563 </r>
       <r>    -0.1191     0.1343     0.0932 </r>
       <r>     0.1557     0.1585     0.1367 </r>
       <r>     0.4305     0.1985     0.1913 </r>
       <r>     0.7053     0.0857     0.2148 </r>
       <r>     0.9802     0.1832     0.2652 </r>
       <r>     1.2550     0.3015     0.3480 </r>
       <r>     1.5298     0.2990     0.4302 </r>
       <r>     1.8046     0.3117     0.5159 </r>
       <r>     2.0794     0.2611     0.5876 </r>
       <r>     2.3543     0.3337     0.6793 </r>
       <r>     2.6291     1.2624     1.0262 </r>
       <r>     2.9039     1.9063     1.5501 </r>
       <r>     3.1787     1.7812     2.0396 </r>
       <r>     3.4535     2.6698     2.7733 </r>
       <r>     3.7284     2.2907     3.4029 </r>
       <r>     4.0032     2.5530     4.1045 </r>
       <r>     4.2780     2.2495     4.7227 </r>
       <r>     4.5528     2.7762     5.4857 </r>
       <r>     4.8276     2.7088     6.2301 </r>
       <r>     5.1025     3.0248     7.0614 </r>
       <r>     5.3773     2.1800     7.6605 </r>
       <r>     5.6521     1.8003     8.1553 </r>
       <r>     5.9269     3.2702     9.0540 </r>
       <r>     6.2017     3.1769     9.9270 </r>
       <r>     6.4766     3.1564    10.7945 </r>
       <r>     6.7514     3.2052    11.6753 </r>
       <r>     7.0262     2.6115    12.3930 </r>
       <r>     7.3010     3.1233    13.2514 </r>
       <r>     7.5759     3.0787    14.0975 </r>
       <r>     7.8507     3.0167    14.9266 </r>
       <r>     8.1255     2.9689    15.7425 </r>
       <r>     8.4003     2.7145    16.4885 </r>
       <r>     8.6751     3.1226    17.3466 </r>
       <r>     8.9500     3.9762    18.4394 </r>
       <r>     9.2248     3.9696    19.5303 </r>
       <r>     9.4996     3.5090    20.4946 </r>
       <r>     9.7744     2.3589    21.1429 </r>
       <r>    10.0492     0.4595    21.2692 </r>
       <r>    10.3241     0.4889    21.4036 </r>
       <r>    10.5989     0.3020    21.4866 </r>
       <r>    10.8737     0.6179    21.6564 </r>
       <r>    11.1485     0.8806    21.8984 </r>
       <r>    11.4233     0.6026    22.0640 </r>
       <r>    11.6982     0.3595    22.1628 </r>
       <r>    11.9730     0.3191    22.2505 </r>
       <r>    12.2478     0.5186    22.3930 </r>
       <r>    12.5226     0.3327    22.4844 </r>
       <r>    12.7974     0.2409    22.5506 </r>
       <r>    13.0723     0.7073    22.7450 </r>
       <r>    13.3471     0.4392    22.8657 </r>
       <r>    13.6219     0.5488    23.0165 </r>
       <r>    13.8967     0.3843    23.1221 </r>
       <r>    14.1715     0.2148    23.1812 </r>
       <r>    14.4464     0.2216    23.2421 </r>
       <r>    14.7212     0.4625    23.3692 </r>
       <r>    14.9960     0.2568    23.4398 </r>
       <r>    15.2708     0.3946    23.5482 </r>
       <r>    15.5457     0.1429    23.5875 </r>
       <r>    15.8205     0.3374    23.6802 </r>
       <r>    16.0953     0.3701    23.7819 </r>
       <r>    16.3701     0.5828    23.9421 </r>
       <r>    16.6449     0.3764    24.0455 </r>
       <r>    16.9198     0.1799    24.0950 </r>
       <r>    17.1946     0.1923    24.1478 </r>
       <r>    17.4694     0.0755    24.1685 </r>
       <r>    17.7442     0.1452    24.2085 </r>
       <r>    18.0190     0.4405    24.3295 </r>
       <r>    18.2939     0.1167    24.3616 </r>
       <r>    18.5687     0.2412    24.4279 </r>
       <r>    18.8435     0.5197    24.5707 </r>
       <r>    19.1183     0.5488    24.7215 </r>
       <r>    19.3931     1.0314    25.0050 </r>
       <r>    19.6680     0.8706    25.2442 </r>
       <r>    19.9428     0.5053    25.3831 </r>
       <r>    20.2176     0.4544    25.5080 </r>
       <r>    20.4924     0.6267    25.6802 </r>
       <r>    20.7672     0.5611    25.8344 </r>
       <r>    21.0421     0.6049    26.0006 </r>
       <r>    21.3169     1.0165    26.2800 </r>
       <r>    21.5917     0.6781    26.4664 </r>
       <r>    21.8665     0.6209    26.6370 </r>
       <r>    22.1413     0.3582    26.7354 </r>
       <r>    22.4162     0.6338    26.9096 </r>
       <r>    22.6910     0.7455    27.1145 </r>
       <r>    22.9658     0.7036    27.3078 </r>
       <r>    23.2406     0.5181    27.4502 </r>
       <r>    23.5154     0.4317    27.5688 </r>
       <r>    23.7903     0.6493    27.7473 </r>
       <r>    24.0651     0.5922    27.9101 </r>
       <r>    24.3399     0.6220    28.0810 </r>
       <r>    24.6147     0.8147    28.3049 </r>
       <r>    24.8896     0.5324    28.4512 </r>
       <r>    25.1644     0.5331    28.5977 </r>
       <r>    25.4392     0.5749    28.7557 </r>
       <r>    25.7140     0.6528    28.9351 </r>
       <r>    25.9888     1.0531    29.2245 </r>
       <r>    26.2637     1.0574    29.5151 </r>
       <r>    26.5385     0.6568    29.6956 </r>
       <r>    26.8133     0.6246    29.8673 </r>
       <r>    27.0881     1.0169    30.1467 </r>
       <r>    27.3629     0.7767    30.3602 </r>
       <r>    27.6378     0.8389    30.5907 </r>
       <r>    27.9126     0.9470    30.8510 </r>
       <r>    28.1874     0.8435    31.0828 </r>
       <r>    28.4622     0.9709    31.3496 </r>
       <r>    28.7370     0.6340    31.5239 </r>
       <r>    29.0119     0.9196    31.7766 </r>
       <r>    29.2867     1.4034    32.1623 </r>
       <r>    29.5615     1.0885    32.4614 </r>
       <r>    29.8363     0.6240    32.6329 </r>
       <r>    30.1111     0.5964    32.7968 </r>
       <r>    30.3860     0.8261    33.0238 </r>
       <r>    30.6608     0.7692    33.2352 </r>
       <r>    30.9356     0.8593    33.4714 </r>
       <r>    31.2104     0.7127    33.6672 </r>
       <r>    31.4852     0.9409    33.9258 </r>
       <r>    31.7601     0.8807    34.1678 </r>
       <r>    32.0349     0.8403    34.3988 </r>
       <r>    32.3097     0.5208    34.5419 </r>
       <r>    32.5845     0.5285    34.6871 </r>
       <r>    32.8594     0.6431    34.8639 </r>
       <r>    33.1342     0.5917    35.0265 </r>
       <r>    33.4090     0.6017    35.1918 </r>
       <r>    33.6838     0.7799    35.4061 </r>
       <r>    33.9586     0.6303    35.5794 </r>
       <r>    34.2335     0.6418    35.7557 </r>
       <r>    34.5083     0.5937    35.9189 </r>
       <r>    34.7831     0.7926    36.1367 </r>
       <r>    35.0579     0.7208    36.3348 </r>
       <r>    35.3327     1.1380    36.6476 </r>
       <r>    35.6076     0.5215    36.7909 </r>
       <r>    35.8824     0.4779    36.9222 </r>
       <r>    36.1572     0.7456    37.1271 </r>
       <r>    36.4320     0.6915    37.3172 </r>
       <r>    36.7068     0.5317    37.4633 </r>
       <r>    36.9817     1.1647    37.7834 </r>
       <r>    37.2565     1.1993    38.1130 </r>
       <r>    37.5313     0.5138    38.2542 </r>
       <r>    37.8061     0.6245    38.4258 </r>
       <r>    38.0809     0.9573    38.6889 </r>
       <r>    38.3558     1.0361    38.9736 </r>
       <r>    38.6306     1.1590    39.2921 </r>
       <r>    38.9054     0.8088    39.5144 </r>
       <r>    39.1802     0.8430    39.7461 </r>
       <r>    39.4550     1.2709    40.0954 </r>
       <r>    39.7299     1.2101    40.4279 </r>
       <r>    40.0047     0.9644    40.6930 </r>
       <r>    40.2795     0.8716    40.9325 </r>
       <r>    40.5543     1.0207    41.2130 </r>
       <r>    40.8292     0.6724    41.3978 </r>
       <r>    41.1040     0.4993    41.5350 </r>
       <r>    41.3788     0.9115    41.7855 </r>
       <r>    41.6536     0.4785    41.9170 </r>
       <r>    41.9284     0.6178    42.0867 </r>
       <r>    42.2033     0.4897    42.2213 </r>
       <r>    42.4781     0.8766    42.4622 </r>
       <r>    42.7529     0.9638    42.7271 </r>
       <r>    43.0277     0.8511    42.9610 </r>
       <r>    43.3025     0.7604    43.1700 </r>
       <r>    43.5774     0.5316    43.3161 </r>
       <r>    43.8522     0.7141    43.5123 </r>
       <r>    44.1270     0.7759    43.7256 </r>
       <r>    44.4018     0.6292    43.8985 </r>
       <r>    44.6766     0.7308    44.0993 </r>
       <r>    44.9515     0.8087    44.3216 </r>
       <r>    45.2263     1.1565    44.6394 </r>
       <r>    45.5011     0.9371    44.8969 </r>
       <r>    45.7759     1.2425    45.2384 </r>
       <r>    46.0507     0.9894    45.5103 </r>
       <r>    46.3256     1.2433    45.8520 </r>
       <r>    46.6004     0.6717    46.0366 </r>
       <r>    46.8752     1.4290    46.4293 </r>
       <r>    47.1500     1.1860    46.7552 </r>
       <r>    47.4248     0.9735    47.0228 </r>
       <r>    47.6997     0.8792    47.2644 </r>
       <r>    47.9745     1.0128    47.5428 </r>
       <r>    48.2493     1.0425    47.8293 </r>
       <r>    48.5241     0.9092    48.0792 </r>
       <r>    48.7990     0.6960    48.2704 </r>
       <r>    49.0738     0.6839    48.4584 </r>
       <r>    49.3486     0.9121    48.7090 </r>
       <r>    49.6234     1.1748    49.0319 </r>
       <r>    49.8982     1.0582    49.3227 </r>
       <r>    50.1731     0.8223    49.5487 </r>
       <r>    50.4479     0.7964    49.7676 </r>
       <r>    50.7227     1.0084    50.0447 </r>
       <r>    50.9975     1.2257    50.3816 </r>
       <r>    51.2723     0.9823    50.6515 </r>
       <r>    51.5472     0.4032    50.7623 </r>
       <r>    51.8220     0.9646    51.0274 </r>
       <r>    52.0968     1.1338    51.3390 </r>
       <r>    52.3716     1.1856    51.6648 </r>
       <r>    52.6464     0.8156    51.8890 </r>
       <r>    52.9213     0.5697    52.0455 </r>
       <r>    53.1961     0.8534    52.2801 </r>
       <r>    53.4709     0.9008    52.5276 </r>
       <r>    53.7457     1.2303    52.8657 </r>
       <r>    54.0205     0.9970    53.1397 </r>
       <r>    54.2954     1.3370    53.5072 </r>
       <r>    54.5702     1.2747    53.8575 </r>
       <r>    54.8450     1.1765    54.1808 </r>
       <r>    55.1198     1.1729    54.5031 </r>
       <r>    55.3946     1.2314    54.8415 </r>
       <r>    55.6695     1.1961    55.1703 </r>
       <r>    55.9443     1.1593    55.4889 </r>
       <r>    56.2191     0.8023    55.7094 </r>
       <r>    56.4939     0.9145    55.9607 </r>
       <r>    56.7687     0.9152    56.2122 </r>
       <r>    57.0436     0.9580    56.4755 </r>
       <r>    57.3184     1.4241    56.8668 </r>
       <r>    57.5932     1.2685    57.2155 </r>
       <r>    57.8680     1.1225    57.5240 </r>
       <r>    58.1429     1.1131    57.8299 </r>
       <r>    58.4177     1.2735    58.1799 </r>
       <r>    58.6925     1.4110    58.5676 </r>
       <r>    58.9673     1.3625    58.9421 </r>
       <r>    59.2421     1.5050    59.3557 </r>
       <r>    59.5170     1.8842    59.8735 </r>
       <r>    59.7918     0.8028    60.0941 </r>
       <r>    60.0666     1.5006    60.5065 </r>
       <r>    60.3414     1.3760    60.8847 </r>
       <r>    60.6162     1.6956    61.3506 </r>
       <r>    60.8911     1.8355    61.8551 </r>
       <r>    61.1659     1.6981    62.3218 </r>
       <r>    61.4407     1.8941    62.8423 </r>
       <r>    61.7155     1.5849    63.2779 </r>
       <r>    61.9903     1.1595    63.5965 </r>
       <r>    62.2652     1.8601    64.1077 </r>
       <r>    62.5400     2.2441    64.7245 </r>
       <r>    62.8148     2.3457    65.3691 </r>
       <r>    63.0896     3.1794    66.2429 </r>
       <r>    63.3644     2.1959    66.8463 </r>
       <r>    63.6393     2.3223    67.4846 </r>
       <r>    63.9141     1.7934    67.9774 </r>
       <r>    64.1889     1.4129    68.3657 </r>
       <r>    64.4637     1.7141    68.8368 </r>
       <r>    64.7385     1.6366    69.2865 </r>
       <r>    65.0134     1.2551    69.6314 </r>
       <r>    65.2882     1.3582    70.0047 </r>
       <r>    65.5630     1.1547    70.3221 </r>
       <r>    65.8378     1.5920    70.7596 </r>
       <r>    66.1127     1.3392    71.1276 </r>
       <r>    66.3875     1.5331    71.5490 </r>
       <r>    66.6623     1.6519    72.0029 </r>
       <r>    66.9371     1.6323    72.4515 </r>
       <r>    67.2119     1.4616    72.8532 </r>
       <r>    67.4868     1.2661    73.2011 </r>
       <r>    67.7616     0.9705    73.4678 </r>
       <r>    68.0364     1.7534    73.9497 </r>
       <r>    68.3112     1.5761    74.3828 </r>
       <r>    68.5860     1.4250    74.7745 </r>
       <r>    68.8609     1.2027    75.1050 </r>
       <r>    69.1357     1.6561    75.5601 </r>
       <r>    69.4105     1.7057    76.0289 </r>
       <r>    69.6853     1.6910    76.4936 </r>
       <r>    69.9601     1.7148    76.9649 </r>
       <r>    70.2350     1.6068    77.4065 </r>
       <r>    70.5098     1.2477    77.7493 </r>
       <r>    70.7846     0.8932    77.9948 </r>
       <r>    71.0594     1.4612    78.3964 </r>
       <r>    71.3342     0.9440    78.6558 </r>
       <r>    71.6091     0.9602    78.9197 </r>
       <r>    71.8839     1.4646    79.3222 </r>
       <r>    72.1587     1.1058    79.6260 </r>
       <r>    72.4335     0.5034    79.7644 </r>
       <r>    72.7083     0.4563    79.8898 </r>
       <r>    72.9832     0.2225    79.9509 </r>
       <r>    73.2580     0.1421    79.9900 </r>
       <r>    73.5328     0.0087    79.9924 </r>
       <r>    73.8076     0.0279    80.0001 </r>
       <r>    74.0825    -0.0001    80.0000 </r>
       <r>    74.3573    -0.0001    80.0000 </r>
       <r>    74.6321    -0.0000    80.0000 </r>
       <r>    74.9069    -0.0000    80.0000 </r>
       <r>    75.1817     0.0000    80.0000 </r>
       <r>    75.4566     0.0000    80.0000 </r>
       <r>    75.7314     0.0000    80.0000 </r>
       <r>    76.0062     0.0000    80.0000 </r>
       <r>    76.2810     0.0000    80.0000 </r>
       <r>    76.5558     0.0000    80.0000 </r>
       <r>    76.8307     0.0000    80.0000 </r>
       <r>    77.1055     0.0000    80.0000 </r>
       <r>    77.3803     0.0000    80.0000 </r>
      </set>
     </set>
    </array>
   </total>
  </dos>
 </calculation>
 <structure name="finalpos" >
  <crystal>
   <varray name="basis" >
    <v>       2.26010000       0.00000000       0.00000000 </v>
    <v>      -1.13005000       1.95730402       0.00000000 </v>
    <v>       0.00000000       0.00000000       4.13608000 </v>
   </varray>
   <i name="volume">     18.29678870 </i>
   <varray name="rec_basis" >
    <v>       0.44245830       0.25545342       0.00000000 </v>
    <v>       0.00000000       0.51090684       0.00000000 </v>
    <v>       0.00000000       0.00000000       0.24177482 </v>
   </varray>
  </crystal>
  <varray name="positions" >
   <v>       0.00000000       0.00000000       0.00000000 </v>
   <v>       0.33333333       0.66666667       0.50000000 </v>
  </varray>
 </structure>
</modeling>
