unknown system                          
   1.00000000000000     
     3.445083    0.000000    0.000000
     0.000000    3.445083    0.000000
     0.000000    0.000000    3.445083
   Fe
     4
Direct
  0.000000  0.000000  0.000000
  0.500000  0.500000  0.000000
  0.500000  0.000000  0.500000
  0.000000  0.500000  0.500000
 
   28   28   28
  342.15      322.17      269.21      199.94      131.91      77.212      41.026      22.532      15.860      12.993    
  11.262      10.267      9.7518      9.6056      9.6058      9.6056      9.7518      10.267      11.262      12.993    
  15.860      22.532      41.026      77.212      131.91      199.94      269.21      322.17      322.17      303.33    
  253.37      188.04      123.96      72.617      38.903      21.887      15.768      12.971      11.278      10.296    
  9.7761      9.6141      9.6056      9.6141      9.7761      10.296      11.278      12.971      15.768      21.887    
  38.903      72.617      123.96      188.04      253.37      303.33      269.21      253.37      211.38      156.53    
  103.00      60.622      33.474      20.295      15.504      12.920      11.368      10.458      9.9573      9.7761    
  9.7518      9.7761      9.9573      10.458      11.368      12.920      15.504      20.295      33.474      60.622    
  103.00      156.53      211.38      253.37      199.94      188.04      156.53      115.56      76.047      45.579    
  26.978      18.519      15.075      12.877      11.600      10.867      10.458      10.296      10.267      10.296    
  10.458      10.867      11.600      12.877      15.075      18.519      26.978      45.579      76.047      115.56    
  156.53      188.04      131.91      123.96      103.00      76.047      50.706      32.100      21.625      17.109    
  14.571      12.928      12.053      11.600      11.368      11.278      11.262      11.278      11.368      11.600    
  12.053      12.928      14.571      17.109      21.625      32.100      50.706      76.047      103.00      123.96    
  77.212      72.617      60.622      45.579      32.100      23.000      18.377      15.951      14.216      13.273    
  12.928      12.877      12.920      12.971      12.993      12.971      12.920      12.877      12.928      13.273    
  14.216      15.951      18.377      23.000      32.100      45.579      60.622      72.617      41.026      38.903    
  33.474      26.978      21.625      18.377      16.482      15.060      14.304      14.216      14.571      15.075    
  15.504      15.768      15.860      15.768      15.504      15.075      14.571      14.216      14.304      15.060    
  16.482      18.377      21.625      26.978      33.474      38.903      22.532      21.887      20.295      18.519    
  17.109      15.951      15.060      14.726      15.060      15.951      17.109      18.519      20.295      21.887    
  22.532      21.887      20.295      18.519      17.109      15.951      15.060      14.726      15.060      15.951    
  17.109      18.519      20.295      21.887      15.860      15.768      15.504      15.075      14.571      14.216    
  14.304      15.060      16.482      18.377      21.625      26.978      33.474      38.903      41.026      38.903    
  33.474      26.978      21.625      18.377      16.482      15.060      14.304      14.216      14.571      15.075    
  15.504      15.768      12.993      12.971      12.920      12.877      12.928      13.273      14.216      15.951    
  18.377      23.000      32.100      45.579      60.622      72.617      77.212      72.617      60.622      45.579    
  32.100      23.000      18.377      15.951      14.216      13.273      12.928      12.877      12.920      12.971    
  11.262      11.278      11.368      11.600      12.053      12.928      14.571      17.109      21.625      32.100    
  50.706      76.047      103.00      123.96      131.91      123.96      103.00      76.047      50.706      32.100    
  21.625      17.109      14.571      12.928      12.053      11.600      11.368      11.278      10.267      10.296    
  10.458      10.867      11.600      12.877      15.075      18.519      26.978      45.579      76.047      115.56    
  156.53      188.04      199.94      188.04      156.53      115.56      76.047      45.579      26.978      18.519    
  15.075      12.877      11.600      10.867      10.458      10.296      9.7518      9.7761      9.9573      10.458    
  11.368      12.920      15.504      20.295      33.474      60.622      103.00      156.53      211.38      253.37    
  269.21      253.37      211.38      156.53      103.00      60.622      33.474      20.295      15.504      12.920    
  11.368      10.458      9.9573      9.7761      9.6056      9.6141      9.7761      10.296      11.278      12.971    
  15.768      21.887      38.903      72.617      123.96      188.04      253.37      303.33      322.17      303.33    
  253.37      188.04      123.96      72.617      38.903      21.887      15.768      12.971      11.278      10.296    
  9.7761      9.6141      9.6058      9.6056      9.7518      10.267      11.262      12.993      15.860      22.532    
  41.026      77.212      131.91      199.94      269.21      322.17      342.15      322.17      269.21      199.94    
  131.91      77.212      41.026      22.532      15.860      12.993      11.262      10.267      9.7518      9.6056    
  9.6056      9.6141      9.7761      10.296      11.278      12.971      15.768      21.887      38.903      72.617    
  123.96      188.04      253.37      303.33      322.17      303.33      253.37      188.04      123.96      72.617    
  38.903      21.887      15.768      12.971      11.278      10.296      9.7761      9.6141      9.7518      9.7761    
  9.9573      10.458      11.368      12.920      15.504      20.295      33.474      60.622      103.00      156.53    
  211.38      253.37      269.21      253.37      211.38      156.53      103.00      60.622      33.474      20.295    
  15.504      12.920      11.368      10.458      9.9573      9.7761      10.267      10.296      10.458      10.867    
  11.600      12.877      15.075      18.519      26.978      45.579      76.047      115.56      156.53      188.04    
  199.94      188.04      156.53      115.56      76.047      45.579      26.978      18.519      15.075      12.877    
  11.600      10.867      10.458      10.296      11.262      11.278      11.368      11.600      12.053      12.928    
  14.571      17.109      21.625      32.100      50.706      76.047      103.00      123.96      131.91      123.96    
  103.00      76.047      50.706      32.100      21.625      17.109      14.571      12.928      12.053      11.600    
  11.368      11.278      12.993      12.971      12.920      12.877      12.928      13.273      14.216      15.951    
  18.377      23.000      32.100      45.579      60.622      72.617      77.212      72.617      60.622      45.579    
  32.100      23.000      18.377      15.951      14.216      13.273      12.928      12.877      12.920      12.971    
  15.860      15.768      15.504      15.075      14.571      14.216      14.304      15.060      16.482      18.377    
  21.625      26.978      33.474      38.903      41.026      38.903      33.474      26.978      21.625      18.377    
  16.482      15.060      14.304      14.216      14.571      15.075      15.504      15.768      22.532      21.887    
  20.295      18.519      17.109      15.951      15.060      14.726      15.060      15.951      17.109      18.519    
  20.295      21.887      22.532      21.887      20.295      18.519      17.109      15.951      15.060      14.726    
  15.060      15.951      17.109      18.519      20.295      21.887      41.026      38.903      33.474      26.978    
  21.625      18.377      16.482      15.060      14.304      14.216      14.571      15.075      15.504      15.768    
  15.860      15.768      15.504      15.075      14.571      14.216      14.304      15.060      16.482      18.377    
  21.625      26.978      33.474      38.903      77.212      72.617      60.622      45.579      32.100      23.000    
  18.377      15.951      14.216      13.273      12.928      12.877      12.920      12.971      12.993      12.971    
  12.920      12.877      12.928      13.273      14.216      15.951      18.377      23.000      32.100      45.579    
  60.622      72.617      131.91      123.96      103.00      76.047      50.706      32.100      21.625      17.109    
  14.571      12.928      12.053      11.600      11.368      11.278      11.262      11.278      11.368      11.600    
  12.053      12.928      14.571      17.109      21.625      32.100      50.706      76.047      103.00      123.96    
  199.94      188.04      156.53      115.56      76.047      45.579      26.978      18.519      15.075      12.877    
  11.600      10.867      10.458      10.296      10.267      10.296      10.458      10.867      11.600      12.877    
  15.075      18.519      26.978      45.579      76.047      115.56      156.53      188.04      269.21      253.37    
  211.38      156.53      103.00      60.622      33.474      20.295      15.504      12.920      11.368      10.458    
  9.9573      9.7761      9.7518      9.7761      9.9573      10.458      11.368      12.920      15.504      20.295    
  33.474      60.622      103.00      156.53      211.38      253.37      322.17      303.33      253.37      188.04    
  123.96      72.617      38.903      21.887      15.768      12.971      11.278      10.296      9.7761      9.6141    
  9.6056      9.6141      9.7761      10.296      11.278      12.971      15.768      21.887      38.903      72.617    
  123.96      188.04      253.37      303.33      322.17      303.33      253.37      188.04      123.96      72.617    
  38.903      21.887      15.768      12.971      11.278      10.296      9.7761      9.6141      9.6056      9.6141    
  9.7761      10.296      11.278      12.971      15.768      21.887      38.903      72.617      123.96      188.04    
  253.37      303.33      303.33      285.56      238.43      176.82      116.48      68.315      36.937      21.300    
  15.679      12.952      11.299      10.332      9.8074      9.6310      9.6141      9.6310      9.8074      10.332    
  11.299      12.952      15.679      21.300      36.937      68.315      116.48      176.82      238.43      285.56    
  253.37      238.43      198.83      147.13      96.775      57.107      31.921      19.858      15.418      12.906    
  11.397      10.504      10.001      9.8074      9.7761      9.8074      10.001      10.504      11.397      12.906    
  15.418      19.858      31.921      57.107      96.775      147.13      198.83      238.43      188.04      176.82    
  147.13      108.58      71.505      43.101      25.950      18.247      14.991      12.868      11.632      10.914    
  10.504      10.332      10.296      10.332      10.504      10.914      11.632      12.868      14.991      18.247    
  25.950      43.101      71.505      108.58      147.13      176.82      123.96      116.48      96.775      71.505    
  47.854      30.636      21.068      16.937      14.492      12.916      12.073      11.632      11.397      11.299    
  11.278      11.299      11.397      11.632      12.073      12.916      14.492      16.937      21.068      30.636    
  47.854      71.505      96.775      116.48      72.617      68.315      57.107      43.101      30.636      22.312    
  18.110      15.799      14.138      13.241      12.916      12.868      12.906      12.952      12.971      12.952    
  12.906      12.868      12.916      13.241      14.138      15.799      18.110      22.312      30.636      43.101    
  57.107      68.315      38.903      36.937      31.921      25.950      21.068      18.110      16.298      14.929    
  14.210      14.138      14.492      14.991      15.418      15.679      15.768      15.679      15.418      14.991    
  14.492      14.138      14.210      14.929      16.298      18.110      21.068      25.950      31.921      36.937    
  21.887      21.300      19.858      18.247      16.937      15.799      14.929      14.603      14.929      15.799    
  16.937      18.247      19.858      21.300      21.887      21.300      19.858      18.247      16.937      15.799    
  14.929      14.603      14.929      15.799      16.937      18.247      19.858      21.300      15.768      15.679    
  15.418      14.991      14.492      14.138      14.210      14.929      16.298      18.110      21.068      25.950    
  31.921      36.937      38.903      36.937      31.921      25.950      21.068      18.110      16.298      14.929    
  14.210      14.138      14.492      14.991      15.418      15.679      12.971      12.952      12.906      12.868    
  12.916      13.241      14.138      15.799      18.110      22.312      30.636      43.101      57.107      68.315    
  72.617      68.315      57.107      43.101      30.636      22.312      18.110      15.799      14.138      13.241    
  12.916      12.868      12.906      12.952      11.278      11.299      11.397      11.632      12.073      12.916    
  14.492      16.937      21.068      30.636      47.854      71.505      96.775      116.48      123.96      116.48    
  96.775      71.505      47.854      30.636      21.068      16.937      14.492      12.916      12.073      11.632    
  11.397      11.299      10.296      10.332      10.504      10.914      11.632      12.868      14.991      18.247    
  25.950      43.101      71.505      108.58      147.13      176.82      188.04      176.82      147.13      108.58    
  71.505      43.101      25.950      18.247      14.991      12.868      11.632      10.914      10.504      10.332    
  9.7761      9.8074      10.001      10.504      11.397      12.906      15.418      19.858      31.921      57.107    
  96.775      147.13      198.83      238.43      253.37      238.43      198.83      147.13      96.775      57.107    
  31.921      19.858      15.418      12.906      11.397      10.504      10.001      9.8074      9.6141      9.6310    
  9.8074      10.332      11.299      12.952      15.679      21.300      36.937      68.315      116.48      176.82    
  238.43      285.56      303.33      285.56      238.43      176.82      116.48      68.315      36.937      21.300    
  15.679      12.952      11.299      10.332      9.8074      9.6310      9.6056      9.6141      9.7761      10.296    
  11.278      12.971      15.768      21.887      38.903      72.617      123.96      188.04      253.37      303.33    
  322.17      303.33      253.37      188.04      123.96      72.617      38.903      21.887      15.768      12.971    
  11.278      10.296      9.7761      9.6141      9.6141      9.6310      9.8074      10.332      11.299      12.952    
  15.679      21.300      36.937      68.315      116.48      176.82      238.43      285.56      303.33      285.56    
  238.43      176.82      116.48      68.315      36.937      21.300      15.679      12.952      11.299      10.332    
  9.8074      9.6310      9.7761      9.8074      10.001      10.504      11.397      12.906      15.418      19.858    
  31.921      57.107      96.775      147.13      198.83      238.43      253.37      238.43      198.83      147.13    
  96.775      57.107      31.921      19.858      15.418      12.906      11.397      10.504      10.001      9.8074    
  10.296      10.332      10.504      10.914      11.632      12.868      14.991      18.247      25.950      43.101    
  71.505      108.58      147.13      176.82      188.04      176.82      147.13      108.58      71.505      43.101    
  25.950      18.247      14.991      12.868      11.632      10.914      10.504      10.332      11.278      11.299    
  11.397      11.632      12.073      12.916      14.492      16.937      21.068      30.636      47.854      71.505    
  96.775      116.48      123.96      116.48      96.775      71.505      47.854      30.636      21.068      16.937    
  14.492      12.916      12.073      11.632      11.397      11.299      12.971      12.952      12.906      12.868    
  12.916      13.241      14.138      15.799      18.110      22.312      30.636      43.101      57.107      68.315    
  72.617      68.315      57.107      43.101      30.636      22.312      18.110      15.799      14.138      13.241    
  12.916      12.868      12.906      12.952      15.768      15.679      15.418      14.991      14.492      14.138    
  14.210      14.929      16.298      18.110      21.068      25.950      31.921      36.937      38.903      36.937    
  31.921      25.950      21.068      18.110      16.298      14.929      14.210      14.138      14.492      14.991    
  15.418      15.679      21.887      21.300      19.858      18.247      16.937      15.799      14.929      14.603    
  14.929      15.799      16.937      18.247      19.858      21.300      21.887      21.300      19.858      18.247    
  16.937      15.799      14.929      14.603      14.929      15.799      16.937      18.247      19.858      21.300    
  38.903      36.937      31.921      25.950      21.068      18.110      16.298      14.929      14.210      14.138    
  14.492      14.991      15.418      15.679      15.768      15.679      15.418      14.991      14.492      14.138    
  14.210      14.929      16.298      18.110      21.068      25.950      31.921      36.937      72.617      68.315    
  57.107      43.101      30.636      22.312      18.110      15.799      14.138      13.241      12.916      12.868    
  12.906      12.952      12.971      12.952      12.906      12.868      12.916      13.241      14.138      15.799    
  18.110      22.312      30.636      43.101      57.107      68.315      123.96      116.48      96.775      71.505    
  47.854      30.636      21.068      16.937      14.492      12.916      12.073      11.632      11.397      11.299    
  11.278      11.299      11.397      11.632      12.073      12.916      14.492      16.937      21.068      30.636    
  47.854      71.505      96.775      116.48      188.04      176.82      147.13      108.58      71.505      43.101    
  25.950      18.247      14.991      12.868      11.632      10.914      10.504      10.332      10.296      10.332    
  10.504      10.914      11.632      12.868      14.991      18.247      25.950      43.101      71.505      108.58    
  147.13      176.82      253.37      238.43      198.83      147.13      96.775      57.107      31.921      19.858    
  15.418      12.906      11.397      10.504      10.001      9.8074      9.7761      9.8074      10.001      10.504    
  11.397      12.906      15.418      19.858      31.921      57.107      96.775      147.13      198.83      238.43    
  303.33      285.56      238.43      176.82      116.48      68.315      36.937      21.300      15.679      12.952    
  11.299      10.332      9.8074      9.6310      9.6141      9.6310      9.8074      10.332      11.299      12.952    
  15.679      21.300      36.937      68.315      116.48      176.82      238.43      285.56      269.21      253.37    
  211.38      156.53      103.00      60.622      33.474      20.295      15.504      12.920      11.368      10.458    
  9.9573      9.7761      9.7518      9.7761      9.9573      10.458      11.368      12.920      15.504      20.295    
  33.474      60.622      103.00      156.53      211.38      253.37      253.37      238.43      198.83      147.13    
  96.775      57.107      31.921      19.858      15.418      12.906      11.397      10.504      10.001      9.8074    
  9.7761      9.8074      10.001      10.504      11.397      12.906      15.418      19.858      31.921      57.107    
  96.775      147.13      198.83      238.43      211.38      198.83      165.58      122.29      80.442      47.994    
  27.989      18.785      15.158      12.873      11.507      10.687      10.207      10.001      9.9573      10.001    
  10.207      10.687      11.507      12.873      15.158      18.785      27.989      47.994      80.442      122.29    
  165.58      198.83      156.53      147.13      122.29      90.195      59.662      36.745      23.384      17.568    
  14.743      12.842      11.735      11.080      10.687      10.504      10.458      10.504      10.687      11.080    
  11.735      12.842      14.743      17.568      23.384      36.745      59.662      90.195      122.29      147.13    
  103.00      96.775      80.442      59.662      40.513      26.950      19.700      16.458      14.268      12.879    
  12.136      11.735      11.507      11.397      11.368      11.397      11.507      11.735      12.136      12.879    
  14.268      16.458      19.700      26.950      40.513      59.662      80.442      96.775      60.622      57.107    
  47.994      36.745      26.950      20.619      17.432      15.386      13.926      13.154      12.879      12.842    
  12.873      12.906      12.920      12.906      12.873      12.842      12.879      13.154      13.926      15.386    
  17.432      20.619      26.950      36.745      47.994      57.107      33.474      31.921      27.989      23.384    
  19.700      17.432      15.806      14.584      13.966      13.926      14.268      14.743      15.158      15.418    
  15.504      15.418      15.158      14.743      14.268      13.926      13.966      14.584      15.806      17.432    
  19.700      23.384      27.989      31.921      20.295      19.858      18.785      17.568      16.458      15.386    
  14.584      14.287      14.584      15.386      16.458      17.568      18.785      19.858      20.295      19.858    
  18.785      17.568      16.458      15.386      14.584      14.287      14.584      15.386      16.458      17.568    
  18.785      19.858      15.504      15.418      15.158      14.743      14.268      13.926      13.966      14.584    
  15.806      17.432      19.700      23.384      27.989      31.921      33.474      31.921      27.989      23.384    
  19.700      17.432      15.806      14.584      13.966      13.926      14.268      14.743      15.158      15.418    
  12.920      12.906      12.873      12.842      12.879      13.154      13.926      15.386      17.432      20.619    
  26.950      36.745      47.994      57.107      60.622      57.107      47.994      36.745      26.950      20.619    
  17.432      15.386      13.926      13.154      12.879      12.842      12.873      12.906      11.368      11.397    
  11.507      11.735      12.136      12.879      14.268      16.458      19.700      26.950      40.513      59.662    
  80.442      96.775      103.00      96.775      80.442      59.662      40.513      26.950      19.700      16.458    
  14.268      12.879      12.136      11.735      11.507      11.397      10.458      10.504      10.687      11.080    
  11.735      12.842      14.743      17.568      23.384      36.745      59.662      90.195      122.29      147.13    
  156.53      147.13      122.29      90.195      59.662      36.745      23.384      17.568      14.743      12.842    
  11.735      11.080      10.687      10.504      9.9573      10.001      10.207      10.687      11.507      12.873    
  15.158      18.785      27.989      47.994      80.442      122.29      165.58      198.83      211.38      198.83    
  165.58      122.29      80.442      47.994      27.989      18.785      15.158      12.873      11.507      10.687    
  10.207      10.001      9.7761      9.8074      10.001      10.504      11.397      12.906      15.418      19.858    
  31.921      57.107      96.775      147.13      198.83      238.43      253.37      238.43      198.83      147.13    
  96.775      57.107      31.921      19.858      15.418      12.906      11.397      10.504      10.001      9.8074    
  9.7518      9.7761      9.9573      10.458      11.368      12.920      15.504      20.295      33.474      60.622    
  103.00      156.53      211.38      253.37      269.21      253.37      211.38      156.53      103.00      60.622    
  33.474      20.295      15.504      12.920      11.368      10.458      9.9573      9.7761      9.7761      9.8074    
  10.001      10.504      11.397      12.906      15.418      19.858      31.921      57.107      96.775      147.13    
  198.83      238.43      253.37      238.43      198.83      147.13      96.775      57.107      31.921      19.858    
  15.418      12.906      11.397      10.504      10.001      9.8074      9.9573      10.001      10.207      10.687    
  11.507      12.873      15.158      18.785      27.989      47.994      80.442      122.29      165.58      198.83    
  211.38      198.83      165.58      122.29      80.442      47.994      27.989      18.785      15.158      12.873    
  11.507      10.687      10.207      10.001      10.458      10.504      10.687      11.080      11.735      12.842    
  14.743      17.568      23.384      36.745      59.662      90.195      122.29      147.13      156.53      147.13    
  122.29      90.195      59.662      36.745      23.384      17.568      14.743      12.842      11.735      11.080    
  10.687      10.504      11.368      11.397      11.507      11.735      12.136      12.879      14.268      16.458    
  19.700      26.950      40.513      59.662      80.442      96.775      103.00      96.775      80.442      59.662    
  40.513      26.950      19.700      16.458      14.268      12.879      12.136      11.735      11.507      11.397    
  12.920      12.906      12.873      12.842      12.879      13.154      13.926      15.386      17.432      20.619    
  26.950      36.745      47.994      57.107      60.622      57.107      47.994      36.745      26.950      20.619    
  17.432      15.386      13.926      13.154      12.879      12.842      12.873      12.906      15.504      15.418    
  15.158      14.743      14.268      13.926      13.966      14.584      15.806      17.432      19.700      23.384    
  27.989      31.921      33.474      31.921      27.989      23.384      19.700      17.432      15.806      14.584    
  13.966      13.926      14.268      14.743      15.158      15.418      20.295      19.858      18.785      17.568    
  16.458      15.386      14.584      14.287      14.584      15.386      16.458      17.568      18.785      19.858    
  20.295      19.858      18.785      17.568      16.458      15.386      14.584      14.287      14.584      15.386    
  16.458      17.568      18.785      19.858      33.474      31.921      27.989      23.384      19.700      17.432    
  15.806      14.584      13.966      13.926      14.268      14.743      15.158      15.418      15.504      15.418    
  15.158      14.743      14.268      13.926      13.966      14.584      15.806      17.432      19.700      23.384    
  27.989      31.921      60.622      57.107      47.994      36.745      26.950      20.619      17.432      15.386    
  13.926      13.154      12.879      12.842      12.873      12.906      12.920      12.906      12.873      12.842    
  12.879      13.154      13.926      15.386      17.432      20.619      26.950      36.745      47.994      57.107    
  103.00      96.775      80.442      59.662      40.513      26.950      19.700      16.458      14.268      12.879    
  12.136      11.735      11.507      11.397      11.368      11.397      11.507      11.735      12.136      12.879    
  14.268      16.458      19.700      26.950      40.513      59.662      80.442      96.775      156.53      147.13    
  122.29      90.195      59.662      36.745      23.384      17.568      14.743      12.842      11.735      11.080    
  10.687      10.504      10.458      10.504      10.687      11.080      11.735      12.842      14.743      17.568    
  23.384      36.745      59.662      90.195      122.29      147.13      211.38      198.83      165.58      122.29    
  80.442      47.994      27.989      18.785      15.158      12.873      11.507      10.687      10.207      10.001    
  9.9573      10.001      10.207      10.687      11.507      12.873      15.158      18.785      27.989      47.994    
  80.442      122.29      165.58      198.83      253.37      238.43      198.83      147.13      96.775      57.107    
  31.921      19.858      15.418      12.906      11.397      10.504      10.001      9.8074      9.7761      9.8074    
  10.001      10.504      11.397      12.906      15.418      19.858      31.921      57.107      96.775      147.13    
  198.83      238.43      199.94      188.04      156.53      115.56      76.047      45.579      26.978      18.519    
  15.075      12.877      11.600      10.867      10.458      10.296      10.267      10.296      10.458      10.867    
  11.600      12.877      15.075      18.519      26.978      45.579      76.047      115.56      156.53      188.04    
  188.04      176.82      147.13      108.58      71.505      43.101      25.950      18.247      14.991      12.868    
  11.632      10.914      10.504      10.332      10.296      10.332      10.504      10.914      11.632      12.868    
  14.991      18.247      25.950      43.101      71.505      108.58      147.13      176.82      156.53      147.13    
  122.29      90.195      59.662      36.745      23.384      17.568      14.743      12.842      11.735      11.080    
  10.687      10.504      10.458      10.504      10.687      11.080      11.735      12.842      14.743      17.568    
  23.384      36.745      59.662      90.195      122.29      147.13      115.56      108.58      90.195      66.699    
  44.837      29.081      20.458      16.717      14.365      12.812      11.926      11.403      11.080      10.914    