unknown system                          
   1.00000000000000     
     3.445083    0.000000    0.000000
     0.000000    3.445083    0.000000
     0.000000    0.000000    3.445083
   Fe
     4
Direct
  0.000000  0.000000  0.000000
  0.500000  0.500000  0.000000
  0.500000  0.000000  0.500000
  0.000000  0.500000  0.500000
 
   28   28   28
 0.34214919429E+03 0.32217232543E+03 0.26921166995E+03 0.19993868488E+03 0.13191242668E+03
 0.77211831034E+02 0.41026374167E+02 0.22532418909E+02 0.15860459363E+02 0.12992628006E+02
 0.11262275584E+02 0.10267151041E+02 0.97518392606E+01 0.96055560474E+01 0.96058489039E+01
 0.96055560474E+01 0.97518392606E+01 0.10267151041E+02 0.11262275584E+02 0.12992628006E+02
 0.15860459363E+02 0.22532418909E+02 0.41026374167E+02 0.77211831034E+02 0.13191242668E+03
 0.19993868488E+03 0.26921166995E+03 0.32217232543E+03 0.32217232543E+03 0.30333015922E+03
 0.25337325865E+03 0.18804023602E+03 0.12396110790E+03 0.72616513731E+02 0.38903285189E+02
 0.21886537912E+02 0.15767591248E+02 0.12970735501E+02 0.11278403913E+02 0.10296463506E+02
 0.97760637783E+01 0.96141155696E+01 0.96055560474E+01 0.96141155696E+01 0.97760637783E+01
 0.10296463506E+02 0.11278403913E+02 0.12970735501E+02 0.15767591248E+02 0.21886537912E+02
 0.38903285189E+02 0.72616513731E+02 0.12396110790E+03 0.18804023602E+03 0.25337325865E+03
 0.30333015922E+03 0.26921166995E+03 0.25337325865E+03 0.21138255373E+03 0.15653388346E+03
 0.10299615271E+03 0.60622140484E+02 0.33474142494E+02 0.20294784630E+02 0.15503600741E+02
 0.12919537265E+02 0.11367783454E+02 0.10458449586E+02 0.99573141478E+01 0.97760637783E+01
 0.97518392606E+01 0.97760637783E+01 0.99573141478E+01 0.10458449586E+02 0.11367783454E+02
 0.12919537265E+02 0.15503600741E+02 0.20294784630E+02 0.33474142494E+02 0.60622140484E+02
 0.10299615271E+03 0.15653388346E+03 0.21138255373E+03 0.25337325865E+03 0.19993868488E+03
 0.18804023602E+03 0.15653388346E+03 0.11556280447E+03 0.76047136495E+02 0.45578956606E+02
 0.26977929890E+02 0.18518739829E+02 0.15074735014E+02 0.12876974026E+02 0.11600408919E+02
 0.10866955795E+02 0.10458449586E+02 0.10296463506E+02 0.10267151041E+02 0.10296463506E+02
 0.10458449586E+02 0.10866955795E+02 0.11600408919E+02 0.12876974026E+02 0.15074735014E+02
 0.18518739829E+02 0.26977929890E+02 0.45578956606E+02 0.76047136495E+02 0.11556280447E+03
 0.15653388346E+03 0.18804023602E+03 0.13191242668E+03 0.12396110790E+03 0.10299615271E+03
 0.76047136495E+02 0.50705897507E+02 0.32099564329E+02 0.21624987140E+02 0.17109400808E+02
 0.14571175541E+02 0.12928144829E+02 0.12052790853E+02 0.11600408919E+02 0.11367783454E+02
 0.11278403913E+02 0.11262275584E+02 0.11278403913E+02 0.11367783454E+02 0.11600408919E+02
 0.12052790853E+02 0.12928144829E+02 0.14571175541E+02 0.17109400808E+02 0.21624987140E+02
 0.32099564329E+02 0.50705897507E+02 0.76047136495E+02 0.10299615271E+03 0.12396110790E+03
 0.77211831034E+02 0.72616513731E+02 0.60622140484E+02 0.45578956606E+02 0.32099564329E+02
 0.23000276758E+02 0.18376724193E+02 0.15951137250E+02 0.14215937470E+02 0.13273240909E+02
 0.12928144829E+02 0.12876974026E+02 0.12919537265E+02 0.12970735501E+02 0.12992628006E+02
 0.12970735501E+02 0.12919537265E+02 0.12876974026E+02 0.12928144829E+02 0.13273240909E+02
 0.14215937470E+02 0.15951137250E+02 0.18376724193E+02 0.23000276758E+02 0.32099564329E+02
 0.45578956606E+02 0.60622140484E+02 0.72616513731E+02 0.41026374167E+02 0.38903285189E+02
 0.33474142494E+02 0.26977929890E+02 0.21624987140E+02 0.18376724193E+02 0.16481668613E+02
 0.15060200721E+02 0.14304089157E+02 0.14215937470E+02 0.14571175541E+02 0.15074735014E+02
 0.15503600741E+02 0.15767591248E+02 0.15860459363E+02 0.15767591248E+02 0.15503600741E+02
 0.15074735014E+02 0.14571175541E+02 0.14215937470E+02 0.14304089157E+02 0.15060200721E+02
 0.16481668613E+02 0.18376724193E+02 0.21624987140E+02 0.26977929890E+02 0.33474142494E+02
 0.38903285189E+02 0.22532418909E+02 0.21886537912E+02 0.20294784630E+02 0.18518739829E+02
 0.17109400808E+02 0.15951137250E+02 0.15060200721E+02 0.14725612681E+02 0.15060200721E+02
 0.15951137250E+02 0.17109400808E+02 0.18518739829E+02 0.20294784630E+02 0.21886537912E+02
 0.22532418909E+02 0.21886537912E+02 0.20294784630E+02 0.18518739829E+02 0.17109400808E+02
 0.15951137250E+02 0.15060200721E+02 0.14725612681E+02 0.15060200721E+02 0.15951137250E+02
 0.17109400808E+02 0.18518739829E+02 0.20294784630E+02 0.21886537912E+02 0.15860459363E+02
 0.15767591248E+02 0.15503600741E+02 0.15074735014E+02 0.14571175541E+02 0.14215937470E+02
 0.14304089157E+02 0.15060200721E+02 0.16481668613E+02 0.18376724193E+02 0.21624987140E+02
 0.26977929890E+02 0.33474142494E+02 0.38903285189E+02 0.41026374167E+02 0.38903285189E+02
 0.33474142494E+02 0.26977929890E+02 0.21624987140E+02 0.18376724193E+02 0.16481668613E+02
 0.15060200721E+02 0.14304089157E+02 0.14215937470E+02 0.14571175541E+02 0.15074735014E+02
 0.15503600741E+02 0.15767591248E+02 0.12992628006E+02 0.12970735501E+02 0.12919537265E+02
 0.12876974026E+02 0.12928144829E+02 0.13273240909E+02 0.14215937470E+02 0.15951137250E+02
 0.18376724193E+02 0.23000276758E+02 0.32099564329E+02 0.45578956606E+02 0.60622140484E+02
 0.72616513731E+02 0.77211831034E+02 0.72616513731E+02 0.60622140484E+02 0.45578956606E+02
 0.32099564329E+02 0.23000276758E+02 0.18376724193E+02 0.15951137250E+02 0.14215937470E+02
 0.13273240909E+02 0.12928144829E+02 0.12876974026E+02 0.12919537265E+02 0.12970735501E+02
 0.11262275584E+02 0.11278403913E+02 0.11367783454E+02 0.11600408919E+02 0.12052790853E+02
 0.12928144829E+02 0.14571175541E+02 0.17109400808E+02 0.21624987140E+02 0.32099564329E+02
 0.50705897507E+02 0.76047136495E+02 0.10299615271E+03 0.12396110790E+03 0.13191242668E+03
 0.12396110790E+03 0.10299615271E+03 0.76047136495E+02 0.50705897507E+02 0.32099564329E+02
 0.21624987140E+02 0.17109400808E+02 0.14571175541E+02 0.12928144829E+02 0.12052790853E+02
 0.11600408919E+02 0.11367783454E+02 0.11278403913E+02 0.10267151041E+02 0.10296463506E+02
 0.10458449586E+02 0.10866955795E+02 0.11600408919E+02 0.12876974026E+02 0.15074735014E+02
 0.18518739829E+02 0.26977929890E+02 0.45578956606E+02 0.76047136495E+02 0.11556280447E+03
 0.15653388346E+03 0.18804023602E+03 0.19993868488E+03 0.18804023602E+03 0.15653388346E+03
 0.11556280447E+03 0.76047136495E+02 0.45578956606E+02 0.26977929890E+02 0.18518739829E+02
 0.15074735014E+02 0.12876974026E+02 0.11600408919E+02 0.10866955795E+02 0.10458449586E+02
 0.10296463506E+02 0.97518392606E+01 0.97760637783E+01 0.99573141478E+01 0.10458449586E+02
 0.11367783454E+02 0.12919537265E+02 0.15503600741E+02 0.20294784630E+02 0.33474142494E+02
 0.60622140484E+02 0.10299615271E+03 0.15653388346E+03 0.21138255373E+03 0.25337325865E+03
 0.26921166995E+03 0.25337325865E+03 0.21138255373E+03 0.15653388346E+03 0.10299615271E+03
 0.60622140484E+02 0.33474142494E+02 0.20294784630E+02 0.15503600741E+02 0.12919537265E+02
 0.11367783454E+02 0.10458449586E+02 0.99573141478E+01 0.97760637783E+01 0.96055560474E+01
 0.96141155696E+01 0.97760637783E+01 0.10296463506E+02 0.11278403913E+02 0.12970735501E+02
 0.15767591248E+02 0.21886537912E+02 0.38903285189E+02 0.72616513731E+02 0.12396110790E+03
 0.18804023602E+03 0.25337325865E+03 0.30333015922E+03 0.32217232543E+03 0.30333015922E+03
 0.25337325865E+03 0.18804023602E+03 0.12396110790E+03 0.72616513731E+02 0.38903285189E+02
 0.21886537912E+02 0.15767591248E+02 0.12970735501E+02 0.11278403913E+02 0.10296463506E+02
 0.97760637783E+01 0.96141155696E+01 0.96058489039E+01 0.96055560474E+01 0.97518392606E+01
 0.10267151041E+02 0.11262275584E+02 0.12992628006E+02 0.15860459363E+02 0.22532418909E+02
 0.41026374167E+02 0.77211831034E+02 0.13191242668E+03 0.19993868488E+03 0.26921166995E+03
 0.32217232543E+03 0.34214919429E+03 0.32217232543E+03 0.26921166995E+03 0.19993868488E+03
 0.13191242668E+03 0.77211831034E+02 0.41026374167E+02 0.22532418909E+02 0.15860459363E+02
 0.12992628006E+02 0.11262275584E+02 0.10267151041E+02 0.97518392606E+01 0.96055560474E+01
 0.96055560474E+01 0.96141155696E+01 0.97760637783E+01 0.10296463506E+02 0.11278403913E+02
 0.12970735501E+02 0.15767591248E+02 0.21886537912E+02 0.38903285189E+02 0.72616513731E+02
 0.12396110790E+03 0.18804023602E+03 0.25337325865E+03 0.30333015922E+03 0.32217232543E+03
 0.30333015922E+03 0.25337325865E+03 0.18804023602E+03 0.12396110790E+03 0.72616513731E+02
 0.38903285189E+02 0.21886537912E+02 0.15767591248E+02 0.12970735501E+02 0.11278403913E+02
 0.10296463506E+02 0.97760637783E+01 0.96141155696E+01 0.97518392606E+01 0.97760637783E+01
 0.99573141478E+01 0.10458449586E+02 0.11367783454E+02 0.12919537265E+02 0.15503600741E+02
 0.20294784630E+02 0.33474142494E+02 0.60622140484E+02 0.10299615271E+03 0.15653388346E+03
 0.21138255373E+03 0.25337325865E+03 0.26921166995E+03 0.25337325865E+03 0.21138255373E+03
 0.15653388346E+03 0.10299615271E+03 0.60622140484E+02 0.33474142494E+02 0.20294784630E+02
 0.15503600741E+02 0.12919537265E+02 0.11367783454E+02 0.10458449586E+02 0.99573141478E+01
 0.97760637783E+01 0.10267151041E+02 0.10296463506E+02 0.10458449586E+02 0.10866955795E+02
 0.11600408919E+02 0.12876974026E+02 0.15074735014E+02 0.18518739829E+02 0.26977929890E+02
 0.45578956606E+02 0.76047136495E+02 0.11556280447E+03 0.15653388346E+03 0.18804023602E+03
 0.19993868488E+03 0.18804023602E+03 0.15653388346E+03 0.11556280447E+03 0.76047136495E+02
 0.45578956606E+02 0.26977929890E+02 0.18518739829E+02 0.15074735014E+02 0.12876974026E+02
 0.11600408919E+02 0.10866955795E+02 0.10458449586E+02 0.10296463506E+02 0.11262275584E+02
 0.11278403913E+02 0.11367783454E+02 0.11600408919E+02 0.12052790853E+02 0.12928144829E+02
 0.14571175541E+02 0.17109400808E+02 0.21624987140E+02 0.32099564329E+02 0.50705897507E+02
 0.76047136495E+02 0.10299615271E+03 0.12396110790E+03 0.13191242668E+03 0.12396110790E+03
 0.10299615271E+03 0.76047136495E+02 0.50705897507E+02 0.32099564329E+02 0.21624987140E+02
 0.17109400808E+02 0.14571175541E+02 0.12928144829E+02 0.12052790853E+02 0.11600408919E+02
 0.11367783454E+02 0.11278403913E+02 0.12992628006E+02 0.12970735501E+02 0.12919537265E+02
 0.12876974026E+02 0.12928144829E+02 0.13273240909E+02 0.14215937470E+02 0.15951137250E+02
 0.18376724193E+02 0.23000276758E+02 0.32099564329E+02 0.45578956606E+02 0.60622140484E+02
 0.72616513731E+02 0.77211831034E+02 0.72616513731E+02 0.60622140484E+02 0.45578956606E+02
 0.32099564329E+02 0.23000276758E+02 0.18376724193E+02 0.15951137250E+02 0.14215937470E+02
 0.13273240909E+02 0.12928144829E+02 0.12876974026E+02 0.12919537265E+02 0.12970735501E+02
 0.15860459363E+02 0.15767591248E+02 0.15503600741E+02 0.15074735014E+02 0.14571175541E+02
 0.14215937470E+02 0.14304089157E+02 0.15060200721E+02 0.16481668613E+02 0.18376724193E+02
 0.21624987140E+02 0.26977929890E+02 0.33474142494E+02 0.38903285189E+02 0.41026374167E+02
 0.38903285189E+02 0.33474142494E+02 0.26977929890E+02 0.21624987140E+02 0.18376724193E+02
 0.16481668613E+02 0.15060200721E+02 0.14304089157E+02 0.14215937470E+02 0.14571175541E+02
 0.15074735014E+02 0.15503600741E+02 0.15767591248E+02 0.22532418909E+02 0.21886537912E+02
 0.20294784630E+02 0.18518739829E+02 0.17109400808E+02 0.15951137250E+02 0.15060200721E+02
 0.14725612681E+02 0.15060200721E+02 0.15951137250E+02 0.17109400808E+02 0.18518739829E+02
 0.20294784630E+02 0.21886537912E+02 0.22532418909E+02 0.21886537912E+02 0.20294784630E+02
 0.18518739829E+02 0.17109400808E+02 0.15951137250E+02 0.15060200721E+02 0.14725612681E+02
 0.15060200721E+02 0.15951137250E+02 0.17109400808E+02 0.18518739829E+02 0.20294784630E+02
 0.21886537912E+02 0.41026374167E+02 0.38903285189E+02 0.33474142494E+02 0.26977929890E+02
 0.21624987140E+02 0.18376724193E+02 0.16481668613E+02 0.15060200721E+02 0.14304089157E+02
 0.14215937470E+02 0.14571175541E+02 0.15074735014E+02 0.15503600741E+02 0.15767591248E+02
 0.15860459363E+02 0.15767591248E+02 0.15503600741E+02 0.15074735014E+02 0.14571175541E+02
 0.14215937470E+02 0.14304089157E+02 0.15060200721E+02 0.16481668613E+02 0.18376724193E+02
 0.21624987140E+02 0.26977929890E+02 0.33474142494E+02 0.38903285189E+02 0.77211831034E+02
 0.72616513731E+02 0.60622140484E+02 0.45578956606E+02 0.32099564329E+02 0.23000276758E+02
 0.18376724193E+02 0.15951137250E+02 0.14215937470E+02 0.13273240909E+02 0.12928144829E+02
 0.12876974026E+02 0.12919537265E+02 0.12970735501E+02 0.12992628006E+02 0.12970735501E+02
 0.12919537265E+02 0.12876974026E+02 0.12928144829E+02 0.13273240909E+02 0.14215937470E+02
 0.15951137250E+02 0.18376724193E+02 0.23000276758E+02 0.32099564329E+02 0.45578956606E+02
 0.60622140484E+02 0.72616513731E+02 0.13191242668E+03 0.12396110790E+03 0.10299615271E+03
 0.76047136495E+02 0.50705897507E+02 0.32099564329E+02 0.21624987140E+02 0.17109400808E+02
 0.14571175541E+02 0.12928144829E+02 0.12052790853E+02 0.11600408919E+02 0.11367783454E+02
 0.11278403913E+02 0.11262275584E+02 0.11278403913E+02 0.11367783454E+02 0.11600408919E+02
 0.12052790853E+02 0.12928144829E+02 0.14571175541E+02 0.17109400808E+02 0.21624987140E+02
 0.32099564329E+02 0.50705897507E+02 0.76047136495E+02 0.10299615271E+03 0.12396110790E+03
 0.19993868488E+03 0.18804023602E+03 0.15653388346E+03 0.11556280447E+03 0.76047136495E+02
 0.45578956606E+02 0.26977929890E+02 0.18518739829E+02 0.15074735014E+02 0.12876974026E+02
 0.11600408919E+02 0.10866955795E+02 0.10458449586E+02 0.10296463506E+02 0.10267151041E+02
 0.10296463506E+02 0.10458449586E+02 0.10866955795E+02 0.11600408919E+02 0.12876974026E+02
 0.15074735014E+02 0.18518739829E+02 0.26977929890E+02 0.45578956606E+02 0.76047136495E+02
 0.11556280447E+03 0.15653388346E+03 0.18804023602E+03 0.26921166995E+03 0.25337325865E+03
 0.21138255373E+03 0.15653388346E+03 0.10299615271E+03 0.60622140484E+02 0.33474142494E+02
 0.20294784630E+02 0.15503600741E+02 0.12919537265E+02 0.11367783454E+02 0.10458449586E+02
 0.99573141478E+01 0.97760637783E+01 0.97518392606E+01 0.97760637783E+01 0.99573141478E+01
 0.10458449586E+02 0.11367783454E+02 0.12919537265E+02 0.15503600741E+02 0.20294784630E+02
 0.33474142494E+02 0.60622140484E+02 0.10299615271E+03 0.15653388346E+03 0.21138255373E+03
 0.25337325865E+03 0.32217232543E+03 0.30333015922E+03 0.25337325865E+03 0.18804023602E+03
 0.12396110790E+03 0.72616513731E+02 0.38903285189E+02 0.21886537912E+02 0.15767591248E+02
 0.12970735501E+02 0.11278403913E+02 0.10296463506E+02 0.97760637783E+01 0.96141155696E+01
 0.96055560474E+01 0.96141155696E+01 0.97760637783E+01 0.10296463506E+02 0.11278403913E+02
 0.12970735501E+02 0.15767591248E+02 0.21886537912E+02 0.38903285189E+02 0.72616513731E+02
 0.12396110790E+03 0.18804023602E+03 0.25337325865E+03 0.30333015922E+03 0.32217232543E+03
 0.30333015922E+03 0.25337325865E+03 0.18804023602E+03 0.12396110790E+03 0.72616513731E+02
 0.38903285189E+02 0.21886537912E+02 0.15767591248E+02 0.12970735501E+02 0.11278403913E+02
 0.10296463506E+02 0.97760637783E+01 0.96141155696E+01 0.96055560474E+01 0.96141155696E+01
 0.97760637783E+01 0.10296463506E+02 0.11278403913E+02 0.12970735501E+02 0.15767591248E+02
 0.21886537912E+02 0.38903285189E+02 0.72616513731E+02 0.12396110790E+03 0.18804023602E+03
 0.25337325865E+03 0.30333015922E+03 0.30333015922E+03 0.28555685207E+03 0.23843249418E+03
 0.17682217448E+03 0.11648036384E+03 0.68315356633E+02 0.36936913737E+02 0.21300341818E+02
 0.15679205449E+02 0.12951556437E+02 0.11299081273E+02 0.10331669592E+02 0.98074395765E+01
 0.96309991070E+01 0.96141155696E+01 0.96309991070E+01 0.98074395765E+01 0.10331669592E+02
 0.11299081273E+02 0.12951556437E+02 0.15679205449E+02 0.21300341818E+02 0.36936913737E+02
 0.68315356633E+02 0.11648036384E+03 0.17682217448E+03 0.23843249418E+03 0.28555685207E+03
 0.25337325865E+03 0.23843249418E+03 0.19882790173E+03 0.14713186696E+03 0.96775116030E+02
 0.57106778480E+02 0.31920691577E+02 0.19858031870E+02 0.15417797500E+02 0.12906148647E+02
 0.11396793703E+02 0.10503753394E+02 0.10000815995E+02 0.98074395765E+01 0.97760637783E+01
 0.98074395765E+01 0.10000815995E+02 0.10503753394E+02 0.11396793703E+02 0.12906148647E+02
 0.15417797500E+02 0.19858031870E+02 0.31920691577E+02 0.57106778480E+02 0.96775116030E+02
 0.14713186696E+03 0.19882790173E+03 0.23843249418E+03 0.18804023602E+03 0.17682217448E+03
 0.14713186696E+03 0.10857545671E+03 0.71505105768E+02 0.43100972583E+02 0.25949758430E+02
 0.18247302962E+02 0.14990609793E+02 0.12867627785E+02 0.11631855715E+02 0.10913605302E+02
 0.10503753394E+02 0.10331669592E+02 0.10296463506E+02 0.10331669592E+02 0.10503753394E+02
 0.10913605302E+02 0.11631855715E+02 0.12867627785E+02 0.14990609793E+02 0.18247302962E+02
 0.25949758430E+02 0.43100972583E+02 0.71505105768E+02 0.10857545671E+03 0.14713186696E+03
 0.17682217448E+03 0.12396110790E+03 0.11648036384E+03 0.96775116030E+02 0.71505105768E+02
 0.47854199217E+02 0.30636031301E+02 0.21068048963E+02 0.16936656629E+02 0.14492038775E+02
 0.12915619104E+02 0.12073496767E+02 0.11631855715E+02 0.11396793703E+02 0.11299081273E+02
 0.11278403913E+02 0.11299081273E+02 0.11396793703E+02 0.11631855715E+02 0.12073496767E+02
 0.12915619104E+02 0.14492038775E+02 0.16936656629E+02 0.21068048963E+02 0.30636031301E+02
 0.47854199217E+02 0.71505105768E+02 0.96775116030E+02 0.11648036384E+03 0.72616513731E+02
 0.68315356633E+02 0.57106778480E+02 0.43100972583E+02 0.30636031301E+02 0.22311837094E+02
 0.18110191952E+02 0.15799125803E+02 0.14137590270E+02 0.13241458559E+02 0.12915619104E+02
 0.12867627785E+02 0.12906148647E+02 0.12951556437E+02 0.12970735501E+02 0.12951556437E+02
 0.12906148647E+02 0.12867627785E+02 0.12915619104E+02 0.13241458559E+02 0.14137590270E+02
 0.15799125803E+02 0.18110191952E+02 0.22311837094E+02 0.30636031301E+02 0.43100972583E+02
 0.57106778480E+02 0.68315356633E+02 0.38903285189E+02 0.36936913737E+02 0.31920691577E+02
 0.25949758430E+02 0.21068048963E+02 0.18110191952E+02 0.16298052950E+02 0.14928635109E+02
 0.14210465469E+02 0.14137590270E+02 0.14492038775E+02 0.14990609793E+02 0.15417797500E+02
 0.15679205449E+02 0.15767591248E+02 0.15679205449E+02 0.15417797500E+02 0.14990609793E+02
 0.14492038775E+02 0.14137590270E+02 0.14210465469E+02 0.14928635109E+02 0.16298052950E+02
 0.18110191952E+02 0.21068048963E+02 0.25949758430E+02 0.31920691577E+02 0.36936913737E+02
 0.21886537912E+02 0.21300341818E+02 0.19858031870E+02 0.18247302962E+02 0.16936656629E+02
 0.15799125803E+02 0.14928635109E+02 0.14602986576E+02 0.14928635109E+02 0.15799125803E+02
 0.16936656629E+02 0.18247302962E+02 0.19858031870E+02 0.21300341818E+02 0.21886537912E+02
 0.21300341818E+02 0.19858031870E+02 0.18247302962E+02 0.16936656629E+02 0.15799125803E+02
 0.14928635109E+02 0.14602986576E+02 0.14928635109E+02 0.15799125803E+02 0.16936656629E+02
 0.18247302962E+02 0.19858031870E+02 0.21300341818E+02 0.15767591248E+02 0.15679205449E+02
 0.15417797500E+02 0.14990609793E+02 0.14492038775E+02 0.14137590270E+02 0.14210465469E+02
 0.14928635109E+02 0.16298052950E+02 0.18110191952E+02 0.21068048963E+02 0.25949758430E+02
 0.31920691577E+02 0.36936913737E+02 0.38903285189E+02 0.36936913737E+02 0.31920691577E+02
 0.25949758430E+02 0.21068048963E+02 0.18110191952E+02 0.16298052950E+02 0.14928635109E+02
 0.14210465469E+02 0.14137590270E+02 0.14492038775E+02 0.14990609793E+02 0.15417797500E+02
 0.15679205449E+02 0.12970735501E+02 0.12951556437E+02 0.12906148647E+02 0.12867627785E+02
 0.12915619104E+02 0.13241458559E+02 0.14137590270E+02 0.15799125803E+02 0.18110191952E+02
 0.22311837094E+02 0.30636031301E+02 0.43100972583E+02 0.57106778480E+02 0.68315356633E+02
 0.72616513731E+02 0.68315356633E+02 0.57106778480E+02 0.43100972583E+02 0.30636031301E+02
 0.22311837094E+02 0.18110191952E+02 0.15799125803E+02 0.14137590270E+02 0.13241458559E+02
 0.12915619104E+02 0.12867627785E+02 0.12906148647E+02 0.12951556437E+02 0.11278403913E+02
 0.11299081273E+02 0.11396793703E+02 0.11631855715E+02 0.12073496767E+02 0.12915619104E+02
 0.14492038775E+02 0.16936656629E+02 0.21068048963E+02 0.30636031301E+02 0.47854199217E+02
 0.71505105768E+02 0.96775116030E+02 0.11648036384E+03 0.12396110790E+03 0.11648036384E+03
 0.96775116030E+02 0.71505105768E+02 0.47854199217E+02 0.30636031301E+02 0.21068048963E+02
 0.16936656629E+02 0.14492038775E+02 0.12915619104E+02 0.12073496767E+02 0.11631855715E+02
 0.11396793703E+02 0.11299081273E+02 0.10296463506E+02 0.10331669592E+02 0.10503753394E+02
 0.10913605302E+02 0.11631855715E+02 0.12867627785E+02 0.14990609793E+02 0.18247302962E+02
 0.25949758430E+02 0.43100972583E+02 0.71505105768E+02 0.10857545671E+03 0.14713186696E+03
 0.17682217448E+03 0.18804023602E+03 0.17682217448E+03 0.14713186696E+03 0.10857545671E+03
 0.71505105768E+02 0.43100972583E+02 0.25949758430E+02 0.18247302962E+02 0.14990609793E+02
 0.12867627785E+02 0.11631855715E+02 0.10913605302E+02 0.10503753394E+02 0.10331669592E+02
 0.97760637783E+01 0.98074395765E+01 0.10000815995E+02 0.10503753394E+02 0.11396793703E+02
 0.12906148647E+02 0.15417797500E+02 0.19858031870E+02 0.31920691577E+02 0.57106778480E+02
 0.96775116030E+02 0.14713186696E+03 0.19882790173E+03 0.23843249418E+03 0.25337325865E+03
 0.23843249418E+03 0.19882790173E+03 0.14713186696E+03 0.96775116030E+02 0.57106778480E+02
 0.31920691577E+02 0.19858031870E+02 0.15417797500E+02 0.12906148647E+02 0.11396793703E+02
 0.10503753394E+02 0.10000815995E+02 0.98074395765E+01 0.96141155696E+01 0.96309991070E+01
 0.98074395765E+01 0.10331669592E+02 0.11299081273E+02 0.12951556437E+02 0.15679205449E+02
 0.21300341818E+02 0.36936913737E+02 0.68315356633E+02 0.11648036384E+03 0.17682217448E+03
 0.23843249418E+03 0.28555685207E+03 0.30333015922E+03 0.28555685207E+03 0.23843249418E+03
 0.17682217448E+03 0.11648036384E+03 0.68315356633E+02 0.36936913737E+02 0.21300341818E+02
 0.15679205449E+02 0.12951556437E+02 0.11299081273E+02 0.10331669592E+02 0.98074395765E+01
 0.96309991070E+01 0.96055560474E+01 0.96141155696E+01 0.97760637783E+01 0.10296463506E+02
 0.11278403913E+02 0.12970735501E+02 0.15767591248E+02 0.21886537912E+02 0.38903285189E+02
 0.72616513731E+02 0.12396110790E+03 0.18804023602E+03 0.25337325865E+03 0.30333015922E+03
 0.32217232543E+03 0.30333015922E+03 0.25337325865E+03 0.18804023602E+03 0.12396110790E+03
 0.72616513731E+02 0.38903285189E+02 0.21886537912E+02 0.15767591248E+02 0.12970735501E+02
 0.11278403913E+02 0.10296463506E+02 0.97760637783E+01 0.96141155696E+01 0.96141155696E+01
 0.96309991070E+01 0.98074395765E+01 0.10331669592E+02 0.11299081273E+02 0.12951556437E+02
 0.15679205449E+02 0.21300341818E+02 0.36936913737E+02 0.68315356633E+02 0.11648036384E+03
 0.17682217448E+03 0.23843249418E+03 0.28555685207E+03 0.30333015922E+03 0.28555685207E+03
 0.23843249418E+03 0.17682217448E+03 0.11648036384E+03 0.68315356633E+02 0.36936913737E+02
 0.21300341818E+02 0.15679205449E+02 0.12951556437E+02 0.11299081273E+02 0.10331669592E+02
 0.98074395765E+01 0.96309991070E+01 0.97760637783E+01 0.98074395765E+01 0.10000815995E+02
 0.10503753394E+02 0.11396793703E+02 0.12906148647E+02 0.15417797500E+02 0.19858031870E+02
 0.31920691577E+02 0.57106778480E+02 0.96775116030E+02 0.14713186696E+03 0.19882790173E+03
 0.23843249418E+03 0.25337325865E+03 0.23843249418E+03 0.19882790173E+03 0.14713186696E+03
 0.96775116030E+02 0.57106778480E+02 0.31920691577E+02 0.19858031870E+02 0.15417797500E+02
 0.12906148647E+02 0.11396793703E+02 0.10503753394E+02 0.10000815995E+02 0.98074395765E+01
 0.10296463506E+02 0.10331669592E+02 0.10503753394E+02 0.10913605302E+02 0.11631855715E+02
 0.12867627785E+02 0.14990609793E+02 0.18247302962E+02 0.25949758430E+02 0.43100972583E+02
 0.71505105768E+02 0.10857545671E+03 0.14713186696E+03 0.17682217448E+03 0.18804023602E+03
 0.17682217448E+03 0.14713186696E+03 0.10857545671E+03 0.71505105768E+02 0.43100972583E+02
 0.25949758430E+02 0.18247302962E+02 0.14990609793E+02 0.12867627785E+02 0.11631855715E+02
 0.10913605302E+02 0.10503753394E+02 0.10331669592E+02 0.11278403913E+02 0.11299081273E+02
 0.11396793703E+02 0.11631855715E+02 0.12073496767E+02 0.12915619104E+02 0.14492038775E+02
 0.16936656629E+02 0.21068048963E+02 0.30636031301E+02 0.47854199217E+02 0.71505105768E+02
 0.96775116030E+02 0.11648036384E+03 0.12396110790E+03 0.11648036384E+03 0.96775116030E+02
 0.71505105768E+02 0.47854199217E+02 0.30636031301E+02 0.21068048963E+02 0.16936656629E+02
 0.14492038775E+02 0.12915619104E+02 0.12073496767E+02 0.11631855715E+02 0.11396793703E+02
 0.11299081273E+02 0.12970735501E+02 0.12951556437E+02 0.12906148647E+02 0.12867627785E+02
 0.12915619104E+02 0.13241458559E+02 0.14137590270E+02 0.15799125803E+02 0.18110191952E+02
 0.22311837094E+02 0.30636031301E+02 0.43100972583E+02 0.57106778480E+02 0.68315356633E+02
 0.72616513731E+02 0.68315356633E+02 0.57106778480E+02 0.43100972583E+02 0.30636031301E+02
 0.22311837094E+02 0.18110191952E+02 0.15799125803E+02 0.14137590270E+02 0.13241458559E+02
 0.12915619104E+02 0.12867627785E+02 0.12906148647E+02 0.12951556437E+02 0.15767591248E+02
 0.15679205449E+02 0.15417797500E+02 0.14990609793E+02 0.14492038775E+02 0.14137590270E+02
 0.14210465469E+02 0.14928635109E+02 0.16298052950E+02 0.18110191952E+02 0.21068048963E+02
 0.25949758430E+02 0.31920691577E+02 0.36936913737E+02 0.38903285189E+02 0.36936913737E+02
 0.31920691577E+02 0.25949758430E+02 0.21068048963E+02 0.18110191952E+02 0.16298052950E+02
 0.14928635109E+02 0.14210465469E+02 0.14137590270E+02 0.14492038775E+02 0.14990609793E+02
 0.15417797500E+02 0.15679205449E+02 0.21886537912E+02 0.21300341818E+02 0.19858031870E+02
 0.18247302962E+02 0.16936656629E+02 0.15799125803E+02 0.14928635109E+02 0.14602986576E+02
 0.14928635109E+02 0.15799125803E+02 0.16936656629E+02 0.18247302962E+02 0.19858031870E+02
 0.21300341818E+02 0.21886537912E+02 0.21300341818E+02 0.19858031870E+02 0.18247302962E+02
 0.16936656629E+02 0.15799125803E+02 0.14928635109E+02 0.14602986576E+02 0.14928635109E+02
 0.15799125803E+02 0.16936656629E+02 0.18247302962E+02 0.19858031870E+02 0.21300341818E+02
 0.38903285189E+02 0.36936913737E+02 0.31920691577E+02 0.25949758430E+02 0.21068048963E+02
 0.18110191952E+02 0.16298052950E+02 0.14928635109E+02 0.14210465469E+02 0.14137590270E+02
 0.14492038775E+02 0.14990609793E+02 0.15417797500E+02 0.15679205449E+02 0.15767591248E+02
 0.15679205449E+02 0.15417797500E+02 0.14990609793E+02 0.14492038775E+02 0.14137590270E+02
 0.14210465469E+02 0.14928635109E+02 0.16298052950E+02 0.18110191952E+02 0.21068048963E+02
 0.25949758430E+02 0.31920691577E+02 0.36936913737E+02 0.72616513731E+02 0.68315356633E+02
 0.57106778480E+02 0.43100972583E+02 0.30636031301E+02 0.22311837094E+02 0.18110191952E+02
 0.15799125803E+02 0.14137590270E+02 0.13241458559E+02 0.12915619104E+02 0.12867627785E+02
 0.12906148647E+02 0.12951556437E+02 0.12970735501E+02 0.12951556437E+02 0.12906148647E+02
 0.12867627785E+02 0.12915619104E+02 0.13241458559E+02 0.14137590270E+02 0.15799125803E+02
 0.18110191952E+02 0.22311837094E+02 0.30636031301E+02 0.43100972583E+02 0.57106778480E+02
 0.68315356633E+02 0.12396110790E+03 0.11648036384E+03 0.96775116030E+02 0.71505105768E+02
 0.47854199217E+02 0.30636031301E+02 0.21068048963E+02 0.16936656629E+02 0.14492038775E+02
 0.12915619104E+02 0.12073496767E+02 0.11631855715E+02 0.11396793703E+02 0.11299081273E+02
 0.11278403913E+02 0.11299081273E+02 0.11396793703E+02 0.11631855715E+02 0.12073496767E+02
 0.12915619104E+02 0.14492038775E+02 0.16936656629E+02 0.21068048963E+02 0.30636031301E+02
 0.47854199217E+02 0.71505105768E+02 0.96775116030E+02 0.11648036384E+03 0.18804023602E+03
 0.17682217448E+03 0.14713186696E+03 0.10857545671E+03 0.71505105768E+02 0.43100972583E+02
 0.25949758430E+02 0.18247302962E+02 0.14990609793E+02 0.12867627785E+02 0.11631855715E+02
 0.10913605302E+02 0.10503753394E+02 0.10331669592E+02 0.10296463506E+02 0.10331669592E+02
 0.10503753394E+02 0.10913605302E+02 0.11631855715E+02 0.12867627785E+02 0.14990609793E+02
 0.18247302962E+02 0.25949758430E+02 0.43100972583E+02 0.71505105768E+02 0.10857545671E+03
 0.14713186696E+03 0.17682217448E+03 0.25337325865E+03 0.23843249418E+03 0.19882790173E+03
 0.14713186696E+03 0.96775116030E+02 0.57106778480E+02 0.31920691577E+02 0.19858031870E+02
 0.15417797500E+02 0.12906148647E+02 0.11396793703E+02 0.10503753394E+02 0.10000815995E+02
 0.98074395765E+01 0.97760637783E+01 0.98074395765E+01 0.10000815995E+02 0.10503753394E+02
 0.11396793703E+02 0.12906148647E+02 0.15417797500E+02 0.19858031870E+02 0.31920691577E+02
 0.57106778480E+02 0.96775116030E+02 0.14713186696E+03 0.19882790173E+03 0.23843249418E+03
 0.30333015922E+03 0.28555685207E+03 0.23843249418E+03 0.17682217448E+03 0.11648036384E+03
 0.68315356633E+02 0.36936913737E+02 0.21300341818E+02 0.15679205449E+02 0.12951556437E+02
 0.11299081273E+02 0.10331669592E+02 0.98074395765E+01 0.96309991070E+01 0.96141155696E+01
 0.96309991070E+01 0.98074395765E+01 0.10331669592E+02 0.11299081273E+02 0.12951556437E+02
 0.15679205449E+02 0.21300341818E+02 0.36936913737E+02 0.68315356633E+02 0.11648036384E+03
 0.17682217448E+03 0.23843249418E+03 0.28555685207E+03 0.26921166995E+03 0.25337325865E+03
 0.21138255373E+03 0.15653388346E+03 0.10299615271E+03 0.60622140484E+02 0.33474142494E+02
 0.20294784630E+02 0.15503600741E+02 0.12919537265E+02 0.11367783454E+02 0.10458449586E+02
 0.99573141478E+01 0.97760637783E+01 0.97518392606E+01 0.97760637783E+01 0.99573141478E+01
 0.10458449586E+02 0.11367783454E+02 0.12919537265E+02 0.15503600741E+02 0.20294784630E+02
 0.33474142494E+02 0.60622140484E+02 0.10299615271E+03 0.15653388346E+03 0.21138255373E+03
 0.25337325865E+03 0.25337325865E+03 0.23843249418E+03 0.19882790173E+03 0.14713186696E+03
 0.96775116030E+02 0.57106778480E+02 0.31920691577E+02 0.19858031870E+02 0.15417797500E+02
 0.12906148647E+02 0.11396793703E+02 0.10503753394E+02 0.10000815995E+02 0.98074395765E+01
 0.97760637783E+01 0.98074395765E+01 0.10000815995E+02 0.10503753394E+02 0.11396793703E+02
 0.12906148647E+02 0.15417797500E+02 0.19858031870E+02 0.31920691577E+02 0.57106778480E+02
 0.96775116030E+02 0.14713186696E+03 0.19882790173E+03 0.23843249418E+03 0.21138255373E+03