   4   4   0   0
  0.1022208E+02  0.3445083E-09  0.3445083E-09  0.3445083E-09  0.5000000E-15
  1.000000000000000E-004
  CAR 
 unknown system                          
     38.23070404     -4.03410919  301      6.70873508      1.00000000
     -4.034  0.0000E+00  0.0000E+00
     -3.893  0.0000E+00  0.0000E+00
     -3.752 -0.2428E-32 -0.3420E-33
     -3.611 -0.2449E-27 -0.3450E-28
     -3.471 -0.9086E-23 -0.1280E-23
     -3.330 -0.1237E-18 -0.1743E-19
     -3.189 -0.5983E-15 -0.8431E-16
     -3.048 -0.1081E-11 -0.1524E-12
     -2.907 -0.7056E-09 -0.9956E-10
     -2.766 -0.1645E-06 -0.2328E-07
     -2.625 -0.1338E-04 -0.1908E-05
     -2.484 -0.3576E-03 -0.5228E-04
     -2.344 -0.2527E-02 -0.4082E-03
     -2.203  0.2878E-02 -0.2757E-05
     -2.062  0.4357E-01  0.6136E-02
     -1.921  0.5680E-01  0.1414E-01
     -1.780 -0.5914E-03  0.1405E-01
     -1.639  0.1669E-01  0.1641E-01
     -1.498  0.2660E+00  0.5388E-01
     -1.357  0.3436E+00  0.1023E+00
     -1.216  0.4893E-01  0.1092E+00
     -1.076  0.8709E-01  0.1215E+00
     -0.935  0.6345E+00  0.2109E+00
     -0.794  0.6015E+00  0.2956E+00
     -0.653  0.7614E-01  0.3063E+00
     -0.512  0.2084E+00  0.3357E+00
     -0.371  0.4944E+00  0.4053E+00
     -0.230  0.1950E+00  0.4328E+00
     -0.089  0.5351E-01  0.4403E+00
      0.051  0.3165E+00  0.4849E+00
      0.192  0.2229E+00  0.5163E+00
      0.333  0.1142E+00  0.5324E+00
      0.474  0.1040E+01  0.6789E+00
      0.615  0.1329E+01  0.8661E+00
      0.756  0.8277E+00  0.9827E+00
      0.897  0.1417E+01  0.1182E+01
      1.038  0.8578E+00  0.1303E+01
      1.179 -0.8650E-03  0.1303E+01
      1.319 -0.1212E+00  0.1286E+01
      1.460 -0.7993E-01  0.1275E+01
      1.601  0.1128E+01  0.1434E+01
      1.742  0.2914E+01  0.1844E+01
      1.883  0.2275E+01  0.2165E+01
      2.024  0.2065E+01  0.2456E+01
      2.165  0.4171E+01  0.3043E+01
      2.306  0.4851E+01  0.3727E+01
      2.446  0.3818E+01  0.4265E+01
      2.587  0.4885E+01  0.4953E+01
      2.728  0.3652E+01  0.5467E+01
      2.869  0.4136E+01  0.6050E+01
      3.010  0.7279E+01  0.7076E+01
      3.151  0.8707E+01  0.8302E+01
      3.292  0.5188E+01  0.9033E+01
      3.433  0.2930E+01  0.9446E+01
      3.574  0.6863E+01  0.1041E+02
      3.714  0.7664E+01  0.1149E+02
      3.855  0.4196E+01  0.1208E+02
      3.996  0.2412E+01  0.1242E+02
      4.137  0.3896E+01  0.1297E+02
      4.278  0.7286E+01  0.1400E+02
      4.419  0.7497E+01  0.1505E+02
      4.560  0.4353E+01  0.1567E+02
      4.701  0.7287E+01  0.1669E+02
      4.842  0.1099E+02  0.1824E+02
      4.982  0.7946E+01  0.1936E+02
      5.123  0.7372E+01  0.2040E+02
      5.264  0.8151E+01  0.2155E+02
      5.405  0.8178E+01  0.2270E+02
      5.546  0.6853E+01  0.2367E+02
      5.687  0.6252E+01  0.2455E+02
      5.828  0.7565E+01  0.2561E+02
      5.969  0.8457E+01  0.2681E+02
      6.109  0.7426E+01  0.2785E+02
      6.250  0.7468E+01  0.2890E+02
      6.391  0.5701E+01  0.2971E+02
      6.532  0.4291E+01  0.3031E+02
      6.673  0.8914E+01  0.3157E+02
      6.814  0.1191E+02  0.3325E+02
      6.955  0.6641E+01  0.3418E+02
      7.096  0.2958E+01  0.3460E+02
      7.237  0.4929E+01  0.3529E+02
      7.377  0.7855E+01  0.3640E+02
      7.518  0.1090E+02  0.3793E+02
      7.659  0.1294E+02  0.3976E+02
      7.800  0.8184E+01  0.4091E+02
      7.941  0.4676E+01  0.4157E+02
      8.082  0.4394E+01  0.4219E+02
      8.223  0.3751E+01  0.4272E+02
      8.364  0.1799E+01  0.4297E+02
      8.504  0.6634E-01  0.4298E+02
      8.645 -0.1461E+00  0.4296E+02
      8.786 -0.8270E-01  0.4295E+02
      8.927  0.4762E+00  0.4301E+02
      9.068  0.1426E+01  0.4321E+02
      9.209  0.7513E+00  0.4332E+02
      9.350  0.8628E+00  0.4344E+02
      9.491  0.3166E+01  0.4389E+02
      9.632  0.3172E+01  0.4433E+02
      9.772  0.1116E+01  0.4449E+02
      9.913  0.3385E+00  0.4454E+02
     10.054  0.1446E+01  0.4474E+02
     10.195  0.1264E+01  0.4492E+02
     10.336  0.1292E+00  0.4494E+02
     10.477 -0.9487E-01  0.4493E+02
     10.618 -0.8782E-01  0.4491E+02
     10.759  0.3089E+00  0.4496E+02
     10.899  0.1366E+01  0.4515E+02
     11.040  0.1707E+01  0.4539E+02
     11.181  0.1584E+01  0.4561E+02
     11.322  0.6266E+00  0.4570E+02
     11.463  0.4987E-01  0.4571E+02
     11.604  0.5528E+00  0.4579E+02
     11.745  0.7205E+00  0.4589E+02
     11.886  0.6672E+00  0.4598E+02
     12.027  0.4525E+00  0.4605E+02
     12.167  0.1057E+01  0.4620E+02
     12.308  0.3591E+01  0.4670E+02
     12.449  0.3362E+01  0.4717E+02
     12.590  0.6311E+00  0.4726E+02
     12.731 -0.1887E+00  0.4724E+02
     12.872 -0.8178E-01  0.4723E+02
     13.013  0.1798E+00  0.4725E+02
     13.154  0.7113E+00  0.4735E+02
     13.294  0.5190E+00  0.4742E+02
     13.435  0.3242E-01  0.4743E+02
     13.576 -0.3005E-01  0.4742E+02
     13.717 -0.4194E-02  0.4742E+02
     13.858 -0.1624E-03  0.4742E+02
     13.999 -0.5031E-03  0.4742E+02
     14.140 -0.1171E-01  0.4742E+02
     14.281 -0.6945E-01  0.4741E+02
     14.422  0.1152E+00  0.4743E+02
     14.562  0.1163E+01  0.4759E+02
     14.703  0.1696E+01  0.4783E+02
     14.844  0.1011E+01  0.4797E+02
     14.985  0.2365E+00  0.4801E+02
     15.126 -0.1066E+00  0.4799E+02
     15.267  0.2343E-01  0.4800E+02
     15.408  0.9482E+00  0.4813E+02
     15.549  0.2121E+01  0.4843E+02
     15.689  0.3069E+01  0.4886E+02
     15.830  0.2883E+01  0.4927E+02
     15.971  0.3040E+01  0.4969E+02
     16.112  0.1701E+01  0.4993E+02
     16.253  0.1797E-01  0.4994E+02
     16.394 -0.1060E+00  0.4992E+02
     16.535 -0.1349E-01  0.4992E+02
     16.676 -0.1293E-01  0.4992E+02
     16.817 -0.1568E-01  0.4992E+02
     16.957  0.2026E+00  0.4994E+02
     17.098  0.4201E+00  0.5000E+02
     17.239  0.2388E+00  0.5004E+02
     17.380  0.1459E+01  0.5024E+02
     17.521  0.3404E+01  0.5072E+02
     17.662  0.2174E+01  0.5103E+02
     17.803  0.9068E+00  0.5116E+02
     17.944  0.1102E+01  0.5131E+02
     18.084  0.5554E+00  0.5139E+02
     18.225 -0.9403E-01  0.5138E+02
     18.366  0.3582E+00  0.5143E+02
     18.507  0.2250E+01  0.5174E+02
     18.648  0.3519E+01  0.5224E+02
     18.789  0.2282E+01  0.5256E+02
     18.930  0.3234E+00  0.5261E+02
     19.071  0.1222E-01  0.5261E+02
     19.212  0.5852E+00  0.5269E+02
     19.352  0.8429E+00  0.5281E+02
     19.493  0.1356E+01  0.5300E+02
     19.634  0.1263E+01  0.5318E+02
     19.775  0.1340E+01  0.5337E+02
     19.916  0.1162E+01  0.5353E+02
     20.057  0.1846E-01  0.5353E+02
     20.198  0.5023E+00  0.5360E+02
     20.339  0.3073E+01  0.5404E+02
     20.479  0.3325E+01  0.5451E+02
     20.620  0.2170E+01  0.5481E+02
     20.761  0.1608E+01  0.5504E+02
     20.902  0.3027E+00  0.5508E+02
     21.043  0.5620E+00  0.5516E+02
     21.184  0.2392E+01  0.5550E+02
     21.325  0.1828E+01  0.5575E+02
     21.466  0.8382E-01  0.5577E+02
     21.607 -0.3056E+00  0.5572E+02
     21.747  0.1076E+01  0.5587E+02
     21.888  0.4321E+01  0.5648E+02
     22.029  0.3822E+01  0.5702E+02
     22.170  0.7806E+00  0.5713E+02
     22.311 -0.2507E+00  0.5710E+02
     22.452 -0.2210E+00  0.5707E+02
     22.593  0.1625E+01  0.5729E+02
     22.734  0.4867E+01  0.5798E+02
     22.874  0.4572E+01  0.5862E+02
     23.015  0.2644E+01  0.5900E+02
     23.156  0.1588E+01  0.5922E+02
     23.297  0.6746E+00  0.5932E+02
     23.438 -0.1817E-01  0.5931E+02
     23.579 -0.2249E+00  0.5928E+02
     23.720  0.5575E+00  0.5936E+02
     23.861  0.3299E+01  0.5982E+02
     24.002  0.4478E+01  0.6046E+02
     24.142  0.2875E+01  0.6086E+02
     24.283  0.1747E+01  0.6111E+02
     24.424  0.9037E+00  0.6123E+02
     24.565 -0.8758E-01  0.6122E+02
     24.706 -0.2922E-01  0.6122E+02
     24.847  0.2216E+01  0.6153E+02
     24.988  0.3701E+01  0.6205E+02
     25.129  0.1223E+01  0.6222E+02
     25.269 -0.2825E+00  0.6218E+02
     25.410 -0.1966E+00  0.6216E+02
     25.551  0.2091E+01  0.6245E+02
     25.692  0.5048E+01  0.6316E+02
     25.833  0.2850E+01  0.6356E+02
     25.974  0.1633E+00  0.6359E+02
     26.115  0.6828E+00  0.6368E+02
     26.256  0.1348E+01  0.6387E+02
     26.397  0.8818E+00  0.6400E+02
     26.537  0.2425E+01  0.6434E+02
     26.678  0.3219E+01  0.6479E+02
     26.819  0.9852E+00  0.6493E+02
     26.960  0.6152E+00  0.6502E+02
     27.101  0.1451E+01  0.6522E+02
     27.242  0.5998E+00  0.6531E+02
     27.383 -0.1327E+00  0.6529E+02
     27.524  0.6168E-01  0.6530E+02
     27.665  0.1283E+01  0.6548E+02
     27.805  0.2951E+01  0.6589E+02
     27.946  0.3293E+01  0.6636E+02
     28.087  0.2106E+01  0.6665E+02
     28.228  0.1031E+01  0.6680E+02
     28.369  0.3379E+00  0.6685E+02
     28.510  0.2339E+01  0.6718E+02
     28.651  0.3634E+01  0.6769E+02
     28.792  0.1510E+01  0.6790E+02
     28.932  0.2306E+00  0.6793E+02
     29.073  0.3820E+00  0.6799E+02
     29.214  0.1132E+01  0.6815E+02
     29.355  0.1120E+01  0.6830E+02
     29.496  0.7070E+00  0.6840E+02
     29.637  0.1847E+01  0.6866E+02
     29.778  0.3588E+01  0.6917E+02
     29.919  0.3391E+01  0.6965E+02
     30.060  0.1111E+01  0.6980E+02
     30.200  0.5331E+00  0.6988E+02
     30.341  0.1776E+01  0.7013E+02
     30.482  0.1560E+01  0.7035E+02
     30.623  0.2502E+00  0.7038E+02
     30.764  0.8682E+00  0.7051E+02
     30.905  0.2085E+01  0.7080E+02
     31.046  0.2143E+01  0.7110E+02
     31.187  0.3359E+01  0.7157E+02
     31.327  0.3398E+01  0.7205E+02
     31.468  0.2943E+01  0.7247E+02
     31.609  0.2126E+01  0.7277E+02
     31.750  0.7469E+00  0.7287E+02
     31.891  0.1257E+01  0.7305E+02
     32.032  0.8819E+00  0.7317E+02
     32.173  0.3764E+00  0.7323E+02
     32.314  0.2627E+01  0.7360E+02
     32.455  0.3893E+01  0.7415E+02
     32.595  0.1606E+01  0.7437E+02
     32.736 -0.3268E-01  0.7437E+02
     32.877 -0.1241E+00  0.7435E+02
     33.018 -0.1105E+00  0.7433E+02
     33.159  0.9870E-01  0.7435E+02
     33.300  0.1944E+01  0.7462E+02
     33.441  0.5336E+01  0.7537E+02
     33.582  0.5697E+01  0.7618E+02
     33.722  0.4627E+01  0.7683E+02
     33.863  0.2554E+01  0.7719E+02
     34.004  0.7635E+00  0.7730E+02
     34.145  0.7989E+00  0.7741E+02
     34.286  0.6345E+00  0.7750E+02
     34.427  0.6264E+00  0.7759E+02
     34.568  0.4409E+00  0.7765E+02
     34.709  0.1312E+01  0.7783E+02
     34.850  0.2392E+01  0.7817E+02
     34.990  0.2147E+01  0.7847E+02
     35.131  0.7654E+00  0.7858E+02
     35.272  0.9914E+00  0.7872E+02
     35.413  0.1348E+01  0.7891E+02
     35.554  0.2639E+00  0.7895E+02
     35.695 -0.6422E-01  0.7894E+02
     35.836  0.1048E+01  0.7909E+02
     35.977  0.1977E+01  0.7936E+02
     36.117  0.1688E+01  0.7960E+02
     36.258  0.1828E+01  0.7986E+02
     36.399  0.1032E+01  0.8000E+02
     36.540  0.3809E-01  0.8001E+02
     36.681 -0.6436E-01  0.8000E+02
     36.822 -0.8710E-02  0.8000E+02
     36.963 -0.3226E-03  0.8000E+02
     37.104 -0.3955E-05  0.8000E+02
     37.245 -0.1694E-07  0.8000E+02
     37.385 -0.2595E-10  0.8000E+02
     37.526 -0.1392E-13  0.8000E+02
     37.667  0.0000E+00  0.8000E+02
     37.808  0.0000E+00  0.8000E+02
     37.949  0.0000E+00  0.8000E+02
     38.090  0.0000E+00  0.8000E+02
     38.231  0.0000E+00  0.8000E+02
