    4    4    1    1
  0.1022208E+02  0.3445083E-09  0.3445083E-09  0.3445083E-09  0.5000000E-15
  1.000000000000000E-004
  CAR 
 unknown system                          
     32     10     40
 
  0.0000000E+00  0.0000000E+00  0.0000000E+00  0.8000000E-02
    1       -2.034109   1.000000
    2        1.792061   1.000000
    3        1.792061   1.000000
    4        1.792061   1.000000
    5        2.525188   1.000000
    6        2.525188   1.000000
    7        2.525188   1.000000
    8        5.170751   1.000000
    9        5.170751   1.000000
   10        5.170751   1.000000
   11        6.675434   0.638766
   12        6.675434   0.638766
   13        7.633957  -0.000000
   14        7.633957  -0.000000
   15        7.633957  -0.000000
   16        7.921919  -0.000000
   17        7.921919  -0.000000
   18        7.921919  -0.000000
   19        7.921919  -0.000000
   20        7.921919  -0.000000
   21        7.921919  -0.000000
   22       10.067777  -0.000000
   23       10.067777  -0.000000
   24       10.067777  -0.000000
   25       18.512026   0.000000
   26       18.512026   0.000000
   27       18.512026   0.000000
   28       23.075828   0.000000
   29       23.075828   0.000000
   30       23.075828   0.000000
   31       23.075828   0.000000
   32       23.075828   0.000000
   33       23.075828   0.000000
   34       28.703319   0.000000
   35       28.703319   0.000000
   36       28.703319   0.000000
   37       30.178241   0.000000
   38       33.387079   0.000000
   39       33.387079   0.000000
   40       33.387079   0.000000
 
  0.2000000E+00  0.0000000E+00  0.0000000E+00  0.4800000E-01
    1       -1.473213   1.000000
    2        1.910586   1.000000
    3        2.152166   1.000000
    4        2.152166   1.000000
    5        2.749472   1.000000
    6        2.801861   1.000000
    7        2.801861   1.000000
    8        4.871592   1.000000
    9        5.309894   1.000000
   10        5.309894   1.000000
   11        6.424382   1.030949
   12        6.529275   1.010927
   13        6.529275   1.010927
   14        6.747157   0.340704
   15        7.334155  -0.000045
   16        7.334155  -0.000045
   17        7.532145  -0.000000
   18        7.587199  -0.000000
   19        7.587199  -0.000000
   20        7.937196  -0.000000
   21        7.937196  -0.000000
   22        8.225255  -0.000000
   23       11.882531  -0.000000
   24       11.882531  -0.000000
   25       18.600188   0.000000
   26       18.600188   0.000000
   27       21.122731   0.000000
   28       21.122731   0.000000
   29       21.147416   0.000000
   30       22.000498   0.000000
   31       22.000498   0.000000
   32       24.008406   0.000000
   33       24.008406   0.000000
   34       28.810170   0.000000
   35       29.931850   0.000000
   36       31.243554   0.000000
   37       31.243554   0.000000
   38       33.201774   0.000000
   39       33.480697   0.000000
   40       33.481326   0.000000
 
  0.4000000E+00  0.0000000E+00  0.0000000E+00  0.4800000E-01
    1        0.036292   1.000000
    2        1.611173   1.000000
    3        2.820466   1.000000
    4        2.820466   1.000000
    5        3.389826   1.000000
    6        3.567882   1.000000
    7        3.567882   1.000000
    8        4.177026   1.000000
    9        4.844609   1.000000
   10        4.844609   1.000000
   11        5.854537   1.000000
   12        5.873798   1.000000
   13        5.873798   1.000000
   14        6.031377   1.000009
   15        6.621026   0.834504
   16        6.621026   0.834504
   17        6.722198   0.443177
   18        6.722198   0.443177
   19        7.001615  -0.029206
   20        7.270457  -0.000262
   21        7.963897  -0.000000
   22        7.963897  -0.000000
   23       14.768029   0.000000
   24       14.768029   0.000000
   25       17.925468   0.000000
   26       17.925468   0.000000
   27       18.578725   0.000000
   28       18.578725   0.000000
   29       20.699429   0.000000
   30       20.699429   0.000000
   31       25.765359   0.000000
   32       26.463898   0.000000
   33       26.463898   0.000000
   34       29.201249   0.000000
   35       29.499802   0.000000
   36       29.816561   0.000000
   37       29.839182   0.000000
   38       29.839182   0.000000
   39       34.923575   0.000000
   40       35.857473   0.000000
 
  0.2000000E+00  0.2000000E+00  0.0000000E+00  0.9600000E-01
    1       -0.938389   1.000000
    2        2.273118   1.000000
    3        2.273118   1.000000
    4        2.433913   1.000000
    5        2.994639   1.000000
    6        2.994639   1.000000
    7        3.017334   1.000000
    8        4.702082   1.000000
    9        5.395595   1.000000
   10        5.465548   1.000000
   11        5.964605   1.000001
   12        5.964605   1.000001
   13        5.979138   1.000002
   14        6.359255   1.016532
   15        6.769526   0.255473
   16        7.108958  -0.007966
   17        7.300635  -0.000117
   18        7.300635  -0.000117
   19        7.566193  -0.000000
   20        7.566193  -0.000000
   21        7.683267  -0.000000
   22       10.033957  -0.000000
   23       10.033957  -0.000000
   24       13.124747   0.000000
   25       17.364998   0.000000
   26       19.191316   0.000000
   27       21.177090   0.000000
   28       21.177090   0.000000
   29       21.889746   0.000000
   30       21.889746   0.000000
   31       22.950739   0.000000
   32       22.950739   0.000000
   33       24.873119   0.000000
   34       28.485123   0.000000
   35       29.712547   0.000000
   36       30.241011   0.000000
   37       31.507334   0.000000
   38       31.507334   0.000000
   39       34.344232   0.000000
   40       36.081664   0.000000
 
  0.4000000E+00  0.2000000E+00  0.0000000E+00  0.1920000E+00
    1        0.497069   1.000000
    2        2.013377   1.000000
    3        3.045834   1.000000
    4        3.112980   1.000000
    5        3.512509   1.000000
    6        3.534496   1.000000
    7        3.676896   1.000000
    8        4.175983   1.000000
    9        4.462593   1.000000
   10        4.749257   1.000000
   11        5.145616   1.000000
   12        5.323663   1.000000
   13        5.907706   1.000000
   14        6.208944   1.001163
   15        6.526310   1.013442
   16        6.630379   0.805025
   17        6.727784   0.419800
   18        6.805855   0.137913
   19        7.223151  -0.000834
   20        7.565231  -0.000000
   21        7.574689  -0.000000
   22        8.069728  -0.000000
   23       12.221289   0.000000
   24       14.573554   0.000000
   25       15.656552   0.000000
   26       18.687065   0.000000
   27       19.473591   0.000000
   28       20.358538   0.000000
   29       22.813857   0.000000
   30       23.815126   0.000000
   31       24.033227   0.000000
   32       24.257217   0.000000
   33       26.163502   0.000000
   34       26.600879   0.000000
   35       27.022574   0.000000
   36       32.289957   0.000000
   37       32.348352   0.000000
   38       33.399483   0.000000
   39       33.622135   0.000000
   40       36.230704   0.000000
 
  0.4000000E+00  0.4000000E+00  0.0000000E+00  0.9600000E-01
    1        1.684318   1.000000
    2        2.921246   1.000000
    3        2.921246   1.000000
    4        3.416888   1.000000
    5        3.820516   1.000000
    6        3.921480   1.000000
    7        3.921480   1.000000
    8        4.133498   1.000000
    9        4.354059   1.000000
   10        4.354059   1.000000
   11        4.412022   1.000000
   12        5.015877   1.000000
   13        5.938471   1.000000
   14        6.133647   1.000184
   15        6.166913   1.000433
   16        6.267202   1.003863
   17        6.267202   1.003863
   18        6.784727   0.202738
   19        6.784727   0.202738
   20        7.027433  -0.023367
   21        8.152182  -0.000000
   22        9.617196  -0.000000
   23        9.617196  -0.000000
   24       11.603207  -0.000000
   25       17.779111   0.000000
   26       20.342035   0.000000
   27       20.593833   0.000000
   28       20.593833   0.000000
   29       21.822835   0.000000
   30       21.822835   0.000000
   31       23.153371   0.000000
   32       23.890323   0.000000
   33       28.094496   0.000000
   34       28.094496   0.000000
   35       29.276947   0.000000
   36       30.873875   0.000000
   37       33.289299   0.000000
   38       34.925048   0.000000
   39       35.886537   0.000000
   40       35.886537   0.000000
 
  0.2000000E+00  0.2000000E+00  0.2000000E+00  0.6400000E-01
    1       -0.446973   1.000000
    2        2.539662   1.000000
    3        2.539662   1.000000
    4        2.539662   1.000000
    5        3.206196   1.000000
    6        3.206196   1.000000
    7        3.206196   1.000000
    8        4.655785   1.000000
    9        5.416253   1.000000
   10        5.416253   1.000000
   11        5.547750   1.000000
   12        5.547750   1.000000
   13        5.547750   1.000000
   14        6.588639   0.920229
   15        6.588639   0.920229
   16        6.689993   0.578921
   17        6.689993   0.578921
   18        6.689993   0.578921
   19        7.811283  -0.000000
   20        7.811283  -0.000000
   21        7.811283  -0.000000
   22       10.873239  -0.000000
   23       10.873239  -0.000000
   24       10.873239  -0.000000
   25       18.462125   0.000000
   26       18.462125   0.000000
   27       18.462125   0.000000
   28       21.869240   0.000000
   29       21.869240   0.000000
   30       21.869240   0.000000
   31       25.660759   0.000000
   32       25.667576   0.000000
   33       25.667576   0.000000
   34       25.667576   0.000000
   35       30.365445   0.000000
   36       30.365445   0.000000
   37       30.365445   0.000000
   38       31.082803   0.000000
   39       34.870553   0.000000
   40       34.870553   0.000000
 
  0.4000000E+00  0.2000000E+00  0.2000000E+00  0.1920000E+00
    1        0.849036   1.000000
    2        2.212400   1.000000
    3        3.137544   1.000000
    4        3.137544   1.000000
    5        3.587700   1.000000
    6        3.587700   1.000000
    7        3.740963   1.000000
    8        4.316481   1.000000
    9        4.737938   1.000000
   10        4.737938   1.000000
   11        5.001389   1.000000
   12        5.277247   1.000000
   13        5.546301   1.000000
   14        6.007978   1.000004
   15        6.236538   1.002107
   16        6.236538   1.002107
   17        6.770350   0.252496
   18        7.125036  -0.006090
   19        7.599253  -0.000000
   20        7.611755  -0.000000
   21        7.611755  -0.000000
   22        8.210309  -0.000000
   23       12.334208   0.000000
   24       12.334208   0.000000
   25       15.927033   0.000000
   26       15.927033   0.000000
   27       20.303013   0.000000
   28       22.655673   0.000000
   29       22.655673   0.000000
   30       22.727655   0.000000
   31       24.898212   0.000000
   32       24.898212   0.000000
   33       26.572248   0.000000
   34       27.863577   0.000000
   35       29.636307   0.000000
   36       31.112208   0.000000
   37       31.207011   0.000000
   38       33.432851   0.000000
   39       33.432851   0.000000
   40       34.700355   0.000000
 
  0.4000000E+00  0.4000000E+00  0.2000000E+00  0.1920000E+00
    1        1.685614   1.000000
    2        2.546652   1.000000
    3        2.546652   1.000000
    4        2.863242   1.000000
    5        4.103602   1.000000
    6        4.292874   1.000000
    7        4.292874   1.000000
    8        4.644969   1.000000
    9        4.817398   1.000000
   10        4.817398   1.000000
   11        5.015006   1.000000
   12        5.084190   1.000000
   13        5.392133   1.000000
   14        5.700624   1.000000
   15        5.700624   1.000000
   16        5.729050   1.000000
   17        6.833161   0.070303
   18        7.369579  -0.000015
   19        7.369579  -0.000015
   20        7.416370  -0.000003
   21        7.901887  -0.000000
   22        9.448401  -0.000000
   23        9.448401  -0.000000
   24       11.115331  -0.000000
   25       15.656139   0.000000
   26       17.486780   0.000000
   27       17.486780   0.000000
   28       19.776545   0.000000
   29       23.870350   0.000000
   30       25.605670   0.000000
   31       25.605670   0.000000
   32       27.662515   0.000000
   33       28.559087   0.000000
   34       28.559087   0.000000
   35       29.823330   0.000000
   36       30.816425   0.000000
   37       32.435427   0.000000
   38       33.709029   0.000000
   39       33.709029   0.000000
   40       35.296357   0.000000
 
  0.4000000E+00  0.4000000E+00  0.4000000E+00  0.6400000E-01
    1        1.788378   1.000000
    2        2.174337   1.000000
    3        2.174337   1.000000
    4        2.174337   1.000000
    5        4.730588   1.000000
    6        4.730588   1.000000
    7        4.730588   1.000000
    8        5.129976   1.000000
    9        5.129976   1.000000
   10        5.220576   1.000000
   11        5.220576   1.000000
   12        5.220576   1.000000
   13        5.803724   1.000000
   14        5.803724   1.000000
   15        5.803724   1.000000
   16        5.916599   1.000000
   17        7.463196  -0.000001
   18        7.463196  -0.000001
   19        7.685092  -0.000000
   20        7.685092  -0.000000
   21        7.685092  -0.000000
   22        9.023069  -0.000000
   23        9.023069  -0.000000
   24        9.023069  -0.000000
   25       15.429470   0.000000
   26       15.429470   0.000000
   27       15.429470   0.000000
   28       17.032772   0.000000
   29       27.840436   0.000000
   30       27.840436   0.000000
   31       27.840436   0.000000
   32       29.107494   0.000000
   33       31.421057   0.000000
   34       31.421057   0.000000
   35       31.421057   0.000000
   36       31.865288   0.000000
   37       31.865288   0.000000
   38       31.865288   0.000000
   39       34.041107   0.000000
   40       34.041107   0.000000
