unknown system                          
   1.00000000000000     
     3.635000    0.000000    0.000000
     0.000000    3.635000    0.000000
     0.000000    0.000000    3.635000
   Cu
     4
Direct
  0.000000  0.000000  0.000000
  0.500000  0.500000  0.000000
  0.500000  0.000000  0.500000
  0.000000  0.500000  0.500000
 
   32   32   32
  844.72      796.09      665.63      491.60      317.38      175.97      82.998      36.551      20.892      15.098    
  11.392      9.2180      8.0202      7.4162      7.0294      6.6766      6.5105      6.6766      7.0294      7.4162    
  8.0202      9.2180      11.392      15.098      20.892      36.551      82.998      175.97      317.38      491.60    
  665.63      796.09      796.09      750.07      626.58      461.92      297.35      164.28      77.459      34.697    
  20.489      14.902      11.331      9.2488      8.1067      7.5326      7.1665      6.8333      6.6766      6.8333    
  7.1665      7.5326      8.1067      9.2488      11.331      14.902      20.489      34.697      77.459      164.28    
  297.35      461.92      626.58      750.07      665.63      626.58      521.86      382.52      244.04      133.51    
  63.214      30.126      19.438      14.361      11.164      9.3213      8.3113      7.7952      7.4624      7.1665    
  7.0294      7.1665      7.4624      7.7952      8.3113      9.3213      11.164      14.361      19.438      30.126    
  63.214      133.51      244.04      382.52      521.86      626.58      491.60      461.92      382.52      277.47    
  174.45      94.418      46.028      25.058      17.951      13.605      10.946      9.4240      8.5718      8.1075    
  7.7952      7.5326      7.4162      7.5326      7.7952      8.1075      8.5718      9.4240      10.946      13.605    
  17.951      25.058      46.028      94.418      174.45      277.47      382.52      461.92      317.38      297.35    
  244.04      174.45      108.03      58.967      31.817      21.205      16.231      12.808      10.773      9.6144    
  8.9526      8.5718      8.3113      8.1067      8.0202      8.1067      8.3113      8.5718      8.9526      9.6144    
  10.773      12.808      16.231      21.205      31.817      58.967      108.03      174.45      244.04      297.35    
  175.97      164.28      133.51      94.418      58.967      35.030      23.416      18.291      14.571      12.144    
  10.757      10.006      9.6144      9.4240      9.3213      9.2488      9.2180      9.2488      9.3213      9.4240    
  9.6144      10.006      10.757      12.144      14.571      18.291      23.416      35.030      58.967      94.418    
  133.51      164.28      82.998      77.459      63.214      46.028      31.817      23.416      19.064      15.672    
  13.230      11.760      11.025      10.757      10.773      10.946      11.164      11.331      11.392      11.331    
  11.164      10.946      10.773      10.757      11.025      11.760      13.230      15.672      19.064      23.416    
  31.817      46.028      63.214      77.459      36.551      34.697      30.126      25.058      21.205      18.291    
  15.672      13.654      12.377      11.791      11.760      12.144      12.808      13.605      14.361      14.902    
  15.098      14.902      14.361      13.605      12.808      12.144      11.760      11.791      12.377      13.654    
  15.672      18.291      21.205      25.058      30.126      34.697      20.892      20.489      19.438      17.951    
  16.231      14.571      13.230      12.377      12.087      12.377      13.230      14.571      16.231      17.951    
  19.438      20.489      20.892      20.489      19.438      17.951      16.231      14.571      13.230      12.377    
  12.087      12.377      13.230      14.571      16.231      17.951      19.438      20.489      15.098      14.902    
  14.361      13.605      12.808      12.144      11.760      11.791      12.377      13.654      15.672      18.291    
  21.205      25.058      30.126      34.697      36.551      34.697      30.126      25.058      21.205      18.291    
  15.672      13.654      12.377      11.791      11.760      12.144      12.808      13.605      14.361      14.902    
  11.392      11.331      11.164      10.946      10.773      10.757      11.025      11.760      13.230      15.672    
  19.064      23.416      31.817      46.028      63.214      77.459      82.998      77.459      63.214      46.028    
  31.817      23.416      19.064      15.672      13.230      11.760      11.025      10.757      10.773      10.946    
  11.164      11.331      9.2180      9.2488      9.3213      9.4240      9.6144      10.006      10.757      12.144    
  14.571      18.291      23.416      35.030      58.967      94.418      133.51      164.28      175.97      164.28    
  133.51      94.418      58.967      35.030      23.416      18.291      14.571      12.144      10.757      10.006    
  9.6144      9.4240      9.3213      9.2488      8.0202      8.1067      8.3113      8.5718      8.9526      9.6144    
  10.773      12.808      16.231      21.205      31.817      58.967      108.03      174.45      244.04      297.35    
  317.38      297.35      244.04      174.45      108.03      58.967      31.817      21.205      16.231      12.808    
  10.773      9.6144      8.9526      8.5718      8.3113      8.1067      7.4162      7.5326      7.7952      8.1075    
  8.5718      9.4240      10.946      13.605      17.951      25.058      46.028      94.418      174.45      277.47    
  382.52      461.92      491.60      461.92      382.52      277.47      174.45      94.418      46.028      25.058    
  17.951      13.605      10.946      9.4240      8.5718      8.1075      7.7952      7.5326      7.0294      7.1665    
  7.4624      7.7952      8.3113      9.3213      11.164      14.361      19.438      30.126      63.214      133.51    
  244.04      382.52      521.86      626.58      665.63      626.58      521.86      382.52      244.04      133.51    
  63.214      30.126      19.438      14.361      11.164      9.3213      8.3113      7.7952      7.4624      7.1665    
  6.6766      6.8333      7.1665      7.5326      8.1067      9.2488      11.331      14.902      20.489      34.697    
  77.459      164.28      297.35      461.92      626.58      750.07      796.09      750.07      626.58      461.92    
  297.35      164.28      77.459      34.697      20.489      14.902      11.331      9.2488      8.1067      7.5326    
  7.1665      6.8333      6.5105      6.6766      7.0294      7.4162      8.0202      9.2180      11.392      15.098    
  20.892      36.551      82.998      175.97      317.38      491.60      665.63      796.09      844.72      796.09    
  665.63      491.60      317.38      175.97      82.998      36.551      20.892      15.098      11.392      9.2180    
  8.0202      7.4162      7.0294      6.6766      6.6766      6.8333      7.1665      7.5326      8.1067      9.2488    
  11.331      14.902      20.489      34.697      77.459      164.28      297.35      461.92      626.58      750.07    
  796.09      750.07      626.58      461.92      297.35      164.28      77.459      34.697      20.489      14.902    
  11.331      9.2488      8.1067      7.5326      7.1665      6.8333      7.0294      7.1665      7.4624      7.7952    
  8.3113      9.3213      11.164      14.361      19.438      30.126      63.214      133.51      244.04      382.52    
  521.86      626.58      665.63      626.58      521.86      382.52      244.04      133.51      63.214      30.126    
  19.438      14.361      11.164      9.3213      8.3113      7.7952      7.4624      7.1665      7.4162      7.5326    
  7.7952      8.1075      8.5718      9.4240      10.946      13.605      17.951      25.058      46.028      94.418    
  174.45      277.47      382.52      461.92      491.60      461.92      382.52      277.47      174.45      94.418    
  46.028      25.058      17.951      13.605      10.946      9.4240      8.5718      8.1075      7.7952      7.5326    
  8.0202      8.1067      8.3113      8.5718      8.9526      9.6144      10.773      12.808      16.231      21.205    
  31.817      58.967      108.03      174.45      244.04      297.35      317.38      297.35      244.04      174.45    
  108.03      58.967      31.817      21.205      16.231      12.808      10.773      9.6144      8.9526      8.5718    
  8.3113      8.1067      9.2180      9.2488      9.3213      9.4240      9.6144      10.006      10.757      12.144    
  14.571      18.291      23.416      35.030      58.967      94.418      133.51      164.28      175.97      164.28    
  133.51      94.418      58.967      35.030      23.416      18.291      14.571      12.144      10.757      10.006    
  9.6144      9.4240      9.3213      9.2488      11.392      11.331      11.164      10.946      10.773      10.757    
  11.025      11.760      13.230      15.672      19.064      23.416      31.817      46.028      63.214      77.459    
  82.998      77.459      63.214      46.028      31.817      23.416      19.064      15.672      13.230      11.760    
  11.025      10.757      10.773      10.946      11.164      11.331      15.098      14.902      14.361      13.605    
  12.808      12.144      11.760      11.791      12.377      13.654      15.672      18.291      21.205      25.058    
  30.126      34.697      36.551      34.697      30.126      25.058      21.205      18.291      15.672      13.654    
  12.377      11.791      11.760      12.144      12.808      13.605      14.361      14.902      20.892      20.489    
  19.438      17.951      16.231      14.571      13.230      12.377      12.087      12.377      13.230      14.571    
  16.231      17.951      19.438      20.489      20.892      20.489      19.438      17.951      16.231      14.571    
  13.230      12.377      12.087      12.377      13.230      14.571      16.231      17.951      19.438      20.489    
  36.551      34.697      30.126      25.058      21.205      18.291      15.672      13.654      12.377      11.791    
  11.760      12.144      12.808      13.605      14.361      14.902      15.098      14.902      14.361      13.605    
  12.808      12.144      11.760      11.791      12.377      13.654      15.672      18.291      21.205      25.058    
  30.126      34.697      82.998      77.459      63.214      46.028      31.817      23.416      19.064      15.672    
  13.230      11.760      11.025      10.757      10.773      10.946      11.164      11.331      11.392      11.331    
  11.164      10.946      10.773      10.757      11.025      11.760      13.230      15.672      19.064      23.416    
  31.817      46.028      63.214      77.459      175.97      164.28      133.51      94.418      58.967      35.030    
  23.416      18.291      14.571      12.144      10.757      10.006      9.6144      9.4240      9.3213      9.2488    
  9.2180      9.2488      9.3213      9.4240      9.6144      10.006      10.757      12.144      14.571      18.291    
  23.416      35.030      58.967      94.418      133.51      164.28      317.38      297.35      244.04      174.45    
  108.03      58.967      31.817      21.205      16.231      12.808      10.773      9.6144      8.9526      8.5718    
  8.3113      8.1067      8.0202      8.1067      8.3113      8.5718      8.9526      9.6144      10.773      12.808    
  16.231      21.205      31.817      58.967      108.03      174.45      244.04      297.35      491.60      461.92    
  382.52      277.47      174.45      94.418      46.028      25.058      17.951      13.605      10.946      9.4240    
  8.5718      8.1075      7.7952      7.5326      7.4162      7.5326      7.7952      8.1075      8.5718      9.4240    
  10.946      13.605      17.951      25.058      46.028      94.418      174.45      277.47      382.52      461.92    
  665.63      626.58      521.86      382.52      244.04      133.51      63.214      30.126      19.438      14.361    
  11.164      9.3213      8.3113      7.7952      7.4624      7.1665      7.0294      7.1665      7.4624      7.7952    
  8.3113      9.3213      11.164      14.361      19.438      30.126      63.214      133.51      244.04      382.52    
  521.86      626.58      796.09      750.07      626.58      461.92      297.35      164.28      77.459      34.697    
  20.489      14.902      11.331      9.2488      8.1067      7.5326      7.1665      6.8333      6.6766      6.8333    
  7.1665      7.5326      8.1067      9.2488      11.331      14.902      20.489      34.697      77.459      164.28    
  297.35      461.92      626.58      750.07      796.09      750.07      626.58      461.92      297.35      164.28    
  77.459      34.697      20.489      14.902      11.331      9.2488      8.1067      7.5326      7.1665      6.8333    
  6.6766      6.8333      7.1665      7.5326      8.1067      9.2488      11.331      14.902      20.489      34.697    
  77.459      164.28      297.35      461.92      626.58      750.07      750.07      706.50      589.63      433.88    
  278.47      153.32      72.327      33.014      20.111      14.711      11.271      9.2772      8.1884      7.6427    
  7.2958      6.9812      6.8333      6.9812      7.2958      7.6427      8.1884      9.2772      11.271      14.711    
  20.111      33.014      72.327      153.32      278.47      433.88      589.63      706.50      626.58      589.63    
  490.57      358.87      228.28      124.54      59.163      28.874      19.107      14.184      11.108      9.3449    
  8.3823      7.8914      7.5756      7.2958      7.1665      7.2958      7.5756      7.8914      8.3823      9.3449    
  11.108      14.184      19.107      28.874      59.163      124.54      228.28      358.87      490.57      589.63    
  461.92      433.88      358.87      259.78      162.90      88.095      43.364      24.300      17.651      13.450    
  10.897      9.4423      8.6306      8.1886      7.8914      7.6427      7.5326      7.6427      7.8914      8.1886    
  8.6306      9.4423      10.897      13.450      17.651      24.300      43.364      88.095      162.90      259.78    
  358.87      433.88      297.35      278.47      228.28      162.90      100.78      55.262      30.419      20.781    
  15.975      12.678      10.729      9.6237      8.9936      8.6306      8.3823      8.1884      8.1067      8.1884    
  8.3823      8.6306      8.9936      9.6237      10.729      12.678      15.975      20.781      30.419      55.262    
  100.78      162.90      228.28      278.47      164.28      153.32      124.54      88.095      55.262      33.337    
  22.823      17.960      14.366      12.037      10.711      9.9963      9.6237      9.4423      9.3449      9.2772    
  9.2488      9.2772      9.3449      9.4423      9.6237      9.9963      10.711      12.037      14.366      17.960    
  22.823      33.337      55.262      88.095      124.54      153.32      77.459      72.327      59.163      43.364    
  30.419      22.823      18.706      15.420      13.072      11.666      10.964      10.711      10.729      10.897    
  11.108      11.271      11.331      11.271      11.108      10.897      10.729      10.711      10.964      11.666    
  13.072      15.420      18.706      22.823      30.419      43.364      59.163      72.327      34.697      33.014    
  28.874      24.300      20.781      17.960      15.420      13.476      12.251      11.692      11.666      12.037    
  12.678      13.450      14.184      14.711      14.902      14.711      14.184      13.450      12.678      12.037    
  11.666      11.692      12.251      13.476      15.420      17.960      20.781      24.300      28.874      33.014    
  20.489      20.111      19.107      17.651      15.975      14.366      13.072      12.251      11.972      12.251    
  13.072      14.366      15.975      17.651      19.107      20.111      20.489      20.111      19.107      17.651    
  15.975      14.366      13.072      12.251      11.972      12.251      13.072      14.366      15.975      17.651    
  19.107      20.111      14.902      14.711      14.184      13.450      12.678      12.037      11.666      11.692    
  12.251      13.476      15.420      17.960      20.781      24.300      28.874      33.014      34.697      33.014    
  28.874      24.300      20.781      17.960      15.420      13.476      12.251      11.692      11.666      12.037    
  12.678      13.450      14.184      14.711      11.331      11.271      11.108      10.897      10.729      10.711    
  10.964      11.666      13.072      15.420      18.706      22.823      30.419      43.364      59.163      72.327    
  77.459      72.327      59.163      43.364      30.419      22.823      18.706      15.420      13.072      11.666    
  10.964      10.711      10.729      10.897      11.108      11.271      9.2488      9.2772      9.3449      9.4423    
  9.6237      9.9963      10.711      12.037      14.366      17.960      22.823      33.337      55.262      88.095    
  124.54      153.32      164.28      153.32      124.54      88.095      55.262      33.337      22.823      17.960    
  14.366      12.037      10.711      9.9963      9.6237      9.4423      9.3449      9.2772      8.1067      8.1884    
  8.3823      8.6306      8.9936      9.6237      10.729      12.678      15.975      20.781      30.419      55.262    
  100.78      162.90      228.28      278.47      297.35      278.47      228.28      162.90      100.78      55.262    
  30.419      20.781      15.975      12.678      10.729      9.6237      8.9936      8.6306      8.3823      8.1884    
  7.5326      7.6427      7.8914      8.1886      8.6306      9.4423      10.897      13.450      17.651      24.300    
  43.364      88.095      162.90      259.78      358.87      433.88      461.92      433.88      358.87      259.78    
  162.90      88.095      43.364      24.300      17.651      13.450      10.897      9.4423      8.6306      8.1886    
  7.8914      7.6427      7.1665      7.2958      7.5756      7.8914      8.3823      9.3449      11.108      14.184    
  19.107      28.874      59.163      124.54      228.28      358.87      490.57      589.63      626.58      589.63    
  490.57      358.87      228.28      124.54      59.163      28.874      19.107      14.184      11.108      9.3449    
  8.3823      7.8914      7.5756      7.2958      6.8333      6.9812      7.2958      7.6427      8.1884      9.2772    
  11.271      14.711      20.111      33.014      72.327      153.32      278.47      433.88      589.63      706.50    
  750.07      706.50      589.63      433.88      278.47      153.32      72.327      33.014      20.111      14.711    
  11.271      9.2772      8.1884      7.6427      7.2958      6.9812      6.6766      6.8333      7.1665      7.5326    
  8.1067      9.2488      11.331      14.902      20.489      34.697      77.459      164.28      297.35      461.92    
  626.58      750.07      796.09      750.07      626.58      461.92      297.35      164.28      77.459      34.697    
  20.489      14.902      11.331      9.2488      8.1067      7.5326      7.1665      6.8333      6.8333      6.9812    
  7.2958      7.6427      8.1884      9.2772      11.271      14.711      20.111      33.014      72.327      153.32    
  278.47      433.88      589.63      706.50      750.07      706.50      589.63      433.88      278.47      153.32    
  72.327      33.014      20.111      14.711      11.271      9.2772      8.1884      7.6427      7.2958      6.9812    
  7.1665      7.2958      7.5756      7.8914      8.3823      9.3449      11.108      14.184      19.107      28.874    
  59.163      124.54      228.28      358.87      490.57      589.63      626.58      589.63      490.57      358.87    
  228.28      124.54      59.163      28.874      19.107      14.184      11.108      9.3449      8.3823      7.8914    
  7.5756      7.2958      7.5326      7.6427      7.8914      8.1886      8.6306      9.4423      10.897      13.450    
  17.651      24.300      43.364      88.095      162.90      259.78      358.87      433.88      461.92      433.88    
  358.87      259.78      162.90      88.095      43.364      24.300      17.651      13.450      10.897      9.4423    
  8.6306      8.1886      7.8914      7.6427      8.1067      8.1884      8.3823      8.6306      8.9936      9.6237    
  10.729      12.678      15.975      20.781      30.419      55.262      100.78      162.90      228.28      278.47    
  297.35      278.47      228.28      162.90      100.78      55.262      30.419      20.781      15.975      12.678    
  10.729      9.6237      8.9936      8.6306      8.3823      8.1884      9.2488      9.2772      9.3449      9.4423    
  9.6237      9.9963      10.711      12.037      14.366      17.960      22.823      33.337      55.262      88.095    
  124.54      153.32      164.28      153.32      124.54      88.095      55.262      33.337      22.823      17.960    
  14.366      12.037      10.711      9.9963      9.6237      9.4423      9.3449      9.2772      11.331      11.271    
  11.108      10.897      10.729      10.711      10.964      11.666      13.072      15.420      18.706      22.823    
  30.419      43.364      59.163      72.327      77.459      72.327      59.163      43.364      30.419      22.823    
  18.706      15.420      13.072      11.666      10.964      10.711      10.729      10.897      11.108      11.271    
  14.902      14.711      14.184      13.450      12.678      12.037      11.666      11.692      12.251      13.476    
  15.420      17.960      20.781      24.300      28.874      33.014      34.697      33.014      28.874      24.300    
  20.781      17.960      15.420      13.476      12.251      11.692      11.666      12.037      12.678      13.450    
  14.184      14.711      20.489      20.111      19.107      17.651      15.975      14.366      13.072      12.251    
  11.972      12.251      13.072      14.366      15.975      17.651      19.107      20.111      20.489      20.111    
  19.107      17.651      15.975      14.366      13.072      12.251      11.972      12.251      13.072      14.366    
  15.975      17.651      19.107      20.111      34.697      33.014      28.874      24.300      20.781      17.960    
  15.420      13.476      12.251      11.692      11.666      12.037      12.678      13.450      14.184      14.711    
  14.902      14.711      14.184      13.450      12.678      12.037      11.666      11.692      12.251      13.476    
  15.420      17.960      20.781      24.300      28.874      33.014      77.459      72.327      59.163      43.364    
  30.419      22.823      18.706      15.420      13.072      11.666      10.964      10.711      10.729      10.897    
  11.108      11.271      11.331      11.271      11.108      10.897      10.729      10.711      10.964      11.666    
  13.072      15.420      18.706      22.823      30.419      43.364      59.163      72.327      164.28      153.32    
  124.54      88.095      55.262      33.337      22.823      17.960      14.366      12.037      10.711      9.9963    
  9.6237      9.4423      9.3449      9.2772      9.2488      9.2772      9.3449      9.4423      9.6237      9.9963    
  10.711      12.037      14.366      17.960      22.823      33.337      55.262      88.095      124.54      153.32    
  297.35      278.47      228.28      162.90      100.78      55.262      30.419      20.781      15.975      12.678    
  10.729      9.6237      8.9936      8.6306      8.3823      8.1884      8.1067      8.1884      8.3823      8.6306    
  8.9936      9.6237      10.729      12.678      15.975      20.781      30.419      55.262      100.78      162.90    
  228.28      278.47      461.92      433.88      358.87      259.78      162.90      88.095      43.364      24.300    
  17.651      13.450      10.897      9.4423      8.6306      8.1886      7.8914      7.6427      7.5326      7.6427    
  7.8914      8.1886      8.6306      9.4423      10.897      13.450      17.651      24.300      43.364      88.095    
  162.90      259.78      358.87      433.88      626.58      589.63      490.57      358.87      228.28      124.54    
  59.163      28.874      19.107      14.184      11.108      9.3449      8.3823      7.8914      7.5756      7.2958    
  7.1665      7.2958      7.5756      7.8914      8.3823      9.3449      11.108      14.184      19.107      28.874    
  59.163      124.54      228.28      358.87      490.57      589.63      750.07      706.50      589.63      433.88    
  278.47      153.32      72.327      33.014      20.111      14.711      11.271      9.2772      8.1884      7.6427    
  7.2958      6.9812      6.8333      6.9812      7.2958      7.6427      8.1884      9.2772      11.271      14.711    
  20.111      33.014      72.327      153.32      278.47      433.88      589.63      706.50      665.63      626.58    
  521.86      382.52      244.04      133.51      63.214      30.126      19.438      14.361      11.164      9.3213    
  8.3113      7.7952      7.4624      7.1665      7.0294      7.1665      7.4624      7.7952      8.3113      9.3213    
  11.164      14.361      19.438      30.126      63.214      133.51      244.04      382.52      521.86      626.58    
  626.58      589.63      490.57      358.87      228.28      124.54      59.163      28.874      19.107      14.184    
  11.108      9.3449      8.3823      7.8914      7.5756      7.2958      7.1665      7.2958      7.5756      7.8914    
  8.3823      9.3449      11.108      14.184      19.107      28.874      59.163      124.54      228.28      358.87    
  490.57      589.63      521.86      490.57      406.78      295.75      186.50      101.09      48.849      25.814    
  18.177      13.698      10.957      9.4031      8.5538      8.1124      7.8247      7.5756      7.4624      7.5756    
  7.8247      8.1124      8.5538      9.4031      10.957      13.698      18.177      25.814      48.849      101.09    
  186.50      295.75      406.78      490.57      382.52      358.87      295.75      212.77      132.49      71.733    
  36.683      22.438      16.814      13.028      10.767      9.4907      8.7778      8.3819      8.1124      7.8914    
  7.7952      7.8914      8.1124      8.3819      8.7778      9.4907      10.767      13.028      16.814      22.438    
  36.683      71.733      132.49      212.77      295.75      358.87      244.04      228.28      186.50      132.49    
  81.920      45.842      26.978      19.644      15.268      12.328      10.615      9.6520      9.1014      8.7778    
  8.5538      8.3823      8.3113      8.3823      8.5538      8.7778      9.1014      9.6520      10.615      12.328    
  15.268      19.644      26.978      45.842      81.920      132.49      186.50      228.28      133.51      124.54    
  101.09      71.733      45.842      29.146      21.324      17.036      13.804      11.749      10.594      9.9753    
  9.6520      9.4907      9.4031      9.3449      9.3213      9.3449      9.4031      9.4907      9.6520      9.9753    
  10.594      11.749      13.804      17.036      21.324      29.146      45.842      71.733      101.09      124.54    
  63.214      59.163      48.849      36.683      26.978      21.324      17.703      14.725      12.641      11.411    
  10.807      10.594      10.615      10.767      10.957      11.108      11.164      11.108      10.957      10.767    
  10.615      10.594      10.807      11.411      12.641      14.725      17.703      21.324      26.978      36.683    
  48.849      59.163      30.126      28.874      25.814      22.438      19.644      17.036      14.725      12.988    
  11.910      11.425      11.411      11.749      12.328      13.028      13.698      14.184      14.361      14.184    
  13.698      13.028      12.328      11.749      11.411      11.425      11.910      12.988      14.725      17.036    
  19.644      22.438      25.814      28.874      19.438      19.107      18.177      16.814      15.268      13.804    
  12.641      11.910      11.662      11.910      12.641      13.804      15.268      16.814      18.177      19.107    
  19.438      19.107      18.177      16.814      15.268      13.804      12.641      11.910      11.662      11.910    
  12.641      13.804      15.268      16.814      18.177      19.107      14.361      14.184      13.698      13.028    
  12.328      11.749      11.411      11.425      11.910      12.988      14.725      17.036      19.644      22.438    
  25.814      28.874      30.126      28.874      25.814      22.438      19.644      17.036      14.725      12.988    
  11.910      11.425      11.411      11.749      12.328      13.028      13.698      14.184      11.164      11.108    
  10.957      10.767      10.615      10.594      10.807      11.411      12.641      14.725      17.703      21.324    
  26.978      36.683      48.849      59.163      63.214      59.163      48.849      36.683      26.978      21.324    
  17.703      14.725      12.641      11.411      10.807      10.594      10.615      10.767      10.957      11.108    
  9.3213      9.3449      9.4031      9.4907      9.6520      9.9753      10.594      11.749      13.804      17.036    
  21.324      29.146      45.842      71.733      101.09      124.54      133.51      124.54      101.09      71.733    
  45.842      29.146      21.324      17.036      13.804      11.749      10.594      9.9753      9.6520      9.4907    
  9.4031      9.3449      8.3113      8.3823      8.5538      8.7778      9.1014      9.6520      10.615      12.328    
  15.268      19.644      26.978      45.842      81.920      132.49      186.50      228.28      244.04      228.28    