unknown system                          
   1.00000000000000     
     3.635000    0.000000    0.000000
     0.000000    3.635000    0.000000
     0.000000    0.000000    3.635000
   Cu
     4
Direct
  0.000000  0.000000  0.000000
  0.500000  0.500000  0.000000
  0.500000  0.000000  0.500000
  0.000000  0.500000  0.500000
 
   32   32   32
 0.84471817702E+03 0.79609368647E+03 0.66563281310E+03 0.49159698639E+03 0.31737547383E+03
 0.17596907838E+03 0.82998126012E+02 0.36550793290E+02 0.20892369558E+02 0.15098494492E+02
 0.11391938502E+02 0.92180017190E+01 0.80201667599E+01 0.74161514495E+01 0.70294487944E+01
 0.66766277651E+01 0.65104994575E+01 0.66766277651E+01 0.70294487944E+01 0.74161514495E+01
 0.80201667599E+01 0.92180017190E+01 0.11391938502E+02 0.15098494492E+02 0.20892369558E+02
 0.36550793290E+02 0.82998126012E+02 0.17596907838E+03 0.31737547383E+03 0.49159698639E+03
 0.66563281310E+03 0.79609368647E+03 0.79609368647E+03 0.75006602198E+03 0.62658023647E+03
 0.46192411524E+03 0.29734792446E+03 0.16427552190E+03 0.77458870899E+02 0.34697383554E+02
 0.20488536577E+02 0.14902184992E+02 0.11330726144E+02 0.92487835161E+01 0.81066770229E+01
 0.75326455206E+01 0.71664904820E+01 0.68333443883E+01 0.66766277651E+01 0.68333443883E+01
 0.71664904820E+01 0.75326455206E+01 0.81066770229E+01 0.92487835161E+01 0.11330726144E+02
 0.14902184992E+02 0.20488536577E+02 0.34697383554E+02 0.77458870899E+02 0.16427552190E+03
 0.29734792446E+03 0.46192411524E+03 0.62658023647E+03 0.75006602198E+03 0.66563281310E+03
 0.62658023647E+03 0.52186224985E+03 0.38251793841E+03 0.24403936999E+03 0.13350882168E+03
 0.63214419740E+02 0.30126402308E+02 0.19438029893E+02 0.14361172977E+02 0.11163534173E+02
 0.93213459530E+01 0.83112634397E+01 0.77951515625E+01 0.74623538356E+01 0.71664904820E+01
 0.70294487944E+01 0.71664904820E+01 0.74623538356E+01 0.77951515625E+01 0.83112634397E+01
 0.93213459530E+01 0.11163534173E+02 0.14361172977E+02 0.19438029893E+02 0.30126402308E+02
 0.63214419740E+02 0.13350882168E+03 0.24403936999E+03 0.38251793841E+03 0.52186224985E+03
 0.62658023647E+03 0.49159698639E+03 0.46192411524E+03 0.38251793841E+03 0.27746619455E+03
 0.17444889587E+03 0.94417579515E+02 0.46027920758E+02 0.25058010681E+02 0.17951042490E+02
 0.13605164844E+02 0.10946098156E+02 0.94239657388E+01 0.85718212512E+01 0.81075137456E+01
 0.77951515625E+01 0.75326455206E+01 0.74161514495E+01 0.75326455206E+01 0.77951515625E+01
 0.81075137456E+01 0.85718212512E+01 0.94239657388E+01 0.10946098156E+02 0.13605164844E+02
 0.17951042490E+02 0.25058010681E+02 0.46027920758E+02 0.94417579515E+02 0.17444889587E+03
 0.27746619455E+03 0.38251793841E+03 0.46192411524E+03 0.31737547383E+03 0.29734792446E+03
 0.24403936999E+03 0.17444889587E+03 0.10802616917E+03 0.58966695548E+02 0.31816861647E+02
 0.21204748876E+02 0.16230726322E+02 0.12808118994E+02 0.10773085598E+02 0.96144072098E+01
 0.89525918947E+01 0.85718212512E+01 0.83112634397E+01 0.81066770229E+01 0.80201667599E+01
 0.81066770229E+01 0.83112634397E+01 0.85718212512E+01 0.89525918947E+01 0.96144072098E+01
 0.10773085598E+02 0.12808118994E+02 0.16230726322E+02 0.21204748876E+02 0.31816861647E+02
 0.58966695548E+02 0.10802616917E+03 0.17444889587E+03 0.24403936999E+03 0.29734792446E+03
 0.17596907838E+03 0.16427552190E+03 0.13350882168E+03 0.94417579515E+02 0.58966695548E+02
 0.35030251744E+02 0.23416079544E+02 0.18290782226E+02 0.14570839999E+02 0.12143760190E+02
 0.10757031514E+02 0.10006156917E+02 0.96144072098E+01 0.94239657388E+01 0.93213459530E+01
 0.92487835161E+01 0.92180017190E+01 0.92487835161E+01 0.93213459530E+01 0.94239657388E+01
 0.96144072098E+01 0.10006156917E+02 0.10757031514E+02 0.12143760190E+02 0.14570839999E+02
 0.18290782226E+02 0.23416079544E+02 0.35030251744E+02 0.58966695548E+02 0.94417579515E+02
 0.13350882168E+03 0.16427552190E+03 0.82998126012E+02 0.77458870899E+02 0.63214419740E+02
 0.46027920758E+02 0.31816861647E+02 0.23416079544E+02 0.19063543781E+02 0.15672083673E+02
 0.13230372603E+02 0.11760493757E+02 0.11024671937E+02 0.10757031514E+02 0.10773085598E+02
 0.10946098156E+02 0.11163534173E+02 0.11330726144E+02 0.11391938502E+02 0.11330726144E+02
 0.11163534173E+02 0.10946098156E+02 0.10773085598E+02 0.10757031514E+02 0.11024671937E+02
 0.11760493757E+02 0.13230372603E+02 0.15672083673E+02 0.19063543781E+02 0.23416079544E+02
 0.31816861647E+02 0.46027920758E+02 0.63214419740E+02 0.77458870899E+02 0.36550793290E+02
 0.34697383554E+02 0.30126402308E+02 0.25058010681E+02 0.21204748876E+02 0.18290782226E+02
 0.15672083673E+02 0.13654253672E+02 0.12377224425E+02 0.11791245971E+02 0.11760493757E+02
 0.12143760190E+02 0.12808118994E+02 0.13605164844E+02 0.14361172977E+02 0.14902184992E+02
 0.15098494492E+02 0.14902184992E+02 0.14361172977E+02 0.13605164844E+02 0.12808118994E+02
 0.12143760190E+02 0.11760493757E+02 0.11791245971E+02 0.12377224425E+02 0.13654253672E+02
 0.15672083673E+02 0.18290782226E+02 0.21204748876E+02 0.25058010681E+02 0.30126402308E+02
 0.34697383554E+02 0.20892369558E+02 0.20488536577E+02 0.19438029893E+02 0.17951042490E+02
 0.16230726322E+02 0.14570839999E+02 0.13230372603E+02 0.12377224425E+02 0.12086787146E+02
 0.12377224425E+02 0.13230372603E+02 0.14570839999E+02 0.16230726322E+02 0.17951042490E+02
 0.19438029893E+02 0.20488536577E+02 0.20892369558E+02 0.20488536577E+02 0.19438029893E+02
 0.17951042490E+02 0.16230726322E+02 0.14570839999E+02 0.13230372603E+02 0.12377224425E+02
 0.12086787146E+02 0.12377224425E+02 0.13230372603E+02 0.14570839999E+02 0.16230726322E+02
 0.17951042490E+02 0.19438029893E+02 0.20488536577E+02 0.15098494492E+02 0.14902184992E+02
 0.14361172977E+02 0.13605164844E+02 0.12808118994E+02 0.12143760190E+02 0.11760493757E+02
 0.11791245971E+02 0.12377224425E+02 0.13654253672E+02 0.15672083673E+02 0.18290782226E+02
 0.21204748876E+02 0.25058010681E+02 0.30126402308E+02 0.34697383554E+02 0.36550793290E+02
 0.34697383554E+02 0.30126402308E+02 0.25058010681E+02 0.21204748876E+02 0.18290782226E+02
 0.15672083673E+02 0.13654253672E+02 0.12377224425E+02 0.11791245971E+02 0.11760493757E+02
 0.12143760190E+02 0.12808118994E+02 0.13605164844E+02 0.14361172977E+02 0.14902184992E+02
 0.11391938502E+02 0.11330726144E+02 0.11163534173E+02 0.10946098156E+02 0.10773085598E+02
 0.10757031514E+02 0.11024671937E+02 0.11760493757E+02 0.13230372603E+02 0.15672083673E+02
 0.19063543781E+02 0.23416079544E+02 0.31816861647E+02 0.46027920758E+02 0.63214419740E+02
 0.77458870899E+02 0.82998126012E+02 0.77458870899E+02 0.63214419740E+02 0.46027920758E+02
 0.31816861647E+02 0.23416079544E+02 0.19063543781E+02 0.15672083673E+02 0.13230372603E+02
 0.11760493757E+02 0.11024671937E+02 0.10757031514E+02 0.10773085598E+02 0.10946098156E+02
 0.11163534173E+02 0.11330726144E+02 0.92180017190E+01 0.92487835161E+01 0.93213459530E+01
 0.94239657388E+01 0.96144072098E+01 0.10006156917E+02 0.10757031514E+02 0.12143760190E+02
 0.14570839999E+02 0.18290782226E+02 0.23416079544E+02 0.35030251744E+02 0.58966695548E+02
 0.94417579515E+02 0.13350882168E+03 0.16427552190E+03 0.17596907838E+03 0.16427552190E+03
 0.13350882168E+03 0.94417579515E+02 0.58966695548E+02 0.35030251744E+02 0.23416079544E+02
 0.18290782226E+02 0.14570839999E+02 0.12143760190E+02 0.10757031514E+02 0.10006156917E+02
 0.96144072098E+01 0.94239657388E+01 0.93213459530E+01 0.92487835161E+01 0.80201667599E+01
 0.81066770229E+01 0.83112634397E+01 0.85718212512E+01 0.89525918947E+01 0.96144072098E+01
 0.10773085598E+02 0.12808118994E+02 0.16230726322E+02 0.21204748876E+02 0.31816861647E+02
 0.58966695548E+02 0.10802616917E+03 0.17444889587E+03 0.24403936999E+03 0.29734792446E+03
 0.31737547383E+03 0.29734792446E+03 0.24403936999E+03 0.17444889587E+03 0.10802616917E+03
 0.58966695548E+02 0.31816861647E+02 0.21204748876E+02 0.16230726322E+02 0.12808118994E+02
 0.10773085598E+02 0.96144072098E+01 0.89525918947E+01 0.85718212512E+01 0.83112634397E+01
 0.81066770229E+01 0.74161514495E+01 0.75326455206E+01 0.77951515625E+01 0.81075137456E+01
 0.85718212512E+01 0.94239657388E+01 0.10946098156E+02 0.13605164844E+02 0.17951042490E+02
 0.25058010681E+02 0.46027920758E+02 0.94417579515E+02 0.17444889587E+03 0.27746619455E+03
 0.38251793841E+03 0.46192411524E+03 0.49159698639E+03 0.46192411524E+03 0.38251793841E+03
 0.27746619455E+03 0.17444889587E+03 0.94417579515E+02 0.46027920758E+02 0.25058010681E+02
 0.17951042490E+02 0.13605164844E+02 0.10946098156E+02 0.94239657388E+01 0.85718212512E+01
 0.81075137456E+01 0.77951515625E+01 0.75326455206E+01 0.70294487944E+01 0.71664904820E+01
 0.74623538356E+01 0.77951515625E+01 0.83112634397E+01 0.93213459530E+01 0.11163534173E+02
 0.14361172977E+02 0.19438029893E+02 0.30126402308E+02 0.63214419740E+02 0.13350882168E+03
 0.24403936999E+03 0.38251793841E+03 0.52186224985E+03 0.62658023647E+03 0.66563281310E+03
 0.62658023647E+03 0.52186224985E+03 0.38251793841E+03 0.24403936999E+03 0.13350882168E+03
 0.63214419740E+02 0.30126402308E+02 0.19438029893E+02 0.14361172977E+02 0.11163534173E+02
 0.93213459530E+01 0.83112634397E+01 0.77951515625E+01 0.74623538356E+01 0.71664904820E+01
 0.66766277651E+01 0.68333443883E+01 0.71664904820E+01 0.75326455206E+01 0.81066770229E+01
 0.92487835161E+01 0.11330726144E+02 0.14902184992E+02 0.20488536577E+02 0.34697383554E+02
 0.77458870899E+02 0.16427552190E+03 0.29734792446E+03 0.46192411524E+03 0.62658023647E+03
 0.75006602198E+03 0.79609368647E+03 0.75006602198E+03 0.62658023647E+03 0.46192411524E+03
 0.29734792446E+03 0.16427552190E+03 0.77458870899E+02 0.34697383554E+02 0.20488536577E+02
 0.14902184992E+02 0.11330726144E+02 0.92487835161E+01 0.81066770229E+01 0.75326455206E+01
 0.71664904820E+01 0.68333443883E+01 0.65104994575E+01 0.66766277651E+01 0.70294487944E+01
 0.74161514495E+01 0.80201667599E+01 0.92180017190E+01 0.11391938502E+02 0.15098494492E+02
 0.20892369558E+02 0.36550793290E+02 0.82998126012E+02 0.17596907838E+03 0.31737547383E+03
 0.49159698639E+03 0.66563281310E+03 0.79609368647E+03 0.84471817702E+03 0.79609368647E+03
 0.66563281310E+03 0.49159698639E+03 0.31737547383E+03 0.17596907838E+03 0.82998126012E+02
 0.36550793290E+02 0.20892369558E+02 0.15098494492E+02 0.11391938502E+02 0.92180017190E+01
 0.80201667599E+01 0.74161514495E+01 0.70294487944E+01 0.66766277651E+01 0.66766277651E+01
 0.68333443883E+01 0.71664904820E+01 0.75326455206E+01 0.81066770229E+01 0.92487835161E+01
 0.11330726144E+02 0.14902184992E+02 0.20488536577E+02 0.34697383554E+02 0.77458870899E+02
 0.16427552190E+03 0.29734792446E+03 0.46192411524E+03 0.62658023647E+03 0.75006602198E+03
 0.79609368647E+03 0.75006602198E+03 0.62658023647E+03 0.46192411524E+03 0.29734792446E+03
 0.16427552190E+03 0.77458870899E+02 0.34697383554E+02 0.20488536577E+02 0.14902184992E+02
 0.11330726144E+02 0.92487835161E+01 0.81066770229E+01 0.75326455206E+01 0.71664904820E+01
 0.68333443883E+01 0.70294487944E+01 0.71664904820E+01 0.74623538356E+01 0.77951515625E+01
 0.83112634397E+01 0.93213459530E+01 0.11163534173E+02 0.14361172977E+02 0.19438029893E+02
 0.30126402308E+02 0.63214419740E+02 0.13350882168E+03 0.24403936999E+03 0.38251793841E+03
 0.52186224985E+03 0.62658023647E+03 0.66563281310E+03 0.62658023647E+03 0.52186224985E+03
 0.38251793841E+03 0.24403936999E+03 0.13350882168E+03 0.63214419740E+02 0.30126402308E+02
 0.19438029893E+02 0.14361172977E+02 0.11163534173E+02 0.93213459530E+01 0.83112634397E+01
 0.77951515625E+01 0.74623538356E+01 0.71664904820E+01 0.74161514495E+01 0.75326455206E+01
 0.77951515625E+01 0.81075137456E+01 0.85718212512E+01 0.94239657388E+01 0.10946098156E+02
 0.13605164844E+02 0.17951042490E+02 0.25058010681E+02 0.46027920758E+02 0.94417579515E+02
 0.17444889587E+03 0.27746619455E+03 0.38251793841E+03 0.46192411524E+03 0.49159698639E+03
 0.46192411524E+03 0.38251793841E+03 0.27746619455E+03 0.17444889587E+03 0.94417579515E+02
 0.46027920758E+02 0.25058010681E+02 0.17951042490E+02 0.13605164844E+02 0.10946098156E+02
 0.94239657388E+01 0.85718212512E+01 0.81075137456E+01 0.77951515625E+01 0.75326455206E+01
 0.80201667599E+01 0.81066770229E+01 0.83112634397E+01 0.85718212512E+01 0.89525918947E+01
 0.96144072098E+01 0.10773085598E+02 0.12808118994E+02 0.16230726322E+02 0.21204748876E+02
 0.31816861647E+02 0.58966695548E+02 0.10802616917E+03 0.17444889587E+03 0.24403936999E+03
 0.29734792446E+03 0.31737547383E+03 0.29734792446E+03 0.24403936999E+03 0.17444889587E+03
 0.10802616917E+03 0.58966695548E+02 0.31816861647E+02 0.21204748876E+02 0.16230726322E+02
 0.12808118994E+02 0.10773085598E+02 0.96144072098E+01 0.89525918947E+01 0.85718212512E+01
 0.83112634397E+01 0.81066770229E+01 0.92180017190E+01 0.92487835161E+01 0.93213459530E+01
 0.94239657388E+01 0.96144072098E+01 0.10006156917E+02 0.10757031514E+02 0.12143760190E+02
 0.14570839999E+02 0.18290782226E+02 0.23416079544E+02 0.35030251744E+02 0.58966695548E+02
 0.94417579515E+02 0.13350882168E+03 0.16427552190E+03 0.17596907838E+03 0.16427552190E+03
 0.13350882168E+03 0.94417579515E+02 0.58966695548E+02 0.35030251744E+02 0.23416079544E+02
 0.18290782226E+02 0.14570839999E+02 0.12143760190E+02 0.10757031514E+02 0.10006156917E+02
 0.96144072098E+01 0.94239657388E+01 0.93213459530E+01 0.92487835161E+01 0.11391938502E+02
 0.11330726144E+02 0.11163534173E+02 0.10946098156E+02 0.10773085598E+02 0.10757031514E+02
 0.11024671937E+02 0.11760493757E+02 0.13230372603E+02 0.15672083673E+02 0.19063543781E+02
 0.23416079544E+02 0.31816861647E+02 0.46027920758E+02 0.63214419740E+02 0.77458870899E+02
 0.82998126012E+02 0.77458870899E+02 0.63214419740E+02 0.46027920758E+02 0.31816861647E+02
 0.23416079544E+02 0.19063543781E+02 0.15672083673E+02 0.13230372603E+02 0.11760493757E+02
 0.11024671937E+02 0.10757031514E+02 0.10773085598E+02 0.10946098156E+02 0.11163534173E+02
 0.11330726144E+02 0.15098494492E+02 0.14902184992E+02 0.14361172977E+02 0.13605164844E+02
 0.12808118994E+02 0.12143760190E+02 0.11760493757E+02 0.11791245971E+02 0.12377224425E+02
 0.13654253672E+02 0.15672083673E+02 0.18290782226E+02 0.21204748876E+02 0.25058010681E+02
 0.30126402308E+02 0.34697383554E+02 0.36550793290E+02 0.34697383554E+02 0.30126402308E+02
 0.25058010681E+02 0.21204748876E+02 0.18290782226E+02 0.15672083673E+02 0.13654253672E+02
 0.12377224425E+02 0.11791245971E+02 0.11760493757E+02 0.12143760190E+02 0.12808118994E+02
 0.13605164844E+02 0.14361172977E+02 0.14902184992E+02 0.20892369558E+02 0.20488536577E+02
 0.19438029893E+02 0.17951042490E+02 0.16230726322E+02 0.14570839999E+02 0.13230372603E+02
 0.12377224425E+02 0.12086787146E+02 0.12377224425E+02 0.13230372603E+02 0.14570839999E+02
 0.16230726322E+02 0.17951042490E+02 0.19438029893E+02 0.20488536577E+02 0.20892369558E+02
 0.20488536577E+02 0.19438029893E+02 0.17951042490E+02 0.16230726322E+02 0.14570839999E+02
 0.13230372603E+02 0.12377224425E+02 0.12086787146E+02 0.12377224425E+02 0.13230372603E+02
 0.14570839999E+02 0.16230726322E+02 0.17951042490E+02 0.19438029893E+02 0.20488536577E+02
 0.36550793290E+02 0.34697383554E+02 0.30126402308E+02 0.25058010681E+02 0.21204748876E+02
 0.18290782226E+02 0.15672083673E+02 0.13654253672E+02 0.12377224425E+02 0.11791245971E+02
 0.11760493757E+02 0.12143760190E+02 0.12808118994E+02 0.13605164844E+02 0.14361172977E+02
 0.14902184992E+02 0.15098494492E+02 0.14902184992E+02 0.14361172977E+02 0.13605164844E+02
 0.12808118994E+02 0.12143760190E+02 0.11760493757E+02 0.11791245971E+02 0.12377224425E+02
 0.13654253672E+02 0.15672083673E+02 0.18290782226E+02 0.21204748876E+02 0.25058010681E+02
 0.30126402308E+02 0.34697383554E+02 0.82998126012E+02 0.77458870899E+02 0.63214419740E+02
 0.46027920758E+02 0.31816861647E+02 0.23416079544E+02 0.19063543781E+02 0.15672083673E+02
 0.13230372603E+02 0.11760493757E+02 0.11024671937E+02 0.10757031514E+02 0.10773085598E+02
 0.10946098156E+02 0.11163534173E+02 0.11330726144E+02 0.11391938502E+02 0.11330726144E+02
 0.11163534173E+02 0.10946098156E+02 0.10773085598E+02 0.10757031514E+02 0.11024671937E+02
 0.11760493757E+02 0.13230372603E+02 0.15672083673E+02 0.19063543781E+02 0.23416079544E+02
 0.31816861647E+02 0.46027920758E+02 0.63214419740E+02 0.77458870899E+02 0.17596907838E+03
 0.16427552190E+03 0.13350882168E+03 0.94417579515E+02 0.58966695548E+02 0.35030251744E+02
 0.23416079544E+02 0.18290782226E+02 0.14570839999E+02 0.12143760190E+02 0.10757031514E+02
 0.10006156917E+02 0.96144072098E+01 0.94239657388E+01 0.93213459530E+01 0.92487835161E+01
 0.92180017190E+01 0.92487835161E+01 0.93213459530E+01 0.94239657388E+01 0.96144072098E+01
 0.10006156917E+02 0.10757031514E+02 0.12143760190E+02 0.14570839999E+02 0.18290782226E+02
 0.23416079544E+02 0.35030251744E+02 0.58966695548E+02 0.94417579515E+02 0.13350882168E+03
 0.16427552190E+03 0.31737547383E+03 0.29734792446E+03 0.24403936999E+03 0.17444889587E+03
 0.10802616917E+03 0.58966695548E+02 0.31816861647E+02 0.21204748876E+02 0.16230726322E+02
 0.12808118994E+02 0.10773085598E+02 0.96144072098E+01 0.89525918947E+01 0.85718212512E+01
 0.83112634397E+01 0.81066770229E+01 0.80201667599E+01 0.81066770229E+01 0.83112634397E+01
 0.85718212512E+01 0.89525918947E+01 0.96144072098E+01 0.10773085598E+02 0.12808118994E+02
 0.16230726322E+02 0.21204748876E+02 0.31816861647E+02 0.58966695548E+02 0.10802616917E+03
 0.17444889587E+03 0.24403936999E+03 0.29734792446E+03 0.49159698639E+03 0.46192411524E+03
 0.38251793841E+03 0.27746619455E+03 0.17444889587E+03 0.94417579515E+02 0.46027920758E+02
 0.25058010681E+02 0.17951042490E+02 0.13605164844E+02 0.10946098156E+02 0.94239657388E+01
 0.85718212512E+01 0.81075137456E+01 0.77951515625E+01 0.75326455206E+01 0.74161514495E+01
 0.75326455206E+01 0.77951515625E+01 0.81075137456E+01 0.85718212512E+01 0.94239657388E+01
 0.10946098156E+02 0.13605164844E+02 0.17951042490E+02 0.25058010681E+02 0.46027920758E+02
 0.94417579515E+02 0.17444889587E+03 0.27746619455E+03 0.38251793841E+03 0.46192411524E+03
 0.66563281310E+03 0.62658023647E+03 0.52186224985E+03 0.38251793841E+03 0.24403936999E+03
 0.13350882168E+03 0.63214419740E+02 0.30126402308E+02 0.19438029893E+02 0.14361172977E+02
 0.11163534173E+02 0.93213459530E+01 0.83112634397E+01 0.77951515625E+01 0.74623538356E+01
 0.71664904820E+01 0.70294487944E+01 0.71664904820E+01 0.74623538356E+01 0.77951515625E+01
 0.83112634397E+01 0.93213459530E+01 0.11163534173E+02 0.14361172977E+02 0.19438029893E+02
 0.30126402308E+02 0.63214419740E+02 0.13350882168E+03 0.24403936999E+03 0.38251793841E+03
 0.52186224985E+03 0.62658023647E+03 0.79609368647E+03 0.75006602198E+03 0.62658023647E+03
 0.46192411524E+03 0.29734792446E+03 0.16427552190E+03 0.77458870899E+02 0.34697383554E+02
 0.20488536577E+02 0.14902184992E+02 0.11330726144E+02 0.92487835161E+01 0.81066770229E+01
 0.75326455206E+01 0.71664904820E+01 0.68333443883E+01 0.66766277651E+01 0.68333443883E+01
 0.71664904820E+01 0.75326455206E+01 0.81066770229E+01 0.92487835161E+01 0.11330726144E+02
 0.14902184992E+02 0.20488536577E+02 0.34697383554E+02 0.77458870899E+02 0.16427552190E+03
 0.29734792446E+03 0.46192411524E+03 0.62658023647E+03 0.75006602198E+03 0.79609368647E+03
 0.75006602198E+03 0.62658023647E+03 0.46192411524E+03 0.29734792446E+03 0.16427552190E+03
 0.77458870899E+02 0.34697383554E+02 0.20488536577E+02 0.14902184992E+02 0.11330726144E+02
 0.92487835161E+01 0.81066770229E+01 0.75326455206E+01 0.71664904820E+01 0.68333443883E+01
 0.66766277651E+01 0.68333443883E+01 0.71664904820E+01 0.75326455206E+01 0.81066770229E+01
 0.92487835161E+01 0.11330726144E+02 0.14902184992E+02 0.20488536577E+02 0.34697383554E+02
 0.77458870899E+02 0.16427552190E+03 0.29734792446E+03 0.46192411524E+03 0.62658023647E+03
 0.75006602198E+03 0.75006602198E+03 0.70649931790E+03 0.58962891026E+03 0.43388026866E+03
 0.27847350513E+03 0.15331988211E+03 0.72327166159E+02 0.33013887378E+02 0.20111422986E+02
 0.14710635950E+02 0.11270672864E+02 0.92772342477E+01 0.81883545334E+01 0.76427093169E+01
 0.72958425737E+01 0.69811927354E+01 0.68333443883E+01 0.69811927354E+01 0.72958425737E+01
 0.76427093169E+01 0.81883545334E+01 0.92772342477E+01 0.11270672864E+02 0.14710635950E+02
 0.20111422986E+02 0.33013887378E+02 0.72327166159E+02 0.15331988211E+03 0.27847350513E+03
 0.43388026866E+03 0.58962891026E+03 0.70649931790E+03 0.62658023647E+03 0.58962891026E+03
 0.49057108911E+03 0.35887247345E+03 0.22828012217E+03 0.12453782951E+03 0.59162607997E+02
 0.28873862229E+02 0.19107359591E+02 0.14183779571E+02 0.11107519531E+02 0.93449318992E+01
 0.83822769498E+01 0.78913914896E+01 0.75755935074E+01 0.72958425737E+01 0.71664904820E+01
 0.72958425737E+01 0.75755935074E+01 0.78913914896E+01 0.83822769498E+01 0.93449318992E+01
 0.11107519531E+02 0.14183779571E+02 0.19107359591E+02 0.28873862229E+02 0.59162607997E+02
 0.12453782951E+03 0.22828012217E+03 0.35887247345E+03 0.49057108911E+03 0.58962891026E+03
 0.46192411524E+03 0.43388026866E+03 0.35887247345E+03 0.25977886191E+03 0.16290196628E+03
 0.88095213552E+02 0.43364470359E+02 0.24299777096E+02 0.17651444820E+02 0.13449843116E+02
 0.10896672040E+02 0.94422576494E+01 0.86306269513E+01 0.81885534398E+01 0.78913914896E+01
 0.76427093169E+01 0.75326455206E+01 0.76427093169E+01 0.78913914896E+01 0.81885534398E+01
 0.86306269513E+01 0.94422576494E+01 0.10896672040E+02 0.13449843116E+02 0.17651444820E+02
 0.24299777096E+02 0.43364470359E+02 0.88095213552E+02 0.16290196628E+03 0.25977886191E+03
 0.35887247345E+03 0.43388026866E+03 0.29734792446E+03 0.27847350513E+03 0.22828012217E+03
 0.16290196628E+03 0.10077514081E+03 0.55261503332E+02 0.30418976962E+02 0.20781485618E+02
 0.15975183332E+02 0.12678422600E+02 0.10729086315E+02 0.96237255250E+01 0.89936493961E+01
 0.86306269513E+01 0.83822769498E+01 0.81883545334E+01 0.81066770229E+01 0.81883545334E+01
 0.83822769498E+01 0.86306269513E+01 0.89936493961E+01 0.96237255250E+01 0.10729086315E+02
 0.12678422600E+02 0.15975183332E+02 0.20781485618E+02 0.30418976962E+02 0.55261503332E+02
 0.10077514081E+03 0.16290196628E+03 0.22828012217E+03 0.27847350513E+03 0.16427552190E+03
 0.15331988211E+03 0.12453782951E+03 0.88095213552E+02 0.55261503332E+02 0.33337409580E+02
 0.22823285464E+02 0.17960454703E+02 0.14366019704E+02 0.12036554610E+02 0.10711425263E+02
 0.99963235608E+01 0.96237255250E+01 0.94422576494E+01 0.93449318992E+01 0.92772342477E+01
 0.92487835161E+01 0.92772342477E+01 0.93449318992E+01 0.94422576494E+01 0.96237255250E+01
 0.99963235608E+01 0.10711425263E+02 0.12036554610E+02 0.14366019704E+02 0.17960454703E+02
 0.22823285464E+02 0.33337409580E+02 0.55261503332E+02 0.88095213552E+02 0.12453782951E+03
 0.15331988211E+03 0.77458870899E+02 0.72327166159E+02 0.59162607997E+02 0.43364470359E+02
 0.30418976962E+02 0.22823285464E+02 0.18706129395E+02 0.15420223302E+02 0.13072093575E+02
 0.11665609523E+02 0.10964493118E+02 0.10711425263E+02 0.10729086315E+02 0.10896672040E+02
 0.11107519531E+02 0.11270672864E+02 0.11330726144E+02 0.11270672864E+02 0.11107519531E+02
 0.10896672040E+02 0.10729086315E+02 0.10711425263E+02 0.10964493118E+02 0.11665609523E+02
 0.13072093575E+02 0.15420223302E+02 0.18706129395E+02 0.22823285464E+02 0.30418976962E+02
 0.43364470359E+02 0.59162607997E+02 0.72327166159E+02 0.34697383554E+02 0.33013887378E+02
 0.28873862229E+02 0.24299777096E+02 0.20781485618E+02 0.17960454703E+02 0.15420223302E+02
 0.13475658831E+02 0.12251124772E+02 0.11692030358E+02 0.11665609523E+02 0.12036554610E+02
 0.12678422600E+02 0.13449843116E+02 0.14183779571E+02 0.14710635950E+02 0.14902184992E+02
 0.14710635950E+02 0.14183779571E+02 0.13449843116E+02 0.12678422600E+02 0.12036554610E+02
 0.11665609523E+02 0.11692030358E+02 0.12251124772E+02 0.13475658831E+02 0.15420223302E+02
 0.17960454703E+02 0.20781485618E+02 0.24299777096E+02 0.28873862229E+02 0.33013887378E+02
 0.20488536577E+02 0.20111422986E+02 0.19107359591E+02 0.17651444820E+02 0.15975183332E+02
 0.14366019704E+02 0.13072093575E+02 0.12251124772E+02 0.11972100325E+02 0.12251124772E+02
 0.13072093575E+02 0.14366019704E+02 0.15975183332E+02 0.17651444820E+02 0.19107359591E+02
 0.20111422986E+02 0.20488536577E+02 0.20111422986E+02 0.19107359591E+02 0.17651444820E+02
 0.15975183332E+02 0.14366019704E+02 0.13072093575E+02 0.12251124772E+02 0.11972100325E+02
 0.12251124772E+02 0.13072093575E+02 0.14366019704E+02 0.15975183332E+02 0.17651444820E+02
 0.19107359591E+02 0.20111422986E+02 0.14902184992E+02 0.14710635950E+02 0.14183779571E+02
 0.13449843116E+02 0.12678422600E+02 0.12036554610E+02 0.11665609523E+02 0.11692030358E+02
 0.12251124772E+02 0.13475658831E+02 0.15420223302E+02 0.17960454703E+02 0.20781485618E+02
 0.24299777096E+02 0.28873862229E+02 0.33013887378E+02 0.34697383554E+02 0.33013887378E+02
 0.28873862229E+02 0.24299777096E+02 0.20781485618E+02 0.17960454703E+02 0.15420223302E+02
 0.13475658831E+02 0.12251124772E+02 0.11692030358E+02 0.11665609523E+02 0.12036554610E+02
 0.12678422600E+02 0.13449843116E+02 0.14183779571E+02 0.14710635950E+02 0.11330726144E+02
 0.11270672864E+02 0.11107519531E+02 0.10896672040E+02 0.10729086315E+02 0.10711425263E+02
 0.10964493118E+02 0.11665609523E+02 0.13072093575E+02 0.15420223302E+02 0.18706129395E+02
 0.22823285464E+02 0.30418976962E+02 0.43364470359E+02 0.59162607997E+02 0.72327166159E+02
 0.77458870899E+02 0.72327166159E+02 0.59162607997E+02 0.43364470359E+02 0.30418976962E+02
 0.22823285464E+02 0.18706129395E+02 0.15420223302E+02 0.13072093575E+02 0.11665609523E+02
 0.10964493118E+02 0.10711425263E+02 0.10729086315E+02 0.10896672040E+02 0.11107519531E+02
 0.11270672864E+02 0.92487835161E+01 0.92772342477E+01 0.93449318992E+01 0.94422576494E+01
 0.96237255250E+01 0.99963235608E+01 0.10711425263E+02 0.12036554610E+02 0.14366019704E+02
 0.17960454703E+02 0.22823285464E+02 0.33337409580E+02 0.55261503332E+02 0.88095213552E+02
 0.12453782951E+03 0.15331988211E+03 0.16427552190E+03 0.15331988211E+03 0.12453782951E+03
 0.88095213552E+02 0.55261503332E+02 0.33337409580E+02 0.22823285464E+02 0.17960454703E+02
 0.14366019704E+02 0.12036554610E+02 0.10711425263E+02 0.99963235608E+01 0.96237255250E+01
 0.94422576494E+01 0.93449318992E+01 0.92772342477E+01 0.81066770229E+01 0.81883545334E+01
 0.83822769498E+01 0.86306269513E+01 0.89936493961E+01 0.96237255250E+01 0.10729086315E+02
 0.12678422600E+02 0.15975183332E+02 0.20781485618E+02 0.30418976962E+02 0.55261503332E+02
 0.10077514081E+03 0.16290196628E+03 0.22828012217E+03 0.27847350513E+03 0.29734792446E+03
 0.27847350513E+03 0.22828012217E+03 0.16290196628E+03 0.10077514081E+03 0.55261503332E+02
 0.30418976962E+02 0.20781485618E+02 0.15975183332E+02 0.12678422600E+02 0.10729086315E+02
 0.96237255250E+01 0.89936493961E+01 0.86306269513E+01 0.83822769498E+01 0.81883545334E+01
 0.75326455206E+01 0.76427093169E+01 0.78913914896E+01 0.81885534398E+01 0.86306269513E+01
 0.94422576494E+01 0.10896672040E+02 0.13449843116E+02 0.17651444820E+02 0.24299777096E+02
 0.43364470359E+02 0.88095213552E+02 0.16290196628E+03 0.25977886191E+03 0.35887247345E+03
 0.43388026866E+03 0.46192411524E+03 0.43388026866E+03 0.35887247345E+03 0.25977886191E+03
 0.16290196628E+03 0.88095213552E+02 0.43364470359E+02 0.24299777096E+02 0.17651444820E+02
 0.13449843116E+02 0.10896672040E+02 0.94422576494E+01 0.86306269513E+01 0.81885534398E+01
 0.78913914896E+01 0.76427093169E+01 0.71664904820E+01 0.72958425737E+01 0.75755935074E+01
 0.78913914896E+01 0.83822769498E+01 0.93449318992E+01 0.11107519531E+02 0.14183779571E+02
 0.19107359591E+02 0.28873862229E+02 0.59162607997E+02 0.12453782951E+03 0.22828012217E+03
 0.35887247345E+03 0.49057108911E+03 0.58962891026E+03 0.62658023647E+03 0.58962891026E+03
 0.49057108911E+03 0.35887247345E+03 0.22828012217E+03 0.12453782951E+03 0.59162607997E+02
 0.28873862229E+02 0.19107359591E+02 0.14183779571E+02 0.11107519531E+02 0.93449318992E+01
 0.83822769498E+01 0.78913914896E+01 0.75755935074E+01 0.72958425737E+01 0.68333443883E+01
 0.69811927354E+01 0.72958425737E+01 0.76427093169E+01 0.81883545334E+01 0.92772342477E+01
 0.11270672864E+02 0.14710635950E+02 0.20111422986E+02 0.33013887378E+02 0.72327166159E+02
 0.15331988211E+03 0.27847350513E+03 0.43388026866E+03 0.58962891026E+03 0.70649931790E+03
 0.75006602198E+03 0.70649931790E+03 0.58962891026E+03 0.43388026866E+03 0.27847350513E+03
 0.15331988211E+03 0.72327166159E+02 0.33013887378E+02 0.20111422986E+02 0.14710635950E+02
 0.11270672864E+02 0.92772342477E+01 0.81883545334E+01 0.76427093169E+01 0.72958425737E+01
 0.69811927354E+01 0.66766277651E+01 0.68333443883E+01 0.71664904820E+01 0.75326455206E+01
 0.81066770229E+01 0.92487835161E+01 0.11330726144E+02 0.14902184992E+02 0.20488536577E+02
 0.34697383554E+02 0.77458870899E+02 0.16427552190E+03 0.29734792446E+03 0.46192411524E+03
 0.62658023647E+03 0.75006602198E+03 0.79609368647E+03 0.75006602198E+03 0.62658023647E+03
 0.46192411524E+03 0.29734792446E+03 0.16427552190E+03 0.77458870899E+02 0.34697383554E+02
 0.20488536577E+02 0.14902184992E+02 0.11330726144E+02 0.92487835161E+01 0.81066770229E+01
 0.75326455206E+01 0.71664904820E+01 0.68333443883E+01 0.68333443883E+01 0.69811927354E+01
 0.72958425737E+01 0.76427093169E+01 0.81883545334E+01 0.92772342477E+01 0.11270672864E+02
 0.14710635950E+02 0.20111422986E+02 0.33013887378E+02 0.72327166159E+02 0.15331988211E+03
 0.27847350513E+03 0.43388026866E+03 0.58962891026E+03 0.70649931790E+03 0.75006602198E+03
 0.70649931790E+03 0.58962891026E+03 0.43388026866E+03 0.27847350513E+03 0.15331988211E+03
 0.72327166159E+02 0.33013887378E+02 0.20111422986E+02 0.14710635950E+02 0.11270672864E+02
 0.92772342477E+01 0.81883545334E+01 0.76427093169E+01 0.72958425737E+01 0.69811927354E+01
 0.71664904820E+01 0.72958425737E+01 0.75755935074E+01 0.78913914896E+01 0.83822769498E+01
 0.93449318992E+01 0.11107519531E+02 0.14183779571E+02 0.19107359591E+02 0.28873862229E+02
 0.59162607997E+02 0.12453782951E+03 0.22828012217E+03 0.35887247345E+03 0.49057108911E+03
 0.58962891026E+03 0.62658023647E+03 0.58962891026E+03 0.49057108911E+03 0.35887247345E+03
 0.22828012217E+03 0.12453782951E+03 0.59162607997E+02 0.28873862229E+02 0.19107359591E+02