   4   4   0   0
  0.1200752E+02  0.3635000E-09  0.3635000E-09  0.3635000E-09  0.5000000E-15
  1.000000000000000E-004
  CAR 
 unknown system                          
     27.68640852     -3.83834113  301      7.23273008      1.00000000
     -3.838  0.0000E+00  0.0000E+00
     -3.733  0.0000E+00  0.0000E+00
     -3.628  0.0000E+00  0.0000E+00
     -3.523 -0.5509E-31 -0.5789E-32
     -3.418 -0.2738E-27 -0.2878E-28
     -3.313 -0.7801E-24 -0.8200E-25
     -3.208 -0.1273E-20 -0.1338E-21
     -3.103 -0.1189E-17 -0.1250E-18
     -2.998 -0.6174E-15 -0.6500E-16
     -2.893 -0.1863E-12 -0.1965E-13
     -2.788 -0.3204E-10 -0.3387E-11
     -2.682 -0.3117E-08 -0.3309E-09
     -2.577 -0.1703E-06 -0.1822E-07
     -2.472 -0.5164E-05 -0.5609E-06
     -2.367 -0.8503E-04 -0.9496E-05
     -2.262 -0.7235E-03 -0.8552E-04
     -2.157 -0.2745E-02 -0.3740E-03
     -2.052 -0.1140E-02 -0.4937E-03
     -1.947  0.2093E-01  0.1705E-02
     -1.842  0.5606E-01  0.7597E-02
     -1.737  0.5018E-01  0.1287E-01
     -1.632  0.3549E-02  0.1324E-01
     -1.527  0.3353E-01  0.1677E-01
     -1.421  0.2289E+00  0.4082E-01
     -1.316  0.3801E+00  0.8076E-01
     -1.211  0.2313E+00  0.1051E+00
     -1.106  0.4454E-01  0.1097E+00
     -1.001  0.2514E+00  0.1362E+00
     -0.896  0.6892E+00  0.2086E+00
     -0.791  0.6780E+00  0.2798E+00
     -0.686  0.2421E+00  0.3053E+00
     -0.581  0.1030E+00  0.3161E+00
     -0.476  0.3745E+00  0.3554E+00
     -0.371  0.4866E+00  0.4066E+00
     -0.266  0.2292E+00  0.4307E+00
     -0.160  0.6452E-01  0.4375E+00
     -0.055  0.2239E+00  0.4610E+00
      0.050  0.3406E+00  0.4968E+00
      0.155  0.1627E+00  0.5139E+00
      0.260  0.2246E+00  0.5375E+00
      0.365  0.9847E+00  0.6409E+00
      0.470  0.1490E+01  0.7975E+00
      0.575  0.9401E+00  0.8963E+00
      0.680  0.6470E+00  0.9642E+00
      0.785  0.1289E+01  0.1100E+01
      0.890  0.1395E+01  0.1246E+01
      0.995  0.5727E+00  0.1307E+01
      1.101 -0.1252E-01  0.1305E+01
      1.206 -0.9658E-01  0.1295E+01
      1.311 -0.7015E-01  0.1288E+01
      1.416  0.6903E-01  0.1295E+01
      1.521  0.5060E+00  0.1348E+01
      1.626  0.1212E+01  0.1475E+01
      1.731  0.1924E+01  0.1678E+01
      1.836  0.1823E+01  0.1869E+01
      1.941  0.1011E+01  0.1975E+01
      2.046  0.1145E+01  0.2096E+01
      2.151  0.2019E+01  0.2308E+01
      2.256  0.2184E+01  0.2537E+01
      2.362  0.1774E+01  0.2724E+01
      2.467  0.1532E+01  0.2885E+01
      2.572  0.2279E+01  0.3124E+01
      2.677  0.4252E+01  0.3571E+01
      2.782  0.6331E+01  0.4236E+01
      2.887  0.6782E+01  0.4949E+01
      2.992  0.5645E+01  0.5542E+01
      3.097  0.4575E+01  0.6023E+01
      3.202  0.5988E+01  0.6652E+01
      3.307  0.9617E+01  0.7663E+01
      3.412  0.1050E+02  0.8766E+01
      3.517  0.8987E+01  0.9710E+01
      3.623  0.9271E+01  0.1068E+02
      3.728  0.9070E+01  0.1164E+02
      3.833  0.7340E+01  0.1241E+02
      3.938  0.8103E+01  0.1326E+02
      4.043  0.1107E+02  0.1442E+02
      4.148  0.1350E+02  0.1584E+02
      4.253  0.1576E+02  0.1750E+02
      4.358  0.1692E+02  0.1928E+02
      4.463  0.1648E+02  0.2101E+02
      4.568  0.1500E+02  0.2258E+02
      4.673  0.1251E+02  0.2390E+02
      4.778  0.1133E+02  0.2509E+02
      4.884  0.1266E+02  0.2642E+02
      4.989  0.1428E+02  0.2792E+02
      5.094  0.1404E+02  0.2940E+02
      5.199  0.1489E+02  0.3096E+02
      5.304  0.1665E+02  0.3271E+02
      5.409  0.1406E+02  0.3419E+02
      5.514  0.1173E+02  0.3542E+02
      5.619  0.1569E+02  0.3707E+02
      5.724  0.1965E+02  0.3913E+02
      5.829  0.1608E+02  0.4082E+02
      5.934  0.8788E+01  0.4175E+02
      6.039  0.4421E+01  0.4221E+02
      6.144  0.2837E+01  0.4251E+02
      6.250  0.2035E+01  0.4272E+02
      6.355  0.1192E+01  0.4285E+02
      6.460  0.3044E+00  0.4288E+02
      6.565 -0.9611E-01  0.4287E+02
      6.670 -0.4354E-01  0.4286E+02
      6.775  0.1227E+00  0.4288E+02
      6.880  0.1311E+00  0.4289E+02
      6.985  0.5196E+00  0.4295E+02
      7.090  0.2711E+01  0.4323E+02
      7.195  0.5339E+01  0.4379E+02
      7.300  0.4848E+01  0.4430E+02
      7.405  0.1999E+01  0.4451E+02
      7.511  0.8084E-01  0.4452E+02
      7.616 -0.2555E+00  0.4449E+02
      7.721  0.3021E+00  0.4452E+02
      7.826  0.1260E+01  0.4466E+02
      7.931  0.1494E+01  0.4481E+02
      8.036  0.6829E+00  0.4489E+02
      8.141 -0.2550E-01  0.4488E+02
      8.246 -0.1317E+00  0.4487E+02
      8.351  0.3397E+00  0.4491E+02
      8.456  0.1210E+01  0.4503E+02
      8.561  0.1389E+01  0.4518E+02
      8.666  0.8603E+00  0.4527E+02
      8.772  0.1294E+01  0.4540E+02
      8.877  0.2291E+01  0.4565E+02
      8.982  0.1889E+01  0.4584E+02
      9.087  0.5806E+00  0.4591E+02
      9.192 -0.1095E+00  0.4589E+02
      9.297 -0.1602E+00  0.4588E+02
      9.402  0.2121E+00  0.4590E+02
      9.507  0.1007E+01  0.4600E+02
      9.612  0.1425E+01  0.4615E+02
      9.717  0.1614E+01  0.4632E+02
      9.822  0.2782E+01  0.4662E+02
      9.927  0.3439E+01  0.4698E+02
     10.033  0.2113E+01  0.4720E+02
     10.138  0.5080E+00  0.4725E+02
     10.243 -0.8560E-01  0.4724E+02
     10.348 -0.9107E-01  0.4723E+02
     10.453 -0.4074E-01  0.4723E+02
     10.558 -0.4308E-01  0.4723E+02
     10.663  0.5027E-01  0.4723E+02
     10.768  0.4309E+00  0.4728E+02
     10.873  0.7749E+00  0.4736E+02
     10.978  0.5599E+00  0.4742E+02
     11.083  0.1018E+00  0.4743E+02
     11.188 -0.1145E+00  0.4742E+02
     11.294  0.2502E-01  0.4742E+02
     11.399  0.7110E+00  0.4749E+02
     11.504  0.1439E+01  0.4764E+02
     11.609  0.1434E+01  0.4779E+02
     11.714  0.1453E+01  0.4795E+02
     11.819  0.1942E+01  0.4815E+02
     11.924  0.2094E+01  0.4837E+02
     12.029  0.1568E+01  0.4854E+02
     12.134  0.8956E+00  0.4863E+02
     12.239  0.5916E+00  0.4869E+02
     12.344  0.8414E+00  0.4878E+02
     12.449  0.2136E+01  0.4901E+02
     12.555  0.3018E+01  0.4932E+02
     12.660  0.1872E+01  0.4952E+02
     12.765  0.8222E+00  0.4961E+02
     12.870  0.1227E+01  0.4973E+02
     12.975  0.1305E+01  0.4987E+02
     13.080  0.5769E+00  0.4993E+02
     13.185  0.2999E+00  0.4996E+02
     13.290  0.4526E+00  0.5001E+02
     13.395  0.3201E+00  0.5005E+02
     13.500  0.1424E-01  0.5005E+02
     13.605 -0.1762E+00  0.5003E+02
     13.710  0.4331E-01  0.5003E+02
     13.816  0.1374E+01  0.5018E+02
     13.921  0.2985E+01  0.5049E+02
     14.026  0.2553E+01  0.5076E+02
     14.131  0.7488E+00  0.5084E+02
     14.236 -0.1481E+00  0.5082E+02
     14.341  0.2720E-01  0.5082E+02
     14.446  0.8243E+00  0.5091E+02
     14.551  0.1826E+01  0.5110E+02
     14.656  0.1951E+01  0.5131E+02
     14.761  0.1063E+01  0.5142E+02
     14.866  0.6398E+00  0.5149E+02
     14.971  0.1192E+01  0.5161E+02
     15.077  0.1529E+01  0.5177E+02
     15.182  0.1586E+01  0.5194E+02
     15.287  0.1905E+01  0.5214E+02
     15.392  0.2000E+01  0.5235E+02
     15.497  0.2472E+01  0.5261E+02
     15.602  0.3088E+01  0.5293E+02
     15.707  0.2042E+01  0.5315E+02
     15.812  0.3523E+00  0.5319E+02
     15.917 -0.1772E+00  0.5317E+02
     16.022  0.4266E+00  0.5321E+02
     16.127  0.1358E+01  0.5336E+02
     16.232  0.1360E+01  0.5350E+02
     16.337  0.5406E+00  0.5355E+02
     16.443  0.3583E+00  0.5359E+02
     16.548  0.9473E+00  0.5369E+02
     16.653  0.1359E+01  0.5383E+02
     16.758  0.1513E+01  0.5399E+02
     16.863  0.1776E+01  0.5418E+02
     16.968  0.2015E+01  0.5439E+02
     17.073  0.2283E+01  0.5463E+02
     17.178  0.2332E+01  0.5488E+02
     17.283  0.1678E+01  0.5505E+02
     17.388  0.7635E+00  0.5513E+02
     17.493  0.2607E+00  0.5516E+02
     17.598  0.3123E+00  0.5519E+02
     17.704  0.9923E+00  0.5530E+02
     17.809  0.1426E+01  0.5545E+02
     17.914  0.9514E+00  0.5555E+02
     18.019  0.1054E+01  0.5566E+02
     18.124  0.2258E+01  0.5590E+02
     18.229  0.2847E+01  0.5620E+02
     18.334  0.2136E+01  0.5642E+02
     18.439  0.8854E+00  0.5651E+02
     18.544  0.3566E+00  0.5655E+02
     18.649  0.1256E+01  0.5668E+02
     18.754  0.2467E+01  0.5694E+02
     18.859  0.2448E+01  0.5720E+02
     18.965  0.1424E+01  0.5735E+02
     19.070  0.1582E+01  0.5751E+02
     19.175  0.3574E+01  0.5789E+02
     19.280  0.4203E+01  0.5833E+02
     19.385  0.2122E+01  0.5855E+02
     19.490  0.2007E+00  0.5858E+02
     19.595 -0.2079E+00  0.5855E+02
     19.700 -0.8278E-01  0.5855E+02
     19.805 -0.1965E-01  0.5854E+02
     19.910 -0.4326E-01  0.5854E+02
     20.015 -0.1087E+00  0.5853E+02
     20.120  0.7177E-01  0.5853E+02
     20.226  0.1017E+01  0.5864E+02
     20.331  0.2351E+01  0.5889E+02
     20.436  0.2681E+01  0.5917E+02
     20.541  0.1613E+01  0.5934E+02
     20.646  0.3731E+00  0.5938E+02
     20.751 -0.9178E-01  0.5937E+02
     20.856 -0.7264E-01  0.5936E+02
     20.961 -0.1640E-01  0.5936E+02
     21.066 -0.1777E-02  0.5936E+02
     21.171 -0.1019E-03  0.5936E+02
     21.276 -0.3203E-05  0.5936E+02
     21.381 -0.5615E-07  0.5936E+02
     21.487 -0.3265E-08  0.5936E+02
     21.592 -0.2267E-06  0.5936E+02
     21.697 -0.1063E-04  0.5936E+02
     21.802 -0.2752E-03  0.5936E+02
     21.907 -0.3834E-02  0.5936E+02
     22.012 -0.2697E-01  0.5936E+02
     22.117 -0.7706E-01  0.5935E+02
     22.222  0.4891E-01  0.5935E+02
     22.327  0.7422E+00  0.5943E+02
     22.432  0.1516E+01  0.5959E+02
     22.537  0.1236E+01  0.5972E+02
     22.642  0.3479E+00  0.5976E+02
     22.748 -0.5968E-01  0.5975E+02
     22.853 -0.5487E-01  0.5975E+02
     22.958 -0.1203E-01  0.5974E+02
     23.063 -0.1233E-02  0.5974E+02
     23.168 -0.6618E-04  0.5974E+02
     23.273 -0.1940E-05  0.5974E+02
     23.378 -0.3165E-07  0.5974E+02
     23.483 -0.2906E-09  0.5974E+02
     23.588 -0.1510E-11  0.5974E+02
     23.693 -0.4868E-14  0.5974E+02
     23.798  0.0000E+00  0.5974E+02
     23.903  0.0000E+00  0.5974E+02
     24.009 -0.1563E-29  0.5974E+02
     24.114 -0.7493E-26  0.5974E+02
     24.219 -0.2058E-22  0.5974E+02
     24.324 -0.3239E-19  0.5974E+02
     24.429 -0.2916E-16  0.5974E+02
     24.534 -0.1460E-13  0.5974E+02
     24.639 -0.4246E-11  0.5974E+02
     24.744 -0.7035E-09  0.5974E+02
     24.849 -0.6592E-07  0.5974E+02
     24.954 -0.3467E-05  0.5974E+02
     25.059 -0.1011E-03  0.5974E+02
     25.164 -0.1598E-02  0.5974E+02
     25.270 -0.1298E-01  0.5974E+02
     25.375 -0.4612E-01  0.5974E+02
     25.480 -0.8082E-02  0.5974E+02
     25.585  0.3744E+00  0.5978E+02
     25.690  0.9480E+00  0.5988E+02
     25.795  0.9210E+00  0.5997E+02
     25.900  0.3368E+00  0.6001E+02
     26.005 -0.1815E-01  0.6001E+02
     26.110 -0.4391E-01  0.6000E+02
     26.215 -0.1158E-01  0.6000E+02
     26.320 -0.1360E-02  0.6000E+02
     26.425 -0.8263E-04  0.6000E+02
     26.531 -0.2724E-05  0.6000E+02
     26.636 -0.4986E-07  0.6000E+02
     26.741 -0.5127E-09  0.6000E+02
     26.846 -0.2982E-11  0.6000E+02
     26.951 -0.9737E-14  0.6000E+02
     27.056  0.0000E+00  0.6000E+02
     27.161  0.0000E+00  0.6000E+02
     27.266  0.0000E+00  0.6000E+02
     27.371  0.0000E+00  0.6000E+02
     27.476  0.0000E+00  0.6000E+02
     27.581  0.0000E+00  0.6000E+02
     27.686  0.0000E+00  0.6000E+02
