<?xml version="1.0" encoding="ISO-8859-1"?>
<modeling>
 <generator>
  <i name="program" type="string">vasp </i>
  <i name="version" type="string">6.2.0  </i>
  <i name="subversion" type="string">18Jan21 (build Mar 17 2021 09:06:54) complex                          serial </i>
  <i name="platform" type="string">LinuxIFC </i>
  <i name="date" type="string">2021 08 03 </i>
  <i name="time" type="string">10:19:49 </i>
 </generator>
 <incar>
  <i type="string" name="PREC">normal</i>
  <i type="int" name="ICHARG">     1</i>
  <i type="int" name="IBRION">    -1</i>
  <i name="EDIFF">      0.00000100</i>
  <i type="int" name="NSW">     0</i>
  <i name="ENCUT">    270.00000000</i>
  <i type="int" name="NBANDS">    30</i>
  <i type="int" name="ISMEAR">     1</i>
  <i name="SIGMA">      0.20000000</i>
  <i type="logical" name="LCHARG"> T  </i>
  <i type="int" name="KPAR">     1</i>
  <i type="int" name="NCORE">     1</i>
  <i type="string" name="GGA">PE</i>
 </incar>
 <primitive_cell>
  <structure name="primitive_cell" >
   <crystal>
    <varray name="basis" >
     <v>       1.81750000      -1.81750000       0.00000000 </v>
     <v>       1.81750000       0.00000000       1.81750000 </v>
     <v>       0.00000000      -1.81750000       1.81750000 </v>
    </varray>
    <i name="volume">     12.00751822 </i>
    <varray name="rec_basis" >
     <v>       0.27510316      -0.27510316      -0.27510316 </v>
     <v>       0.27510316       0.27510316       0.27510316 </v>
     <v>      -0.27510316      -0.27510316       0.27510316 </v>
    </varray>
   </crystal>
   <varray name="positions" >
    <v>       0.00000000       0.00000000       0.00000000 </v>
   </varray>
  </structure>
  <varray name="primitive_index" >
   <v type="int" >        1 </v>
  </varray>
 </primitive_cell>
 <kpoints>
  <generation param="Monkhorst-Pack">
   <v type="int" name="divisions">       5        5        5 </v>
   <v name="usershift">      0.00000000       0.00000000       0.00000000 </v>
   <v name="genvec1">      0.20000000       0.00000000       0.00000000 </v>
   <v name="genvec2">      0.00000000       0.20000000       0.00000000 </v>
   <v name="genvec3">      0.00000000       0.00000000       0.20000000 </v>
   <v name="shift">      0.00000000       0.00000000       0.00000000 </v>
  </generation>
  <varray name="kpointlist" >
   <v>       0.00000000       0.00000000       0.00000000 </v>
   <v>       0.20000000       0.00000000       0.00000000 </v>
   <v>       0.40000000       0.00000000       0.00000000 </v>
   <v>       0.20000000       0.20000000       0.00000000 </v>
   <v>       0.40000000       0.20000000       0.00000000 </v>
   <v>       0.40000000       0.40000000       0.00000000 </v>
   <v>       0.20000000       0.20000000       0.20000000 </v>
   <v>       0.40000000       0.20000000       0.20000000 </v>
   <v>       0.40000000       0.40000000       0.20000000 </v>
   <v>       0.40000000       0.40000000       0.40000000 </v>
  </varray>
  <varray name="weights" >
   <v>       0.00800000 </v>
   <v>       0.04800000 </v>
   <v>       0.04800000 </v>
   <v>       0.09600000 </v>
   <v>       0.19200000 </v>
   <v>       0.09600000 </v>
   <v>       0.06400000 </v>
   <v>       0.19200000 </v>
   <v>       0.19200000 </v>
   <v>       0.06400000 </v>
  </varray>
 </kpoints>
 <parameters>
  <separator name="general" >
   <i type="string" name="SYSTEM">unknown system</i>
   <i type="logical" name="LCOMPAT"> F  </i>
  </separator>
  <separator name="electronic" >
   <i type="string" name="PREC">normal</i>
   <i name="ENMAX">    270.00000000</i>
   <i name="ENAUG">    586.98000000</i>
   <i name="EDIFF">      0.00000100</i>
   <i type="int" name="IALGO">    38</i>
   <i type="int" name="IWAVPR">     0</i>
   <i type="int" name="NBANDS">    30</i>
   <i type="int" name="NBANDSLOW">    -1</i>
   <i type="int" name="NBANDSHIGH">    -1</i>
   <i name="NELECT">     44.00000000</i>
   <i type="int" name="TURBO">     0</i>
   <i type="int" name="IRESTART">     0</i>
   <i type="int" name="NREBOOT">     0</i>
   <i type="int" name="NMIN">     0</i>
   <i name="EREF">      0.00000000</i>
   <separator name="electronic smearing" >
    <i type="int" name="ISMEAR">     1</i>
    <i name="SIGMA">      0.20000000</i>
    <i name="KSPACING">      0.50000000</i>
    <i type="logical" name="KGAMMA"> T  </i>
    <i type="logical" name="KBLOWUP"> T  </i>
   </separator>
   <separator name="electronic projectors" >
    <i type="logical" name="LREAL"> F  </i>
    <v name="ROPT">      0.00000000</v>
    <i type="int" name="LMAXPAW">  -100</i>
    <i type="int" name="LMAXMIX">     2</i>
    <i type="logical" name="NLSPLINE"> F  </i>
   </separator>
   <separator name="electronic startup" >
    <i type="int" name="ISTART">     0</i>
    <i type="int" name="ICHARG">     1</i>
    <i type="int" name="INIWAV">     1</i>
   </separator>
   <separator name="electronic spin" >
    <i type="int" name="ISPIN">     1</i>
    <i type="logical" name="LNONCOLLINEAR"> F  </i>
    <v name="MAGMOM">      1.00000000      1.00000000      1.00000000      1.00000000</v>
    <i name="NUPDOWN">     -1.00000000</i>
    <i type="logical" name="LSORBIT"> F  </i>
    <v name="SAXIS">      0.00000000      0.00000000      1.00000000</v>
    <i type="logical" name="LSPIRAL"> F  </i>
    <v name="QSPIRAL">      0.00000000      0.00000000      0.00000000</v>
    <i type="logical" name="LZEROZ"> F  </i>
   </separator>
   <separator name="electronic exchange-correlation" >
    <i type="logical" name="LASPH"> F  </i>
    <i type="logical" name="LMETAGGA"> F  </i>
   </separator>
   <separator name="electronic convergence" >
    <i type="int" name="NELM">    60</i>
    <i type="int" name="NELMDL">    -5</i>
    <i type="int" name="NELMIN">     2</i>
    <i name="ENINI">    270.00000000</i>
    <separator name="electronic convergence detail" >
     <i type="logical" name="LDIAG"> T  </i>
     <i type="logical" name="LSUBROT"> F  </i>
     <i name="WEIMIN">      0.00000000</i>
     <i name="EBREAK">      0.00000001</i>
     <i name="DEPER">      0.30000000</i>
     <i type="int" name="NRMM">     4</i>
     <i name="TIME">      0.40000000</i>
    </separator>
   </separator>
   <separator name="electronic mixer" >
    <i name="AMIX">      0.40000000</i>
    <i name="BMIX">      1.00000000</i>
    <i name="AMIN">      0.10000000</i>
    <i name="AMIX_MAG">      1.60000000</i>
    <i name="BMIX_MAG">      1.00000000</i>
    <separator name="electronic mixer details" >
     <i type="int" name="IMIX">     4</i>
     <i type="logical" name="MIXFIRST"> F  </i>
     <i type="int" name="MAXMIX">   -45</i>
     <i name="WC">    100.00000000</i>
     <i type="int" name="INIMIX">     1</i>
     <i type="int" name="MIXPRE">     1</i>
     <i type="int" name="MREMOVE">     5</i>
    </separator>
   </separator>
   <separator name="electronic dipolcorrection" >
    <i type="logical" name="LDIPOL"> F  </i>
    <i type="logical" name="LMONO"> F  </i>
    <i type="int" name="IDIPOL">     0</i>
    <i name="EPSILON">      1.00000000</i>
    <v name="DIPOL">   -100.00000000   -100.00000000   -100.00000000</v>
    <i name="EFIELD">      0.00000000</i>
   </separator>
  </separator>
  <separator name="grids" >
   <i type="int" name="NGX">    16</i>
   <i type="int" name="NGY">    16</i>
   <i type="int" name="NGZ">    16</i>
   <i type="int" name="NGXF">    32</i>
   <i type="int" name="NGYF">    32</i>
   <i type="int" name="NGZF">    32</i>
   <i type="logical" name="ADDGRID"> F  </i>
  </separator>
  <separator name="ionic" >
   <i type="int" name="NSW">     0</i>
   <i type="int" name="IBRION">    -1</i>
   <i type="int" name="MDALGO">     0</i>
   <i type="int" name="ISIF">     2</i>
   <i name="PSTRESS">      0.00000000</i>
   <i name="EDIFFG">      0.00001000</i>
   <i type="int" name="NFREE">     0</i>
   <i name="POTIM">      0.50000000</i>
   <i name="SMASS">     -3.00000000</i>
   <i name="SCALEE">      1.00000000</i>
  </separator>
  <separator name="ionic md" >
   <i name="TEBEG">      0.00010000</i>
   <i name="TEEND">      0.00010000</i>
   <i type="int" name="NBLOCK">     1</i>
   <i type="int" name="KBLOCK">     1</i>
   <i type="int" name="NPACO">   256</i>
   <i name="APACO">     16.00000000</i>
  </separator>
  <separator name="symmetry" >
   <i type="int" name="ISYM">     2</i>
   <i name="SYMPREC">      0.00001000</i>
  </separator>
  <separator name="dos" >
   <i type="int" name="LORBIT">     0</i>
   <v name="RWIGS">     -1.00000000</v>
   <i type="int" name="NEDOS">   301</i>
   <i name="EMIN">     10.00000000</i>
   <i name="EMAX">    -10.00000000</i>
   <i name="EFERMI">      0.00000000</i>
  </separator>
  <separator name="writing" >
   <i type="int" name="NWRITE">     2</i>
   <i type="logical" name="LWAVE"> T  </i>
   <i type="logical" name="LDOWNSAMPLE"> F  </i>
   <i type="logical" name="LCHARG"> T  </i>
   <i type="logical" name="LPARD"> F  </i>
   <i type="logical" name="LVTOT"> F  </i>
   <i type="logical" name="LVHAR"> F  </i>
   <i type="logical" name="LELF"> F  </i>
   <i type="logical" name="LOPTICS"> F  </i>
   <v name="STM">      0.00000000      0.00000000      0.00000000      0.00000000      0.00000000      0.00000000      0.00000000</v>
  </separator>
  <separator name="performance" >
   <i type="int" name="NPAR">     1</i>
   <i type="int" name="NSIM">     4</i>
   <i type="int" name="NBLK">    -1</i>
   <i type="logical" name="LPLANE"> T  </i>
   <i type="logical" name="LSCALAPACK"> F  </i>
   <i type="logical" name="LSCAAWARE"> F  </i>
   <i type="logical" name="LSCALU"> F  </i>
   <i type="logical" name="LASYNC"> F  </i>
   <i type="logical" name="LORBITALREAL"> F  </i>
  </separator>
  <separator name="miscellaneous" >
   <i type="int" name="IDIOT">     3</i>
   <i type="int" name="PHON_NSTRUCT">    -1</i>
   <i type="logical" name="LMUSIC"> F  </i>
   <v name="POMASS">     63.54600000</v>
   <v name="DARWINR">      0.00000000</v>
   <v name="DARWINV">      1.00000000</v>
   <i type="logical" name="LCORR"> T  </i>
  </separator>
  <i type="logical" name="GGA_COMPAT"> T  </i>
  <i type="logical" name="LBERRY"> F  </i>
  <i type="int" name="ICORELEVEL">     0</i>
  <i type="logical" name="LDAU"> F  </i>
  <i type="int" name="I_CONSTRAINED_M">     0</i>
  <separator name="electronic exchange-correlation" >
   <i type="string" name="GGA">PE</i>
   <i type="int" name="VOSKOWN">     0</i>
   <i type="logical" name="LHFCALC"> F  </i>
   <i type="string" name="PRECFOCK"></i>
   <i type="logical" name="LSYMGRAD"> F  </i>
   <i type="logical" name="LHFONE"> F  </i>
   <i type="logical" name="LRHFCALC"> F  </i>
   <i type="logical" name="LTHOMAS"> F  </i>
   <i type="logical" name="LMODELHF"> F  </i>
   <i type="logical" name="LFOCKACE"> F  </i>
   <i name="ENCUT4O">     -1.00000000</i>
   <i type="int" name="EXXOEP">     0</i>
   <i type="int" name="FOURORBIT">     0</i>
   <i name="AEXX">      0.00000000</i>
   <i name="HFALPHA">      0.00000000</i>
   <i name="MCALPHA">      0.00000000</i>
   <i name="ALDAX">      1.00000000</i>
   <i name="AGGAX">      1.00000000</i>
   <i name="ALDAC">      1.00000000</i>
   <i name="AGGAC">      1.00000000</i>
   <i type="int" name="NKREDX">     1</i>
   <i type="int" name="NKREDY">     1</i>
   <i type="int" name="NKREDZ">     1</i>
   <i type="logical" name="SHIFTRED"> F  </i>
   <i type="logical" name="ODDONLY"> F  </i>
   <i type="logical" name="EVENONLY"> F  </i>
   <i type="int" name="LMAXFOCK">     0</i>
   <i type="int" name="NMAXFOCKAE">     0</i>
   <i type="logical" name="LFOCKAEDFT"> F  </i>
   <i name="HFSCREEN">      0.00000000</i>
   <i name="HFSCREENC">      0.00000000</i>
   <i type="int" name="NBANDSGWLOW">     0</i>
  </separator>
  <separator name="vdW DFT" >
   <i type="logical" name="LUSE_VDW"> F  </i>
   <i name="Zab_VDW">     -0.84910000</i>
   <i name="PARAM1">      0.12340000</i>
   <i name="PARAM2">      1.00000000</i>
   <i name="PARAM3">      0.00000000</i>
  </separator>
  <separator name="model GW" >
   <i type="int" name="MODEL_GW">     0</i>
   <i name="MODEL_EPS0">      7.20451093</i>
   <i name="MODEL_ALPHA">      1.00000000</i>
  </separator>
  <separator name="linear response parameters" >
   <i type="logical" name="LEPSILON"> F  </i>
   <i type="logical" name="LRPA"> F  </i>
   <i type="logical" name="LNABLA"> F  </i>
   <i type="logical" name="LVEL"> F  </i>
   <i type="int" name="KINTER">     0</i>
   <i name="CSHIFT">      0.10000000</i>
   <i name="OMEGAMAX">     -1.00000000</i>
   <i name="DEG_THRESHOLD">      0.00200000</i>
   <i name="RTIME">     -0.10000000</i>
   <i name="WPLASMAI">      0.00000000</i>
   <v name="DFIELD">      0.00000000      0.00000000      0.00000000</v>
   <v name="WPLASMA">      0.00000000      0.00000000      0.00000000      0.00000000      0.00000000      0.00000000      0.00000000      0.00000000      0.00000000</v>
  </separator>
  <separator name="orbital magnetization" >
   <i type="logical" name="NUCIND"> F  </i>
   <v name="MAGPOS">      0.00000000      0.00000000      0.00000000</v>
   <i type="logical" name="LNICSALL"> T  </i>
   <i type="logical" name="ORBITALMAG"> F  </i>
   <i type="logical" name="LMAGBLOCH"> F  </i>
   <i type="logical" name="LCHIMAG"> F  </i>
   <i type="logical" name="LGAUGE"> T  </i>
   <i type="int" name="MAGATOM">     0</i>
   <v name="MAGDIPOL">      0.00000000      0.00000000      0.00000000</v>
   <v name="AVECCONST">      0.00000000      0.00000000      0.00000000</v>
  </separator>
  <separator name="response functions" >
   <i type="logical" name="LFINITE_TEMPERATURE"> F  </i>
   <i type="logical" name="LADDER"> F  </i>
   <i type="logical" name="LRPAFORCE"> F  </i>
   <i type="logical" name="LFXC"> F  </i>
   <i type="logical" name="LHARTREE"> T  </i>
   <i type="int" name="IBSE">     0</i>
   <v type="int" name="KPOINT">    -1     0     0     0</v>
   <i type="logical" name="LTCTC"> F  </i>
   <i type="logical" name="LTCTE"> F  </i>
   <i type="logical" name="LTETE"> F  </i>
   <i type="logical" name="LTRIPLET"> F  </i>
   <i type="logical" name="LFXCEPS"> F  </i>
   <i type="logical" name="LFXHEG"> F  </i>
   <i type="int" name="NATURALO">     2</i>
   <i type="logical" name="LHOLEGF"> F  </i>
   <i type="logical" name="L2ORDER"> F  </i>
   <i type="logical" name="LDMP1"> F  </i>
   <i type="logical" name="LMP2LT"> F  </i>
   <i type="logical" name="LSMP2LT"> F  </i>
   <i type="logical" name="LGWLF"> F  </i>
   <i name="ENCUTGW">     -2.00000000</i>
   <i name="ENCUTGWSOFT">     -2.00000000</i>
   <i name="ENCUTLF">     -1.00000000</i>
   <i type="logical" name="LESF_SPLINES"> F  </i>
   <i type="int" name="LMAXMP2">    -1</i>
   <i name="SCISSOR">      0.00000000</i>
   <i type="int" name="NOMEGA">     0</i>
   <i type="int" name="NOMEGAR">     0</i>
   <i type="int" name="NBANDSGW">    -1</i>
   <i type="int" name="NBANDSO">    -1</i>
   <i type="int" name="NBANDSV">    -1</i>
   <i type="int" name="NELM">     1</i>
   <i type="int" name="NELMHF">     1</i>
   <i type="int" name="DIM">     3</i>
   <i type="int" name="IESPILON">     4</i>
   <i type="int" name="ANTIRES">     0</i>
   <i name="OMEGAMAX">    -30.00000000</i>
   <i name="OMEGAMIN">    -30.00000000</i>
   <i name="OMEGATL">   -200.00000000</i>
   <i type="int" name="OMEGAGRID">     0</i>
   <i name="CSHIFT">     -0.10000000</i>
   <i type="logical" name="LSELFENERGY"> F  </i>
   <i type="logical" name="LSPECTRAL"> F  </i>
   <i type="logical" name="LSPECTRALGW"> F  </i>
   <i type="logical" name="LSINGLES"> F  </i>
   <i type="logical" name="LFERMIGW"> F  </i>
   <i type="logical" name="ODDONLYGW"> F  </i>
   <i type="logical" name="EVENONLYGW"> F  </i>
   <i type="int" name="NKREDLFX">     1</i>
   <i type="int" name="NKREDLFY">     1</i>
   <i type="int" name="NKREDLFZ">     1</i>
   <i type="int" name="MAXMEM">  2800</i>
   <i type="int" name="TELESCOPE">     0</i>
   <i type="int" name="NTAUPAR">    -1</i>
   <i type="int" name="NOMEGAPAR">    -1</i>
   <i name="DAMP_NEWTON">      0.80000001</i>
   <i name="LAMBDA">      1.00000000</i>
  </separator>
  <separator name="External order field" >
   <i name="OFIELD_KAPPA">      0.00000000</i>
   <v name="OFIELD_K">      0.00000000      0.00000000      0.00000000</v>
   <i name="OFIELD_Q6_NEAR">      0.00000000</i>
   <i name="OFIELD_Q6_FAR">      0.00000000</i>
   <i name="OFIELD_A">      0.00000000</i>
  </separator>
 </parameters>
 <atominfo>
  <atoms>       4 </atoms>
  <types>       1 </types>
  <array name="atoms" >
   <dimension dim="1">ion</dimension>
   <field type="string">element</field>
   <field type="int">atomtype</field>
   <set>
    <rc><c>Cu</c><c>   1</c></rc>
    <rc><c>Cu</c><c>   1</c></rc>
    <rc><c>Cu</c><c>   1</c></rc>
    <rc><c>Cu</c><c>   1</c></rc>
   </set>
  </array>
  <array name="atomtypes" >
   <dimension dim="1">type</dimension>
   <field type="int">atomspertype</field>
   <field type="string">element</field>
   <field>mass</field>
   <field>valence</field>
   <field type="string">pseudopotential</field>
   <set>
    <rc><c>   4</c><c>Cu</c><c>     63.54600000</c><c>     11.00000000</c><c>  PAW_PBE Cu 22Jun2005                  </c></rc>
   </set>
  </array>
 </atominfo>
 <structure name="initialpos" >
  <crystal>
   <varray name="basis" >
    <v>       3.63500000       0.00000000       0.00000000 </v>
    <v>       0.00000000       3.63500000       0.00000000 </v>
    <v>       0.00000000       0.00000000       3.63500000 </v>
   </varray>
   <i name="volume">     48.03007287 </i>
   <varray name="rec_basis" >
    <v>       0.27510316       0.00000000       0.00000000 </v>
    <v>       0.00000000       0.27510316       0.00000000 </v>
    <v>       0.00000000       0.00000000       0.27510316 </v>
   </varray>
  </crystal>
  <varray name="positions" >
   <v>       0.00000000       0.00000000       0.00000000 </v>
   <v>       0.50000000       0.50000000       0.00000000 </v>
   <v>       0.50000000       0.00000000       0.50000000 </v>
   <v>       0.00000000       0.50000000       0.50000000 </v>
  </varray>
 </structure>
 <calculation>
  <scstep>
   <time name="dav">    0.15    0.17</time>
   <time name="total">    0.16    0.18</time>
   <energy>
    <i name="alphaZ">    243.62337785 </i>
    <i name="ewald">  -4395.34838493 </i>
    <i name="hartreedc">  -1460.68397545 </i>
    <i name="XCdc">    182.95596869 </i>
    <i name="pawpsdc">   4912.82663951 </i>
    <i name="pawaedc">  -5336.19386850 </i>
    <i name="eentropy">      0.00069438 </i>
    <i name="bandstr">    562.45671421 </i>
    <i name="atom">   5563.49242760 </i>
    <i name="e_fr_energy">    273.12959336 </i>
    <i name="e_wo_entrp">    273.12889898 </i>
    <i name="e_0_energy">    273.12936190 </i>
   </energy>
  </scstep>
  <scstep>
   <time name="dav">    0.10    0.10</time>
   <time name="total">    0.10    0.10</time>
   <energy>
    <i name="e_fr_energy">      1.55671762 </i>
    <i name="e_wo_entrp">      1.58144359 </i>
    <i name="e_0_energy">      1.56495961 </i>
   </energy>
  </scstep>
  <scstep>
   <time name="dav">    0.11    0.11</time>
   <time name="total">    0.11    0.11</time>
   <energy>
    <i name="e_fr_energy">    -18.08505969 </i>
    <i name="e_wo_entrp">    -18.06617258 </i>
    <i name="e_0_energy">    -18.07876399 </i>
   </energy>
  </scstep>
  <scstep>
   <time name="dav">    0.11    0.11</time>
   <time name="total">    0.11    0.11</time>
   <energy>
    <i name="e_fr_energy">    -18.37856526 </i>
    <i name="e_wo_entrp">    -18.35978190 </i>
    <i name="e_0_energy">    -18.37230414 </i>
   </energy>
  </scstep>
  <scstep>
   <time name="dav">    0.12    0.12</time>
   <time name="total">    0.13    0.13</time>
   <energy>
    <i name="e_fr_energy">    -18.38223157 </i>
    <i name="e_wo_entrp">    -18.36344986 </i>
    <i name="e_0_energy">    -18.37597100 </i>
   </energy>
  </scstep>
  <scstep>
   <time name="dav">    0.11    0.11</time>
   <time name="total">    0.13    0.13</time>
   <energy>
    <i name="e_fr_energy">    -16.19999139 </i>
    <i name="e_wo_entrp">    -16.19990483 </i>
    <i name="e_0_energy">    -16.19996253 </i>
   </energy>
  </scstep>
  <scstep>
   <time name="dav">    0.11    0.11</time>
   <time name="total">    0.13    0.13</time>
   <energy>
    <i name="e_fr_energy">    -14.66571104 </i>
    <i name="e_wo_entrp">    -14.63382544 </i>
    <i name="e_0_energy">    -14.65508251 </i>
   </energy>
  </scstep>
  <scstep>
   <time name="dav">    0.12    0.12</time>
   <time name="total">    0.14    0.14</time>
   <energy>
    <i name="e_fr_energy">    -14.63625906 </i>
    <i name="e_wo_entrp">    -14.60426407 </i>
    <i name="e_0_energy">    -14.62559406 </i>
   </energy>
  </scstep>
  <scstep>
   <time name="dav">    0.12    0.12</time>
   <time name="total">    0.15    0.15</time>
   <energy>
    <i name="e_fr_energy">    -14.62839032 </i>
    <i name="e_wo_entrp">    -14.59979018 </i>
    <i name="e_0_energy">    -14.61885694 </i>
   </energy>
  </scstep>
  <scstep>
   <time name="dav">    0.14    0.14</time>
   <time name="total">    0.16    0.16</time>
   <energy>
    <i name="e_fr_energy">    -14.62845728 </i>
    <i name="e_wo_entrp">    -14.59947883 </i>
    <i name="e_0_energy">    -14.61879780 </i>
   </energy>
  </scstep>
  <scstep>
   <time name="dav">    0.13    0.13</time>
   <time name="total">    0.15    0.15</time>
   <energy>
    <i name="e_fr_energy">    -14.62844746 </i>
    <i name="e_wo_entrp">    -14.59961584 </i>
    <i name="e_0_energy">    -14.61883692 </i>
   </energy>
  </scstep>
  <scstep>
   <time name="dav">    0.11    0.11</time>
   <time name="total">    0.13    0.13</time>
   <energy>
    <i name="e_fr_energy">    -14.62844933 </i>
    <i name="e_wo_entrp">    -14.59961934 </i>
    <i name="e_0_energy">    -14.61883933 </i>
   </energy>
  </scstep>
  <scstep>
   <time name="dav">    0.07    0.07</time>
   <time name="total">    0.09    0.09</time>
   <energy>
    <i name="alphaZ">    243.62337785 </i>
    <i name="ewald">  -4395.34838493 </i>
    <i name="hartreedc">  -1368.80039608 </i>
    <i name="XCdc">    178.55946019 </i>
    <i name="pawpsdc">   5258.07110509 </i>
    <i name="pawaedc">  -5687.39158154 </i>
    <i name="eentropy">     -0.02882983 </i>
    <i name="bandstr">    193.19437184 </i>
    <i name="atom">   5563.49242760 </i>
    <i name="e_fr_energy">    -14.62844981 </i>
    <i name="e_wo_entrp">    -14.59961998 </i>
    <i name="e_0_energy">    -14.61883987 </i>
   </energy>
  </scstep>
  <structure>
   <crystal>
    <varray name="basis" >
     <v>       3.63500000       0.00000000       0.00000000 </v>
     <v>       0.00000000       3.63500000       0.00000000 </v>
     <v>       0.00000000       0.00000000       3.63500000 </v>
    </varray>
    <i name="volume">     48.03007287 </i>
    <varray name="rec_basis" >
     <v>       0.27510316       0.00000000       0.00000000 </v>
     <v>       0.00000000       0.27510316       0.00000000 </v>
     <v>       0.00000000       0.00000000       0.27510316 </v>
    </varray>
   </crystal>
   <varray name="positions" >
    <v>       0.00000000       0.00000000       0.00000000 </v>
    <v>       0.50000000       0.50000000       0.00000000 </v>
    <v>       0.50000000       0.00000000       0.50000000 </v>
    <v>       0.00000000       0.50000000       0.50000000 </v>
   </varray>
  </structure>
  <varray name="forces" >
   <v>      -0.00000000      -0.00000000       0.00000000 </v>
   <v>      -0.00000000      -0.00000000      -0.00000000 </v>
   <v>      -0.00000000       0.00000000      -0.00000000 </v>
   <v>       0.00000000      -0.00000000       0.00000000 </v>
  </varray>
  <varray name="stress" >
   <v>    -158.62431293      -0.00000000       0.00000000 </v>
   <v>      -0.00000000    -158.62431293       0.00000000 </v>
   <v>      -0.00000000       0.00000000    -158.62431293 </v>
  </varray>
  <energy>
   <i name="e_fr_energy">    -14.62844981 </i>
   <i name="e_wo_entrp">    -14.59961998 </i>
   <i name="e_0_energy">    -14.61883987 </i>
  </energy>
  <time name="totalsc">    1.84    1.86</time>
  <eigenvalues>
   <array>
    <dimension dim="1">band</dimension>
    <dimension dim="2">kpoint</dimension>
    <dimension dim="3">spin</dimension>
    <field>eigene</field>
    <field>occ</field>
    <set>
     <set comment="spin 1">
      <set comment="kpoint 1">
       <r>   -1.8383    1.0000 </r>
       <r>    2.5997    1.0000 </r>
       <r>    2.5997    1.0000 </r>
       <r>    2.5997    1.0000 </r>
       <r>    3.0323    1.0000 </r>
       <r>    3.0323    1.0000 </r>
       <r>    3.0323    1.0000 </r>
       <r>    4.4152    1.0000 </r>
       <r>    4.4152    1.0000 </r>
       <r>    4.4152    1.0000 </r>
       <r>    5.2028    1.0000 </r>
       <r>    5.2028    1.0000 </r>
       <r>    5.7297    1.0000 </r>
       <r>    5.7297    1.0000 </r>
       <r>    5.7297    1.0000 </r>
       <r>    5.8813    1.0000 </r>
       <r>    5.8813    1.0000 </r>
       <r>    5.8813    1.0000 </r>
       <r>    5.8813    1.0000 </r>
       <r>    5.8813    1.0000 </r>
       <r>    5.8813    1.0000 </r>
       <r>    8.9000   -0.0000 </r>
       <r>    8.9000   -0.0000 </r>
       <r>    8.9000   -0.0000 </r>
       <r>   14.3714    0.0000 </r>
       <r>   14.3714    0.0000 </r>
       <r>   14.3714    0.0000 </r>
       <r>   20.3421    0.0000 </r>
       <r>   20.3421    0.0000 </r>
       <r>   20.3421    0.0000 </r>
      </set>
      <set comment="kpoint 2">
       <r>   -1.3616    1.0000 </r>
       <r>    2.5515    1.0000 </r>
       <r>    2.8101    1.0000 </r>
       <r>    2.8101    1.0000 </r>
       <r>    3.1558    1.0000 </r>
       <r>    3.1671    1.0000 </r>
       <r>    3.1671    1.0000 </r>
       <r>    4.2574    1.0000 </r>
       <r>    4.5042    1.0000 </r>
       <r>    4.5042    1.0000 </r>
       <r>    5.0751    1.0000 </r>
       <r>    5.2382    1.0000 </r>
       <r>    5.2382    1.0000 </r>
       <r>    5.2428    1.0000 </r>
       <r>    5.5730    1.0000 </r>
       <r>    5.5730    1.0000 </r>
       <r>    5.6806    1.0000 </r>
       <r>    5.7038    1.0000 </r>
       <r>    5.7038    1.0000 </r>
       <r>    5.8820    1.0000 </r>
       <r>    5.8820    1.0000 </r>
       <r>    6.8304    1.0077 </r>
       <r>    9.9713   -0.0000 </r>
       <r>    9.9713   -0.0000 </r>
       <r>   14.5573    0.0000 </r>
       <r>   14.5573    0.0000 </r>
       <r>   17.4204    0.0000 </r>
       <r>   18.0908    0.0000 </r>
       <r>   18.0908    0.0000 </r>
       <r>   18.7559    0.0000 </r>
      </set>
      <set comment="kpoint 3">
       <r>   -0.0063    1.0000 </r>
       <r>    1.7664    1.0000 </r>
       <r>    3.2350    1.0000 </r>
       <r>    3.2350    1.0000 </r>
       <r>    3.4932    1.0000 </r>
       <r>    3.5935    1.0000 </r>
       <r>    3.5935    1.0000 </r>
       <r>    3.9080    1.0000 </r>
       <r>    4.3053    1.0000 </r>
       <r>    4.3053    1.0000 </r>
       <r>    4.8041    1.0000 </r>
       <r>    4.8155    1.0000 </r>
       <r>    4.8155    1.0000 </r>
       <r>    4.9354    1.0000 </r>
       <r>    5.2359    1.0000 </r>
       <r>    5.2359    1.0000 </r>
       <r>    5.2669    1.0000 </r>
       <r>    5.2669    1.0000 </r>
       <r>    5.3726    1.0000 </r>
       <r>    5.5367    1.0000 </r>
       <r>    5.8864    1.0000 </r>
       <r>    5.8864    1.0000 </r>
       <r>   12.1925   -0.0000 </r>
       <r>   12.1925   -0.0000 </r>
       <r>   14.9670    0.0000 </r>
       <r>   14.9670    0.0000 </r>
       <r>   15.1988    0.0000 </r>
       <r>   15.1988    0.0000 </r>
       <r>   16.6367    0.0000 </r>
       <r>   16.6367    0.0000 </r>
      </set>
      <set comment="kpoint 4">
       <r>   -0.8970    1.0000 </r>
       <r>    2.7932    1.0000 </r>
       <r>    2.7932    1.0000 </r>
       <r>    2.9905    1.0000 </r>
       <r>    3.2768    1.0000 </r>
       <r>    3.2799    1.0000 </r>
       <r>    3.2799    1.0000 </r>
       <r>    4.1997    1.0000 </r>
       <r>    4.5432    1.0000 </r>
       <r>    4.5606    1.0000 </r>
       <r>    4.9153    1.0000 </r>
       <r>    4.9153    1.0000 </r>
       <r>    4.9358    1.0000 </r>
       <r>    5.0582    1.0000 </r>
       <r>    5.2676    1.0000 </r>
       <r>    5.4434    1.0000 </r>
       <r>    5.5701    1.0000 </r>
       <r>    5.5701    1.0000 </r>
       <r>    5.7040    1.0000 </r>
       <r>    5.7040    1.0000 </r>
       <r>    5.7556    1.0000 </r>
       <r>    7.8448   -0.0001 </r>
       <r>    7.8448   -0.0001 </r>
       <r>   10.8357   -0.0000 </r>
       <r>   14.5154    0.0000 </r>
       <r>   14.9892    0.0000 </r>
       <r>   17.7524    0.0000 </r>
       <r>   17.7524    0.0000 </r>
       <r>   18.6776    0.0000 </r>
       <r>   18.6776    0.0000 </r>
      </set>
      <set comment="kpoint 5">
       <r>    0.4148    1.0000 </r>
       <r>    2.0986    1.0000 </r>
       <r>    3.3134    1.0000 </r>
       <r>    3.3921    1.0000 </r>
       <r>    3.5454    1.0000 </r>
       <r>    3.5653    1.0000 </r>
       <r>    3.6543    1.0000 </r>
       <r>    3.9247    1.0000 </r>
       <r>    4.0677    1.0000 </r>
       <r>    4.2467    1.0000 </r>
       <r>    4.4451    1.0000 </r>
       <r>    4.5419    1.0000 </r>
       <r>    4.8282    1.0000 </r>
       <r>    4.9986    1.0000 </r>
       <r>    5.1746    1.0000 </r>
       <r>    5.2415    1.0000 </r>
       <r>    5.2633    1.0000 </r>
       <r>    5.3262    1.0000 </r>
       <r>    5.5083    1.0000 </r>
       <r>    5.6985    1.0000 </r>
       <r>    5.7012    1.0000 </r>
       <r>    6.0490    1.0000 </r>
       <r>    9.5444   -0.0000 </r>
       <r>   11.7474   -0.0000 </r>
       <r>   12.8705    0.0000 </r>
       <r>   15.5543    0.0000 </r>
       <r>   15.5617    0.0000 </r>
       <r>   17.0287    0.0000 </r>
       <r>   18.8418    0.0000 </r>
       <r>   20.2828    0.0000 </r>
      </set>
      <set comment="kpoint 6">
       <r>    1.5549    1.0000 </r>
       <r>    2.8665    1.0000 </r>
       <r>    2.8665    1.0000 </r>
       <r>    3.3678    1.0000 </r>
       <r>    3.7778    1.0000 </r>
       <r>    3.7929    1.0000 </r>
       <r>    3.7929    1.0000 </r>
       <r>    3.9064    1.0000 </r>
       <r>    4.0525    1.0000 </r>
       <r>    4.0525    1.0000 </r>
       <r>    4.0655    1.0000 </r>
       <r>    4.3805    1.0000 </r>
       <r>    4.8670    1.0000 </r>
       <r>    4.9573    1.0000 </r>
       <r>    4.9932    1.0000 </r>
       <r>    5.0548    1.0000 </r>
       <r>    5.0548    1.0000 </r>
       <r>    5.2965    1.0000 </r>
       <r>    5.2965    1.0000 </r>
       <r>    5.4157    1.0000 </r>
       <r>    6.0466    1.0000 </r>
       <r>    7.1343    0.8657 </r>
       <r>    7.1343    0.8657 </r>
       <r>    8.8930   -0.0000 </r>
       <r>   14.6505    0.0000 </r>
       <r>   16.5185    0.0000 </r>
       <r>   17.1859    0.0000 </r>
       <r>   17.1859    0.0000 </r>
       <r>   18.2880    0.0000 </r>
       <r>   18.2880    0.0000 </r>
      </set>
      <set comment="kpoint 7">
       <r>   -0.4507    1.0000 </r>
       <r>    2.9670    1.0000 </r>
       <r>    2.9670    1.0000 </r>
       <r>    2.9670    1.0000 </r>
       <r>    3.3962    1.0000 </r>
       <r>    3.3962    1.0000 </r>
       <r>    3.3962    1.0000 </r>
       <r>    4.1786    1.0000 </r>
       <r>    4.5557    1.0000 </r>
       <r>    4.5557    1.0000 </r>
       <r>    4.6846    1.0000 </r>
       <r>    4.6846    1.0000 </r>
       <r>    4.6846    1.0000 </r>
       <r>    5.1958    1.0000 </r>
       <r>    5.1958    1.0000 </r>
       <r>    5.2406    1.0000 </r>
       <r>    5.2406    1.0000 </r>
       <r>    5.2406    1.0000 </r>
       <r>    5.8019    1.0000 </r>
       <r>    5.8019    1.0000 </r>
       <r>    5.8019    1.0000 </r>
       <r>    8.4770   -0.0000 </r>
       <r>    8.4770   -0.0000 </r>
       <r>    8.4770   -0.0000 </r>
       <r>   15.2994    0.0000 </r>
       <r>   15.2994    0.0000 </r>
       <r>   15.2994    0.0000 </r>
       <r>   18.1195    0.0000 </r>
       <r>   18.1195    0.0000 </r>
       <r>   18.1195    0.0000 </r>
      </set>
      <set comment="kpoint 8">
       <r>    0.7909    1.0000 </r>
       <r>    2.3228    1.0000 </r>
       <r>    3.2954    1.0000 </r>
       <r>    3.2954    1.0000 </r>
       <r>    3.6371    1.0000 </r>
       <r>    3.6371    1.0000 </r>
       <r>    3.6969    1.0000 </r>
       <r>    4.0015    1.0000 </r>
       <r>    4.2391    1.0000 </r>
       <r>    4.2391    1.0000 </r>
       <r>    4.3608    1.0000 </r>
       <r>    4.5049    1.0000 </r>
       <r>    4.6444    1.0000 </r>
       <r>    4.9011    1.0000 </r>
       <r>    5.0263    1.0000 </r>
       <r>    5.0263    1.0000 </r>
       <r>    5.2979    1.0000 </r>
       <r>    5.4703    1.0000 </r>
       <r>    5.7142    1.0000 </r>
       <r>    5.7142    1.0000 </r>
       <r>    5.7194    1.0000 </r>
       <r>    6.2390    1.0000 </r>
       <r>    9.8399   -0.0000 </r>
       <r>    9.8399   -0.0000 </r>
       <r>   12.4976   -0.0000 </r>
       <r>   12.4976   -0.0000 </r>
       <r>   16.8317    0.0000 </r>
       <r>   19.1396    0.0000 </r>
       <r>   19.2199    0.0000 </r>
       <r>   19.2199    0.0000 </r>
      </set>
      <set comment="kpoint 9">
       <r>    1.7508    1.0000 </r>
       <r>    2.7303    1.0000 </r>
       <r>    2.7303    1.0000 </r>
       <r>    3.0346    1.0000 </r>
       <r>    3.9333    1.0000 </r>
       <r>    4.0442    1.0000 </r>
       <r>    4.0442    1.0000 </r>
       <r>    4.1974    1.0000 </r>
       <r>    4.2639    1.0000 </r>
       <r>    4.2639    1.0000 </r>
       <r>    4.4033    1.0000 </r>
       <r>    4.4147    1.0000 </r>
       <r>    4.5666    1.0000 </r>
       <r>    4.7401    1.0000 </r>
       <r>    4.7401    1.0000 </r>
       <r>    4.7475    1.0000 </r>
       <r>    5.3225    1.0000 </r>
       <r>    5.5975    1.0000 </r>
       <r>    5.5975    1.0000 </r>
       <r>    5.6093    1.0000 </r>
       <r>    5.9264    1.0000 </r>
       <r>    7.1679    0.7590 </r>
       <r>    7.1679    0.7590 </r>
       <r>    8.8226   -0.0000 </r>
       <r>   11.9305   -0.0000 </r>
       <r>   13.9024    0.0000 </r>
       <r>   13.9024    0.0000 </r>
       <r>   16.1292    0.0000 </r>
       <r>   20.4252    0.0000 </r>
       <r>   22.4081    0.0000 </r>
      </set>
      <set comment="kpoint 10">
       <r>    2.1478    1.0000 </r>
       <r>    2.5682    1.0000 </r>
       <r>    2.5682    1.0000 </r>
       <r>    2.5682    1.0000 </r>
       <r>    4.2444    1.0000 </r>
       <r>    4.2444    1.0000 </r>
       <r>    4.2444    1.0000 </r>
       <r>    4.4100    1.0000 </r>
       <r>    4.4100    1.0000 </r>
       <r>    4.4907    1.0000 </r>
       <r>    4.4907    1.0000 </r>
       <r>    4.4907    1.0000 </r>
       <r>    4.9515    1.0000 </r>
       <r>    4.9515    1.0000 </r>
       <r>    4.9515    1.0000 </r>
       <r>    5.1819    1.0000 </r>
       <r>    5.6369    1.0000 </r>
       <r>    5.6369    1.0000 </r>
       <r>    5.7527    1.0000 </r>
       <r>    5.7527    1.0000 </r>
       <r>    5.7527    1.0000 </r>
       <r>    7.2757    0.3228 </r>
       <r>    7.2757    0.3228 </r>
       <r>    7.2757    0.3228 </r>
       <r>   11.4767   -0.0000 </r>
       <r>   11.4767   -0.0000 </r>
       <r>   11.4767   -0.0000 </r>
       <r>   13.2420    0.0000 </r>
       <r>   25.6864    0.0000 </r>
       <r>   25.6864    0.0000 </r>
      </set>
     </set>
    </set>
   </array>
  </eigenvalues>
  <separator name="orbital magnetization" >
   <v name="MAGDIPOLOUT">      0.00000000      0.00000000      0.00000000</v>
  </separator>
  <dos>
   <i name="efermi">      7.23273008 </i>
   <total>
    <array>
     <dimension dim="1">gridpoints</dimension>
     <dimension dim="2">spin</dimension>
     <field>energy</field>
     <field>total</field>
     <field>integrated</field>
     <set>
      <set comment="spin 1">
       <r>    -3.8383     0.0000     0.0000 </r>
       <r>    -3.7333     0.0000     0.0000 </r>
       <r>    -3.6282     0.0000     0.0000 </r>
       <r>    -3.5231    -0.0000    -0.0000 </r>
       <r>    -3.4180    -0.0000    -0.0000 </r>
       <r>    -3.3129    -0.0000    -0.0000 </r>
       <r>    -3.2078    -0.0000    -0.0000 </r>
       <r>    -3.1028    -0.0000    -0.0000 </r>
       <r>    -2.9977    -0.0000    -0.0000 </r>
       <r>    -2.8926    -0.0000    -0.0000 </r>
       <r>    -2.7875    -0.0000    -0.0000 </r>
       <r>    -2.6824    -0.0000    -0.0000 </r>
       <r>    -2.5774    -0.0000    -0.0000 </r>
       <r>    -2.4723    -0.0000    -0.0000 </r>
       <r>    -2.3672    -0.0001    -0.0000 </r>
       <r>    -2.2621    -0.0007    -0.0001 </r>
       <r>    -2.1570    -0.0027    -0.0004 </r>
       <r>    -2.0519    -0.0011    -0.0005 </r>
       <r>    -1.9469     0.0209     0.0017 </r>
       <r>    -1.8418     0.0561     0.0076 </r>
       <r>    -1.7367     0.0502     0.0129 </r>
       <r>    -1.6316     0.0035     0.0132 </r>
       <r>    -1.5265     0.0335     0.0168 </r>
       <r>    -1.4214     0.2289     0.0408 </r>
       <r>    -1.3164     0.3801     0.0808 </r>
       <r>    -1.2113     0.2313     0.1051 </r>
       <r>    -1.1062     0.0445     0.1097 </r>
       <r>    -1.0011     0.2514     0.1362 </r>
       <r>    -0.8960     0.6892     0.2086 </r>
       <r>    -0.7909     0.6780     0.2798 </r>
       <r>    -0.6859     0.2421     0.3053 </r>
       <r>    -0.5808     0.1030     0.3161 </r>
       <r>    -0.4757     0.3745     0.3554 </r>
       <r>    -0.3706     0.4866     0.4066 </r>
       <r>    -0.2655     0.2292     0.4307 </r>
       <r>    -0.1605     0.0645     0.4375 </r>
       <r>    -0.0554     0.2239     0.4610 </r>
       <r>     0.0497     0.3406     0.4968 </r>
       <r>     0.1548     0.1627     0.5139 </r>
       <r>     0.2599     0.2246     0.5375 </r>
       <r>     0.3650     0.9847     0.6409 </r>
       <r>     0.4700     1.4896     0.7975 </r>
       <r>     0.5751     0.9401     0.8963 </r>
       <r>     0.6802     0.6470     0.9642 </r>
       <r>     0.7853     1.2891     1.0997 </r>
       <r>     0.8904     1.3952     1.2463 </r>
       <r>     0.9955     0.5727     1.3065 </r>
       <r>     1.1005    -0.0125     1.3052 </r>
       <r>     1.2056    -0.0966     1.2950 </r>
       <r>     1.3107    -0.0701     1.2877 </r>
       <r>     1.4158     0.0690     1.2949 </r>
       <r>     1.5209     0.5060     1.3481 </r>
       <r>     1.6259     1.2117     1.4754 </r>
       <r>     1.7310     1.9241     1.6776 </r>
       <r>     1.8361     1.8228     1.8692 </r>
       <r>     1.9412     1.0110     1.9754 </r>
       <r>     2.0463     1.1452     2.0957 </r>
       <r>     2.1514     2.0186     2.3079 </r>
       <r>     2.2564     2.1843     2.5374 </r>
       <r>     2.3615     1.7736     2.7238 </r>
       <r>     2.4666     1.5323     2.8848 </r>
       <r>     2.5717     2.2791     3.1243 </r>
       <r>     2.6768     4.2516     3.5710 </r>
       <r>     2.7819     6.3307     4.2363 </r>
       <r>     2.8869     6.7816     4.9489 </r>
       <r>     2.9920     5.6451     5.5421 </r>
       <r>     3.0971     4.5746     6.0228 </r>
       <r>     3.2022     5.9885     6.6521 </r>
       <r>     3.3073     9.6173     7.6627 </r>
       <r>     3.4124    10.4995     8.7660 </r>
       <r>     3.5174     8.9868     9.7104 </r>
       <r>     3.6225     9.2714    10.6847 </r>
       <r>     3.7276     9.0697    11.6377 </r>
       <r>     3.8327     7.3402    12.4091 </r>
       <r>     3.9378     8.1026    13.2605 </r>
       <r>     4.0428    11.0664    14.4234 </r>
       <r>     4.1479    13.4966    15.8416 </r>
       <r>     4.2530    15.7610    17.4978 </r>
       <r>     4.3581    16.9245    19.2763 </r>
       <r>     4.4632    16.4816    21.0082 </r>
       <r>     4.5683    14.9990    22.5844 </r>
       <r>     4.6733    12.5050    23.8984 </r>
       <r>     4.7784    11.3267    25.0887 </r>
       <r>     4.8835    12.6640    26.4194 </r>
       <r>     4.9886    14.2826    27.9203 </r>
       <r>     5.0937    14.0403    29.3957 </r>
       <r>     5.1988    14.8860    30.9599 </r>
       <r>     5.3038    16.6534    32.7099 </r>
       <r>     5.4089    14.0589    34.1873 </r>
       <r>     5.5140    11.7255    35.4194 </r>
       <r>     5.6191    15.6881    37.0679 </r>
       <r>     5.7242    19.6517    39.1330 </r>
       <r>     5.8292    16.0757    40.8223 </r>
       <r>     5.9343     8.7881    41.7457 </r>
       <r>     6.0394     4.4206    42.2103 </r>
       <r>     6.1445     2.8370    42.5084 </r>
       <r>     6.2496     2.0350    42.7222 </r>
       <r>     6.3547     1.1922    42.8475 </r>
       <r>     6.4597     0.3044    42.8795 </r>
       <r>     6.5648    -0.0961    42.8694 </r>
       <r>     6.6699    -0.0435    42.8648 </r>
       <r>     6.7750     0.1227    42.8777 </r>
       <r>     6.8801     0.1311    42.8915 </r>
       <r>     6.9852     0.5196    42.9461 </r>
       <r>     7.0902     2.7111    43.2310 </r>
       <r>     7.1953     5.3391    43.7920 </r>
       <r>     7.3004     4.8482    44.3015 </r>
       <r>     7.4055     1.9992    44.5116 </r>
       <r>     7.5106     0.0808    44.5201 </r>
       <r>     7.6157    -0.2555    44.4932 </r>
       <r>     7.7207     0.3021    44.5250 </r>
       <r>     7.8258     1.2605    44.6574 </r>
       <r>     7.9309     1.4938    44.8144 </r>
       <r>     8.0360     0.6829    44.8861 </r>
       <r>     8.1411    -0.0255    44.8835 </r>
       <r>     8.2461    -0.1317    44.8696 </r>
       <r>     8.3512     0.3397    44.9053 </r>
       <r>     8.4563     1.2099    45.0325 </r>
       <r>     8.5614     1.3886    45.1784 </r>
       <r>     8.6665     0.8603    45.2688 </r>
       <r>     8.7716     1.2942    45.4048 </r>
       <r>     8.8766     2.2906    45.6455 </r>
       <r>     8.9817     1.8892    45.8440 </r>
       <r>     9.0868     0.5806    45.9050 </r>
       <r>     9.1919    -0.1095    45.8935 </r>
       <r>     9.2970    -0.1602    45.8767 </r>
       <r>     9.4021     0.2121    45.8990 </r>
       <r>     9.5071     1.0066    46.0047 </r>
       <r>     9.6122     1.4251    46.1545 </r>
       <r>     9.7173     1.6136    46.3241 </r>
       <r>     9.8224     2.7824    46.6164 </r>
       <r>     9.9275     3.4386    46.9778 </r>
       <r>    10.0325     2.1132    47.1998 </r>
       <r>    10.1376     0.5080    47.2532 </r>
       <r>    10.2427    -0.0856    47.2442 </r>
       <r>    10.3478    -0.0911    47.2347 </r>
       <r>    10.4529    -0.0407    47.2304 </r>
       <r>    10.5580    -0.0431    47.2259 </r>
       <r>    10.6630     0.0503    47.2311 </r>
       <r>    10.7681     0.4309    47.2764 </r>
       <r>    10.8732     0.7749    47.3578 </r>
       <r>    10.9783     0.5599    47.4167 </r>
       <r>    11.0834     0.1018    47.4274 </r>
       <r>    11.1885    -0.1145    47.4153 </r>
       <r>    11.2935     0.0250    47.4180 </r>
       <r>    11.3986     0.7110    47.4927 </r>
       <r>    11.5037     1.4392    47.6439 </r>
       <r>    11.6088     1.4339    47.7946 </r>
       <r>    11.7139     1.4529    47.9473 </r>
       <r>    11.8190     1.9418    48.1513 </r>
       <r>    11.9240     2.0941    48.3714 </r>
       <r>    12.0291     1.5682    48.5362 </r>
       <r>    12.1342     0.8956    48.6303 </r>
       <r>    12.2393     0.5916    48.6925 </r>
       <r>    12.3444     0.8414    48.7809 </r>
       <r>    12.4494     2.1363    49.0054 </r>
       <r>    12.5545     3.0183    49.3225 </r>
       <r>    12.6596     1.8722    49.5193 </r>
       <r>    12.7647     0.8222    49.6057 </r>
       <r>    12.8698     1.2268    49.7346 </r>
       <r>    12.9749     1.3050    49.8717 </r>
       <r>    13.0799     0.5769    49.9323 </r>
       <r>    13.1850     0.2999    49.9639 </r>
       <r>    13.2901     0.4526    50.0114 </r>
       <r>    13.3952     0.3201    50.0450 </r>
       <r>    13.5003     0.0142    50.0465 </r>
       <r>    13.6054    -0.1762    50.0280 </r>
       <r>    13.7104     0.0433    50.0326 </r>
       <r>    13.8155     1.3743    50.1770 </r>
       <r>    13.9206     2.9846    50.4906 </r>
       <r>    14.0257     2.5526    50.7589 </r>
       <r>    14.1308     0.7488    50.8376 </r>
       <r>    14.2358    -0.1481    50.8220 </r>
       <r>    14.3409     0.0272    50.8248 </r>
       <r>    14.4460     0.8243    50.9115 </r>
       <r>    14.5511     1.8261    51.1034 </r>
       <r>    14.6562     1.9509    51.3084 </r>
       <r>    14.7613     1.0625    51.4200 </r>
       <r>    14.8663     0.6398    51.4872 </r>
       <r>    14.9714     1.1924    51.6125 </r>
       <r>    15.0765     1.5295    51.7733 </r>
       <r>    15.1816     1.5863    51.9400 </r>
       <r>    15.2867     1.9046    52.1401 </r>
       <r>    15.3918     2.0004    52.3503 </r>
       <r>    15.4968     2.4724    52.6101 </r>
       <r>    15.6019     3.0878    52.9346 </r>
       <r>    15.7070     2.0421    53.1492 </r>
       <r>    15.8121     0.3523    53.1862 </r>
       <r>    15.9172    -0.1772    53.1676 </r>
       <r>    16.0223     0.4266    53.2124 </r>
       <r>    16.1273     1.3582    53.3551 </r>
       <r>    16.2324     1.3604    53.4981 </r>
       <r>    16.3375     0.5406    53.5549 </r>
       <r>    16.4426     0.3583    53.5925 </r>
       <r>    16.5477     0.9473    53.6921 </r>
       <r>    16.6527     1.3590    53.8349 </r>
       <r>    16.7578     1.5127    53.9939 </r>
       <r>    16.8629     1.7759    54.1805 </r>
       <r>    16.9680     2.0147    54.3922 </r>
       <r>    17.0731     2.2833    54.6321 </r>
       <r>    17.1782     2.3318    54.8772 </r>
       <r>    17.2832     1.6781    55.0535 </r>
       <r>    17.3883     0.7635    55.1337 </r>
       <r>    17.4934     0.2607    55.1611 </r>
       <r>    17.5985     0.3123    55.1939 </r>
       <r>    17.7036     0.9923    55.2982 </r>
       <r>    17.8087     1.4259    55.4480 </r>
       <r>    17.9137     0.9514    55.5480 </r>
       <r>    18.0188     1.0544    55.6588 </r>
       <r>    18.1239     2.2581    55.8961 </r>
       <r>    18.2290     2.8473    56.1953 </r>
       <r>    18.3341     2.1363    56.4198 </r>
       <r>    18.4391     0.8854    56.5128 </r>
       <r>    18.5442     0.3566    56.5503 </r>
       <r>    18.6493     1.2559    56.6823 </r>
       <r>    18.7544     2.4674    56.9416 </r>
       <r>    18.8595     2.4483    57.1988 </r>
       <r>    18.9646     1.4243    57.3485 </r>
       <r>    19.0696     1.5815    57.5147 </r>
       <r>    19.1747     3.5736    57.8902 </r>
       <r>    19.2798     4.2026    58.3318 </r>
       <r>    19.3849     2.1224    58.5549 </r>
       <r>    19.4900     0.2007    58.5760 </r>
       <r>    19.5951    -0.2079    58.5541 </r>
       <r>    19.7001    -0.0828    58.5454 </r>
       <r>    19.8052    -0.0196    58.5433 </r>
       <r>    19.9103    -0.0433    58.5388 </r>
       <r>    20.0154    -0.1087    58.5274 </r>
       <r>    20.1205     0.0718    58.5349 </r>
       <r>    20.2256     1.0168    58.6418 </r>
       <r>    20.3306     2.3512    58.8888 </r>
       <r>    20.4357     2.6807    59.1705 </r>
       <r>    20.5408     1.6127    59.3400 </r>
       <r>    20.6459     0.3731    59.3792 </r>
       <r>    20.7510    -0.0918    59.3696 </r>
       <r>    20.8560    -0.0726    59.3619 </r>
       <r>    20.9611    -0.0164    59.3602 </r>
       <r>    21.0662    -0.0018    59.3600 </r>
       <r>    21.1713    -0.0001    59.3600 </r>
       <r>    21.2764    -0.0000    59.3600 </r>
       <r>    21.3815    -0.0000    59.3600 </r>
       <r>    21.4865    -0.0000    59.3600 </r>
       <r>    21.5916    -0.0000    59.3600 </r>
       <r>    21.6967    -0.0000    59.3600 </r>
       <r>    21.8018    -0.0003    59.3600 </r>
       <r>    21.9069    -0.0038    59.3596 </r>
       <r>    22.0120    -0.0270    59.3567 </r>
       <r>    22.1170    -0.0771    59.3486 </r>
       <r>    22.2221     0.0489    59.3538 </r>
       <r>    22.3272     0.7422    59.4318 </r>
       <r>    22.4323     1.5157    59.5910 </r>
       <r>    22.5374     1.2357    59.7209 </r>
       <r>    22.6424     0.3479    59.7574 </r>
       <r>    22.7475    -0.0597    59.7512 </r>
       <r>    22.8526    -0.0549    59.7454 </r>
       <r>    22.9577    -0.0120    59.7441 </r>
       <r>    23.0628    -0.0012    59.7440 </r>
       <r>    23.1679    -0.0001    59.7440 </r>
       <r>    23.2729    -0.0000    59.7440 </r>
       <r>    23.3780    -0.0000    59.7440 </r>
       <r>    23.4831    -0.0000    59.7440 </r>
       <r>    23.5882    -0.0000    59.7440 </r>
       <r>    23.6933    -0.0000    59.7440 </r>
       <r>    23.7984     0.0000    59.7440 </r>
       <r>    23.9034     0.0000    59.7440 </r>
       <r>    24.0085    -0.0000    59.7440 </r>
       <r>    24.1136    -0.0000    59.7440 </r>
       <r>    24.2187    -0.0000    59.7440 </r>
       <r>    24.3238    -0.0000    59.7440 </r>
       <r>    24.4289    -0.0000    59.7440 </r>
       <r>    24.5339    -0.0000    59.7440 </r>
       <r>    24.6390    -0.0000    59.7440 </r>
       <r>    24.7441    -0.0000    59.7440 </r>
       <r>    24.8492    -0.0000    59.7440 </r>
       <r>    24.9543    -0.0000    59.7440 </r>
       <r>    25.0593    -0.0001    59.7440 </r>
       <r>    25.1644    -0.0016    59.7438 </r>
       <r>    25.2695    -0.0130    59.7425 </r>
       <r>    25.3746    -0.0461    59.7376 </r>
       <r>    25.4797    -0.0081    59.7368 </r>
       <r>    25.5848     0.3744    59.7761 </r>
       <r>    25.6898     0.9480    59.8757 </r>
       <r>    25.7949     0.9210    59.9725 </r>
       <r>    25.9000     0.3368    60.0079 </r>
       <r>    26.0051    -0.0181    60.0060 </r>
       <r>    26.1102    -0.0439    60.0014 </r>
       <r>    26.2153    -0.0116    60.0002 </r>
       <r>    26.3203    -0.0014    60.0000 </r>
       <r>    26.4254    -0.0001    60.0000 </r>
       <r>    26.5305    -0.0000    60.0000 </r>
       <r>    26.6356    -0.0000    60.0000 </r>
       <r>    26.7407    -0.0000    60.0000 </r>
       <r>    26.8457    -0.0000    60.0000 </r>
       <r>    26.9508    -0.0000    60.0000 </r>
       <r>    27.0559     0.0000    60.0000 </r>
       <r>    27.1610     0.0000    60.0000 </r>
       <r>    27.2661     0.0000    60.0000 </r>
       <r>    27.3712     0.0000    60.0000 </r>
       <r>    27.4762     0.0000    60.0000 </r>
       <r>    27.5813     0.0000    60.0000 </r>
       <r>    27.6864     0.0000    60.0000 </r>
      </set>
     </set>
    </array>
   </total>
  </dos>
 </calculation>
 <structure name="finalpos" >
  <crystal>
   <varray name="basis" >
    <v>       3.63500000       0.00000000       0.00000000 </v>
    <v>       0.00000000       3.63500000       0.00000000 </v>
    <v>       0.00000000       0.00000000       3.63500000 </v>
   </varray>
   <i name="volume">     48.03007287 </i>
   <varray name="rec_basis" >
    <v>       0.27510316       0.00000000       0.00000000 </v>
    <v>       0.00000000       0.27510316       0.00000000 </v>
    <v>       0.00000000       0.00000000       0.27510316 </v>
   </varray>
  </crystal>
  <varray name="positions" >
   <v>       0.00000000       0.00000000       0.00000000 </v>
   <v>       0.50000000       0.50000000       0.00000000 </v>
   <v>       0.50000000       0.00000000       0.50000000 </v>
   <v>       0.00000000       0.50000000       0.50000000 </v>
  </varray>
 </structure>
</modeling>
