unknown system                          
   1.00000000000000     
     3.866000    0.000000    0.000000
     0.000000    3.866000    0.000000
     0.000000    0.000000    3.866000
   Pd   Ir   Pt   Cu
     1     1     1     1
Direct
  0.000000  0.000000  0.000000
  0.500000  0.500000  0.000000
  0.500000  0.000000  0.500000
  0.000000  0.500000  0.500000
 
   32   32   32
  359.45      342.95      300.62      247.50      194.75      145.46      100.21      62.670      37.485      24.350    
  17.366      13.234      11.019      9.9766      9.4089      8.9434      8.7274      8.9434      9.4089      9.9766    
  11.019      13.234      17.366      24.350      37.485      62.670      100.21      145.46      194.75      247.50    
  300.62      342.95      343.08      327.43      287.17      236.48      185.95      138.70      95.537      59.986    
  36.306      23.946      17.239      13.269      11.140      10.133      9.5841      9.1376      8.9315      9.1376    
  9.5841      10.133      11.140      13.269      17.239      23.946      36.306      59.986      95.537      138.70    
  185.95      236.48      287.17      327.43      300.48      286.94      251.94      207.42      162.62      120.80    
  83.212      52.978      33.262      22.878      16.915      13.398      11.509      10.607      10.115      9.7246    
  9.5470      9.7246      10.115      10.607      11.509      13.398      16.915      22.878      33.262      52.978    
  83.212      120.80      162.62      207.42      251.94      286.94      245.72      234.75      206.15      169.28    
  131.86      97.308      67.271      44.110      29.482      21.466      16.561      13.707      12.186      11.466    
  11.086      10.796      10.666      10.796      11.086      11.466      12.186      13.707      16.561      21.466    
  29.482      44.110      67.271      97.308      131.86      169.28      206.15      234.75      190.42      181.88    
  159.45      130.22      100.54      73.849      51.826      35.825      26.003      20.094      16.426      14.375    
  13.350      12.932      12.767      12.651      12.595      12.651      12.767      12.932      13.350      14.375    
  16.426      20.094      26.003      35.825      51.826      73.849      100.54      130.22      159.45      181.88    
  139.49      133.17      116.48      94.706      72.868      53.990      39.406      29.462      23.232      19.140    
  16.789      15.662      15.304      15.384      15.614      15.792      15.851      15.792      15.614      15.384    
  15.304      15.662      16.789      19.140      23.232      29.462      39.406      53.990      72.868      94.706    
  116.48      133.17      94.792      90.558      79.406      64.960      50.808      39.144      30.691      25.069    
  21.212      18.899      17.914      17.865      18.408      19.257      20.149      20.822      21.072      20.822    
  20.149      19.257      18.408      17.865      17.914      18.899      21.212      25.069      30.691      39.144    
  50.808      64.960      79.406      90.558      59.322      56.943      50.717      42.777      35.229      29.265    
  25.019      21.982      20.157      19.567      20.016      21.231      23.053      25.296      27.551      29.249    
  29.883      29.249      27.551      25.296      23.053      21.231      20.016      19.567      20.157      21.982    
  25.019      29.265      35.229      42.777      50.717      56.943      35.965      34.927      32.232      28.844    
  25.662      23.065      21.136      20.123      20.159      21.223      23.219      26.225      30.201      34.782    
  39.211      42.478      43.687      42.478      39.211      34.782      30.201      26.225      23.219      21.223    
  20.159      20.123      21.136      23.065      25.662      28.844      32.232      34.927      23.519      23.167    
  22.230      20.984      19.767      18.928      18.757      19.463      21.152      23.873      27.908      33.397    
  40.147      47.536      54.449      59.453      61.290      59.453      54.449      47.536      40.147      33.397    
  27.908      23.873      21.152      19.463      18.757      18.928      19.767      20.984      22.230      23.167    
  16.633      16.535      16.288      16.039      16.011      16.462      17.646      19.776      22.995      27.717    
  34.244      42.453      51.883      61.716      70.659      77.050      79.385      77.050      70.659      61.716    
  51.883      42.453      34.244      27.717      22.995      19.776      17.646      16.462      16.011      16.039    
  16.288      16.535      12.449      12.503      12.685      13.069      13.818      15.174      17.414      20.777    
  25.698      32.774      41.936      52.585      63.977      75.313      85.430      92.648      95.293      92.648    
  85.430      75.313      63.977      52.585      41.936      32.774      25.698      20.777      17.414      15.174    
  13.818      13.069      12.685      12.503      10.121      10.256      10.666      11.402      12.630      14.629    
  17.731      22.291      29.178      38.803      50.505      63.101      75.687      87.780      98.594      106.46    
  109.38      106.46      98.594      87.780      75.687      63.101      50.505      38.803      29.178      22.291    
  17.731      14.629      12.630      11.402      10.666      10.256      8.9466      9.1157      9.6247      10.534    
  12.048      14.515      18.331      24.145      33.109      45.280      59.320      73.507      86.995      99.860    
  111.74      120.72      124.13      120.72      111.74      99.860      86.995      73.507      59.320      45.280    
  33.109      24.145      18.331      14.515      12.048      10.534      9.6247      9.1157      8.2650      8.4513    
  9.0136      10.027      11.741      14.571      18.987      25.997      36.873      51.309      67.365      82.954    
  97.471      111.62      125.31      136.08      140.26      136.08      125.31      111.62      97.471      82.954    
  67.365      51.309      36.873      25.997      18.987      14.571      11.741      10.027      9.0136      8.4513    
  7.7310      7.9349      8.5492      9.6561      11.529      14.627      19.485      27.387      39.641      55.681    
  73.173      89.849      105.37      120.94      136.55      149.14      154.07      149.14      136.55      120.94    
  105.37      89.849      73.173      55.681      39.641      27.387      19.485      14.627      11.529      9.6561    
  8.5492      7.9349      7.4940      7.7071      8.3478      9.4986      11.440      14.642      19.670      27.906    
  40.665      57.290      75.312      92.413      108.38      124.57      141.03      154.38      159.64      154.38    
  141.03      124.57      108.38      92.413      75.312      57.290      40.665      27.906      19.670      14.642    
  11.440      9.4986      8.3478      7.7071      7.7310      7.9349      8.5492      9.6561      11.529      14.627    
  19.485      27.387      39.641      55.681      73.173      89.849      105.37      120.94      136.55      149.14    
  154.07      149.14      136.55      120.94      105.37      89.849      73.173      55.681      39.641      27.387    
  19.485      14.627      11.529      9.6561      8.5492      7.9349      8.2650      8.4513      9.0136      10.027    
  11.741      14.571      18.987      25.997      36.873      51.309      67.365      82.954      97.471      111.62    
  125.31      136.08      140.26      136.08      125.31      111.62      97.471      82.954      67.365      51.309    
  36.873      25.997      18.987      14.571      11.741      10.027      9.0136      8.4513      8.9466      9.1157    
  9.6247      10.534      12.048      14.515      18.331      24.145      33.109      45.280      59.320      73.507    
  86.995      99.860      111.74      120.72      124.13      120.72      111.74      99.860      86.995      73.507    
  59.320      45.280      33.109      24.145      18.331      14.515      12.048      10.534      9.6247      9.1157    
  10.121      10.256      10.666      11.402      12.630      14.629      17.731      22.291      29.178      38.803    
  50.505      63.101      75.687      87.780      98.594      106.46      109.38      106.46      98.594      87.780    
  75.687      63.101      50.505      38.803      29.178      22.291      17.731      14.629      12.630      11.402    
  10.666      10.256      12.449      12.503      12.685      13.069      13.818      15.174      17.414      20.777    
  25.698      32.774      41.936      52.585      63.977      75.313      85.430      92.648      95.293      92.648    
  85.430      75.313      63.977      52.585      41.936      32.774      25.698      20.777      17.414      15.174    
  13.818      13.069      12.685      12.503      16.633      16.535      16.288      16.039      16.011      16.462    
  17.646      19.776      22.995      27.717      34.244      42.453      51.883      61.716      70.659      77.050    
  79.385      77.050      70.659      61.716      51.883      42.453      34.244      27.717      22.995      19.776    
  17.646      16.462      16.011      16.039      16.288      16.535      23.519      23.167      22.230      20.984    
  19.767      18.928      18.757      19.463      21.152      23.873      27.908      33.397      40.147      47.536    
  54.449      59.453      61.290      59.453      54.449      47.536      40.147      33.397      27.908      23.873    
  21.152      19.463      18.757      18.928      19.767      20.984      22.230      23.167      35.965      34.927    
  32.232      28.844      25.662      23.065      21.136      20.123      20.159      21.223      23.219      26.225    
  30.201      34.782      39.211      42.478      43.687      42.478      39.211      34.782      30.201      26.225    
  23.219      21.223      20.159      20.123      21.136      23.065      25.662      28.844      32.232      34.927    
  59.322      56.943      50.717      42.777      35.229      29.265      25.019      21.982      20.157      19.567    
  20.016      21.231      23.053      25.296      27.551      29.249      29.883      29.249      27.551      25.296    
  23.053      21.231      20.016      19.567      20.157      21.982      25.019      29.265      35.229      42.777    
  50.717      56.943      94.792      90.558      79.406      64.960      50.808      39.144      30.691      25.069    
  21.212      18.899      17.914      17.865      18.408      19.257      20.149      20.822      21.072      20.822    
  20.149      19.257      18.408      17.865      17.914      18.899      21.212      25.069      30.691      39.144    
  50.808      64.960      79.406      90.558      139.49      133.17      116.48      94.706      72.868      53.990    
  39.406      29.462      23.232      19.140      16.789      15.662      15.304      15.384      15.614      15.792    
  15.851      15.792      15.614      15.384      15.304      15.662      16.789      19.140      23.232      29.462    
  39.406      53.990      72.868      94.706      116.48      133.17      190.42      181.88      159.45      130.22    
  100.54      73.849      51.826      35.825      26.003      20.094      16.426      14.375      13.350      12.932    
  12.767      12.651      12.595      12.651      12.767      12.932      13.350      14.375      16.426      20.094    
  26.003      35.825      51.826      73.849      100.54      130.22      159.45      181.88      245.72      234.75    
  206.15      169.28      131.86      97.308      67.271      44.110      29.482      21.466      16.561      13.707    
  12.186      11.466      11.086      10.796      10.666      10.796      11.086      11.466      12.186      13.707    
  16.561      21.466      29.482      44.110      67.271      97.308      131.86      169.28      206.15      234.75    
  300.48      286.94      251.94      207.42      162.62      120.80      83.212      52.978      33.262      22.878    
  16.915      13.398      11.509      10.607      10.115      9.7246      9.5470      9.7246      10.115      10.607    
  11.509      13.398      16.915      22.878      33.262      52.978      83.212      120.80      162.62      207.42    
  251.94      286.94      343.08      327.43      287.17      236.48      185.95      138.70      95.537      59.986    
  36.306      23.946      17.239      13.269      11.140      10.133      9.5841      9.1376      8.9315      9.1376    
  9.5841      10.133      11.140      13.269      17.239      23.946      36.306      59.986      95.537      138.70    
  185.95      236.48      287.17      327.43      343.35      327.75      287.63      237.03      186.47      139.09    
  95.747      60.061      36.315      23.938      17.233      13.272      11.153      10.156      9.6153      9.1747    
  8.9707      9.1747      9.6153      10.156      11.153      13.272      17.233      23.938      36.315      60.061    
  95.747      139.09      186.47      237.03      287.63      327.75      328.27      313.42      275.17      226.75    
  178.21      132.73      91.350      57.544      35.212      23.553      17.110      13.306      11.269      10.307    
  9.7843      9.3618      9.1671      9.3618      9.7843      10.307      11.269      13.306      17.110      23.553    
  35.212      57.544      91.350      132.73      178.21      226.75      275.17      313.42      288.78      275.85    
  242.34      199.52      156.25      115.85      79.743      50.969      32.361      22.528      16.797      13.431    
  11.625      10.764      10.296      9.9277      9.7602      9.9277      10.296      10.764      11.625      13.431    
  16.797      22.528      32.361      50.969      79.743      115.85      156.25      199.52      242.34      275.85    
  237.43      226.85      199.21      163.47      127.10      93.594      64.694      42.635      28.809      21.163    
  16.455      13.728      12.278      11.593      11.234      10.962      10.840      10.962      11.234      11.593    
  12.278      13.728      16.455      21.163      28.809      42.635      64.694      93.594      127.10      163.47    
  199.21      226.85      184.70      176.40      154.57      126.09      97.168      71.258      50.069      34.830    
  25.513      19.836      16.324      14.370      13.400      13.008      12.858      12.754      12.703      12.754    
  12.858      13.008      13.400      14.370      16.324      19.836      25.513      34.830      50.069      71.258    
  97.168      126.09      154.57      176.40      135.38      129.22      112.98      91.772      70.537      52.272    
  38.276      28.806      22.838      18.911      16.671      15.609      15.283      15.374      15.608      15.789    
  15.850      15.789      15.608      15.374      15.283      15.609      16.671      18.911      22.838      28.806    
  38.276      52.272      70.537      91.772      112.98      129.22      91.844      87.741      76.936      62.949    
  49.279      38.063      29.979      24.593      20.879      18.674      17.753      17.731      18.277      19.115    
  19.985      20.638      20.880      20.638      19.985      19.115      18.277      17.731      17.753      18.674    
  20.879      24.593      29.979      38.063      49.279      62.949      76.936      87.741      57.446      55.159    
  49.177      41.556      34.322      28.615      24.532      21.597      19.856      19.316      19.780      20.981    
  22.747      24.905      27.066      28.691      29.297      28.691      27.066      24.905      22.747      20.981    
  19.780      19.316      19.856      21.597      24.532      28.615      34.322      41.556      49.177      55.159    
  35.002      34.012      31.441      28.207      25.154      22.634      20.767      19.801      19.860      20.920    
  22.874      25.780      29.602      33.991      38.226      41.345      42.498      41.345      38.226      33.991    
  29.602      25.780      22.874      20.920      19.860      19.801      20.767      22.634      25.154      28.207    
  31.441      34.012      23.091      22.751      21.842      20.626      19.442      18.631      18.474      19.172    
  20.832      23.487      27.396      32.696      39.195      46.286      52.898      57.673      59.424      57.673    
  52.898      46.286      39.195      32.696      27.396      23.487      20.832      19.172      18.474      18.631    
  19.442      20.626      21.842      22.751      16.423      16.326      16.086      15.845      15.819      16.259    
  17.413      19.493      22.631      27.214      33.549      41.512      50.632      60.092      68.649      74.735    
  76.954      74.735      68.649      60.092      50.632      41.512      33.549      27.214      22.631      19.493    
  17.413      16.259      15.819      15.845      16.086      16.326      12.399      12.450      12.623      12.992    
  13.716      15.030      17.208      20.486      25.266      32.150      41.094      51.496      62.577      73.506    
  83.161      89.993      92.487      89.993      83.161      73.506      62.577      51.496      41.094      32.150    
  25.266      20.486      17.208      15.030      13.716      12.992      12.623      12.450      10.181      10.310    
  10.699      11.404      12.587      14.521      17.537      21.973      28.669      38.076      49.578      61.978    
  74.288      85.941      96.184      103.54      106.25      103.54      96.184      85.941      74.288      61.978    
  49.578      38.076      28.669      21.973      17.537      14.521      12.587      11.404      10.699      10.310    
  9.0806      9.2399      9.7212      10.588      12.042      14.428      18.142      23.790      32.525      44.476    
  58.363      72.425      85.663      98.003      109.12      117.38      120.51      117.38      109.12      98.003    
  85.663      72.425      58.363      44.476      32.525      23.790      18.142      14.428      12.042      10.588    
  9.7212      9.2399      8.4558      8.6300      9.1581      10.120      11.763      14.500      18.797      25.606    
  36.227      50.450      66.403      81.923      96.175      109.65      122.32      132.12      135.90      132.12    
  122.32      109.65      96.175      81.923      66.403      50.450      36.227      25.606      18.797      14.500    
  11.763      10.120      9.1581      8.6300      7.9691      8.1588      8.7335      9.7804      11.574      14.569    
  19.294      26.969      38.952      54.788      72.211      88.846      104.07      118.81      133.16      144.55    
  148.99      144.55      133.16      118.81      104.07      88.846      72.211      54.788      38.952      26.969    
  19.294      14.569      11.574      9.7804      8.7335      8.1588      7.7525      7.9505      8.5491      9.6364    
  11.494      14.591      19.478      27.478      39.961      56.386      74.350      91.416      107.06      122.36    
  137.46      149.53      154.26      149.53      137.46      122.36      107.06      91.416      74.350      56.386    
  39.961      27.478      19.478      14.591      11.494      9.6364      8.5491      7.9505      7.9691      8.1588    
  8.7335      9.7804      11.574      14.569      19.294      26.969      38.952      54.788      72.211      88.846    
  104.07      118.81      133.16      144.55      148.99      144.55      133.16      118.81      104.07      88.846    
  72.211      54.788      38.952      26.969      19.294      14.569      11.574      9.7804      8.7335      8.1588    
  8.4558      8.6300      9.1581      10.120      11.763      14.500      18.797      25.606      36.227      50.450    
  66.403      81.923      96.175      109.65      122.32      132.12      135.90      132.12      122.32      109.65    
  96.175      81.923      66.403      50.450      36.227      25.606      18.797      14.500      11.763      10.120    
  9.1581      8.6300      9.0806      9.2399      9.7212      10.588      12.042      14.428      18.142      23.790    
  32.525      44.476      58.363      72.425      85.663      98.003      109.12      117.38      120.51      117.38    
  109.12      98.003      85.663      72.425      58.363      44.476      32.525      23.790      18.142      14.428    
  12.042      10.588      9.7212      9.2399      10.181      10.310      10.699      11.404      12.587      14.521    
  17.537      21.973      28.669      38.076      49.578      61.978      74.288      85.941      96.184      103.54    
  106.25      103.54      96.184      85.941      74.288      61.978      49.578      38.076      28.669      21.973    
  17.537      14.521      12.587      11.404      10.699      10.310      12.399      12.450      12.623      12.992    
  13.716      15.030      17.208      20.486      25.266      32.150      41.094      51.496      62.577      73.506    
  83.161      89.993      92.487      89.993      83.161      73.506      62.577      51.496      41.094      32.150    
  25.266      20.486      17.208      15.030      13.716      12.992      12.623      12.450      16.423      16.326    
  16.086      15.845      15.819      16.259      17.413      19.493      22.631      27.214      33.549      41.512    
  50.632      60.092      68.649      74.735      76.954      74.735      68.649      60.092      50.632      41.512    
  33.549      27.214      22.631      19.493      17.413      16.259      15.819      15.845      16.086      16.326    
  23.091      22.751      21.842      20.626      19.442      18.631      18.474      19.172      20.832      23.487    
  27.396      32.696      39.195      46.286      52.898      57.673      59.424      57.673      52.898      46.286    
  39.195      32.696      27.396      23.487      20.832      19.172      18.474      18.631      19.442      20.626    
  21.842      22.751      35.002      34.012      31.441      28.207      25.154      22.634      20.767      19.801    
  19.860      20.920      22.874      25.780      29.602      33.991      38.226      41.345      42.498      41.345    
  38.226      33.991      29.602      25.780      22.874      20.920      19.860      19.801      20.767      22.634    
  25.154      28.207      31.441      34.012      57.446      55.159      49.177      41.556      34.322      28.615    
  24.532      21.597      19.856      19.316      19.780      20.981      22.747      24.905      27.066      28.691    
  29.297      28.691      27.066      24.905      22.747      20.981      19.780      19.316      19.856      21.597    
  24.532      28.615      34.322      41.556      49.177      55.159      91.844      87.741      76.936      62.949    
  49.279      38.063      29.979      24.593      20.879      18.674      17.753      17.731      18.277      19.115    
  19.985      20.638      20.880      20.638      19.985      19.115      18.277      17.731      17.753      18.674    
  20.879      24.593      29.979      38.063      49.279      62.949      76.936      87.741      135.38      129.22    
  112.98      91.772      70.537      52.272      38.276      28.806      22.838      18.911      16.671      15.609    
  15.283      15.374      15.608      15.789      15.850      15.789      15.608      15.374      15.283      15.609    
  16.671      18.911      22.838      28.806      38.276      52.272      70.537      91.772      112.98      129.22    
  184.70      176.40      154.57      126.09      97.168      71.258      50.069      34.830      25.513      19.836    
  16.324      14.370      13.400      13.008      12.858      12.754      12.703      12.754      12.858      13.008    
  13.400      14.370      16.324      19.836      25.513      34.830      50.069      71.258      97.168      126.09    
  154.57      176.40      237.43      226.85      199.21      163.47      127.10      93.594      64.694      42.635    
  28.809      21.163      16.455      13.728      12.278      11.593      11.234      10.962      10.840      10.962    
  11.234      11.593      12.278      13.728      16.455      21.163      28.809      42.635      64.694      93.594    
  127.10      163.47      199.21      226.85      288.78      275.85      242.34      199.52      156.25      115.85    
  79.743      50.969      32.361      22.528      16.797      13.431      11.625      10.764      10.296      9.9277    
  9.7602      9.9277      10.296      10.764      11.625      13.431      16.797      22.528      32.361      50.969    
  79.743      115.85      156.25      199.52      242.34      275.85      328.27      313.42      275.17      226.75    
  178.21      132.73      91.350      57.544      35.212      23.553      17.110      13.306      11.269      10.307    
  9.7843      9.3618      9.1671      9.3618      9.7843      10.307      11.269      13.306      17.110      23.553    
  35.212      57.544      91.350      132.73      178.21      226.75      275.17      313.42      301.29      287.95    
  253.39      209.16      164.27      122.00      83.844      53.186      33.271      22.843      16.885      13.391    
  11.527      10.647      10.171      9.7925      9.6189      9.7925      10.171      10.647      11.527      13.391    
  16.885      22.843      33.271      53.186      83.844      122.00      164.27      209.16      253.39      287.95    
  289.33      276.54      243.34      200.73      157.39      116.67      80.172      51.106      32.364      22.501    
  16.775      13.422      11.632      10.784      10.325      9.9624      9.7970      9.9624      10.325      10.784    
  11.632      13.422      16.775      22.501      32.364      51.106      80.172      116.67      157.39      200.73    
  243.34      276.54      257.47      246.11      216.45      178.09      138.91      102.42      70.444      45.658    
  30.005      21.578      16.492      13.534      11.954      11.199      10.791      10.477      10.335      10.477    
  10.791      11.199      11.954      13.534      16.492      21.578      30.005      45.658      70.444      102.42    
  138.91      178.09      216.45      246.11      214.53      204.99      179.96      147.30      113.92      83.432    
  57.748      38.722      27.031      20.341      16.183      13.800      12.541      11.950      11.644      11.417    
  11.316      11.417      11.644      11.950      12.541      13.800      16.183      20.341      27.031      38.722    
  57.748      83.432      113.92      147.30      179.96      204.99      168.30      160.70      140.63      114.34    
  87.679      64.106      45.311      32.172      24.184      19.136      16.059      14.372      13.549      13.228    
  13.117      13.043      13.007      13.043      13.117      13.228      13.549      14.372      16.059      19.136    
  24.184      32.172      45.311      64.106      87.679      114.34      140.63      160.70      123.38      117.74    
  102.82      83.350      63.957      47.516      35.207      27.028      21.754      18.290      16.359      15.476    
  15.237      15.360      15.604      15.792      15.857      15.792      15.604      15.360      15.237      15.476    
  16.359      18.290      21.754      27.028      35.207      47.516      63.957      83.350      102.82      117.74    
  83.322      79.611      69.846      57.239      45.002      35.087      28.034      23.268      19.962      18.060    
  17.316      17.372      17.928      18.736      19.554      20.159      20.382      20.159      19.554      18.736    
  17.928      17.372      17.316      18.060      19.962      23.268      28.034      35.087      45.002      57.239    
  69.846      79.611      52.162      50.142      44.865      38.161      31.824      26.827      23.169      20.531    
  19.027      18.626      19.132      20.297      21.926      23.862      25.778      27.211      27.744      27.211    
  25.778      23.862      21.926      20.297      19.132      18.626      19.027      20.531      23.169      26.827    
  31.824      38.161      44.865      50.142      32.364      31.507      29.278      26.457      23.746      21.432    
  19.744      18.913      19.035      20.079      21.922      24.564      27.979      31.859      35.577      38.302    
  39.308      38.302      35.577      31.859      27.979      24.564      21.922      20.079      19.035      18.913    
  19.744      21.432      23.746      26.457      29.278      31.507      21.910      21.598      20.757      19.632    
  18.547      17.815      17.695      18.371      19.943      22.417      25.978      30.762      36.580      42.871    
  48.685      52.854      54.377      52.854      48.685      42.871      36.580      30.762      25.978      22.417    
  19.943      18.371      17.695      17.815      18.547      19.632      20.757      21.598      15.839      15.752    
  15.534      15.317      15.299      15.709      16.778      18.708      21.620      25.811      31.598      38.870    
  47.141      55.606      63.146      68.442      70.359      68.442      63.146      55.606      47.141      38.870    
  31.598      25.811      21.620      18.708      16.778      15.709      15.299      15.317      15.534      15.752    
  12.237      12.284      12.443      12.781      13.443      14.644      16.644      19.679      24.058      30.380    
  38.676      48.364      58.590      68.454      76.930      82.789      84.900      82.789      76.930      68.454    
  58.590      48.364      38.676      30.380      24.058      19.679      16.644      14.644      13.443      12.781    
  12.443      12.284      10.276      10.392      10.746      11.386      12.463      14.229      17.003      21.092    