unknown system                          
   1.00000000000000     
     3.866000    0.000000    0.000000
     0.000000    3.866000    0.000000
     0.000000    0.000000    3.866000
   Pd   Ir   Pt   Cu
     1     1     1     1
Direct
  0.000000  0.000000  0.000000
  0.500000  0.500000  0.000000
  0.500000  0.000000  0.500000
  0.000000  0.500000  0.500000
 
   32   32   32
 0.35944933418E+03 0.34295113837E+03 0.30061980443E+03 0.24750075154E+03 0.19475180336E+03
 0.14545993058E+03 0.10021139643E+03 0.62670384667E+02 0.37485219362E+02 0.24349552952E+02
 0.17366276509E+02 0.13233561351E+02 0.11018978197E+02 0.99765971854E+01 0.94089441183E+01
 0.89433945669E+01 0.87273709156E+01 0.89433945669E+01 0.94089441183E+01 0.99765971854E+01
 0.11018978197E+02 0.13233561351E+02 0.17366276509E+02 0.24349552952E+02 0.37485219362E+02
 0.62670384667E+02 0.10021139643E+03 0.14545993058E+03 0.19475180336E+03 0.24750075154E+03
 0.30061980443E+03 0.34295113837E+03 0.34308384054E+03 0.32742544181E+03 0.28717259492E+03
 0.23647934286E+03 0.18594747685E+03 0.13870438337E+03 0.95536604923E+02 0.59985901911E+02
 0.36306130668E+02 0.23945860340E+02 0.17238882249E+02 0.13269394882E+02 0.11139990915E+02
 0.10133262449E+02 0.95841381421E+01 0.91376018287E+01 0.89314540914E+01 0.91376018287E+01
 0.95841381421E+01 0.10133262449E+02 0.11139990915E+02 0.13269394882E+02 0.17238882249E+02
 0.23945860340E+02 0.36306130668E+02 0.59985901911E+02 0.95536604923E+02 0.13870438337E+03
 0.18594747685E+03 0.23647934286E+03 0.28717259492E+03 0.32742544181E+03 0.30047885174E+03
 0.28693951030E+03 0.25193970091E+03 0.20741583948E+03 0.16261708830E+03 0.12079993759E+03
 0.83211777450E+02 0.52978064960E+02 0.33261512041E+02 0.22878327597E+02 0.16914583629E+02
 0.13398424075E+02 0.11508894464E+02 0.10606884411E+02 0.10114829631E+02 0.97246039260E+01
 0.95469601210E+01 0.97246039260E+01 0.10114829631E+02 0.10606884411E+02 0.11508894464E+02
 0.13398424075E+02 0.16914583629E+02 0.22878327597E+02 0.33261512041E+02 0.52978064960E+02
 0.83211777450E+02 0.12079993759E+03 0.16261708830E+03 0.20741583948E+03 0.25193970091E+03
 0.28693951030E+03 0.24571944044E+03 0.23474688480E+03 0.20614919106E+03 0.16928035900E+03
 0.13185961584E+03 0.97307754033E+02 0.67270747760E+02 0.44110215204E+02 0.29482228284E+02
 0.21466163464E+02 0.16560876678E+02 0.13707238167E+02 0.12185849108E+02 0.11465906241E+02
 0.11085837593E+02 0.10796145383E+02 0.10665911370E+02 0.10796145383E+02 0.11085837593E+02
 0.11465906241E+02 0.12185849108E+02 0.13707238167E+02 0.16560876678E+02 0.21466163464E+02
 0.29482228284E+02 0.44110215204E+02 0.67270747760E+02 0.97307754033E+02 0.13185961584E+03
 0.16928035900E+03 0.20614919106E+03 0.23474688480E+03 0.19042013807E+03 0.18187969304E+03
 0.15944530765E+03 0.13021654597E+03 0.10054434995E+03 0.73848541962E+02 0.51825908318E+02
 0.35825093835E+02 0.26003240790E+02 0.20094018043E+02 0.16426110786E+02 0.14375229269E+02
 0.13350193268E+02 0.12931960577E+02 0.12767373107E+02 0.12650941473E+02 0.12594606889E+02
 0.12650941473E+02 0.12767373107E+02 0.12931960577E+02 0.13350193268E+02 0.14375229269E+02
 0.16426110786E+02 0.20094018043E+02 0.26003240790E+02 0.35825093835E+02 0.51825908318E+02
 0.73848541962E+02 0.10054434995E+03 0.13021654597E+03 0.15944530765E+03 0.18187969304E+03
 0.13949009632E+03 0.13316519784E+03 0.11648428036E+03 0.94705909028E+02 0.72868123834E+02
 0.53990231085E+02 0.39405665626E+02 0.29462015289E+02 0.23231607586E+02 0.19140116685E+02
 0.16788794590E+02 0.15662295114E+02 0.15304140588E+02 0.15383925672E+02 0.15614436435E+02
 0.15792151627E+02 0.15851249447E+02 0.15792151627E+02 0.15614436435E+02 0.15383925672E+02
 0.15304140588E+02 0.15662295114E+02 0.16788794590E+02 0.19140116685E+02 0.23231607586E+02
 0.29462015289E+02 0.39405665626E+02 0.53990231085E+02 0.72868123834E+02 0.94705909028E+02
 0.11648428036E+03 0.13316519784E+03 0.94791843967E+02 0.90557625239E+02 0.79406459867E+02
 0.64959567037E+02 0.50808371575E+02 0.39143935209E+02 0.30690921501E+02 0.25068843579E+02
 0.21212035037E+02 0.18899085605E+02 0.17914310550E+02 0.17864842124E+02 0.18407597941E+02
 0.19257397438E+02 0.20149216031E+02 0.20822402175E+02 0.21071877415E+02 0.20822402175E+02
 0.20149216031E+02 0.19257397438E+02 0.18407597941E+02 0.17864842124E+02 0.17914310550E+02
 0.18899085605E+02 0.21212035037E+02 0.25068843579E+02 0.30690921501E+02 0.39143935209E+02
 0.50808371575E+02 0.64959567037E+02 0.79406459867E+02 0.90557625239E+02 0.59321600419E+02
 0.56942563563E+02 0.50716872989E+02 0.42777258097E+02 0.35228882742E+02 0.29264887602E+02
 0.25019339437E+02 0.21982302201E+02 0.20157255481E+02 0.19566976577E+02 0.20015505211E+02
 0.21231258957E+02 0.23053120809E+02 0.25296039332E+02 0.27550959373E+02 0.29249106130E+02
 0.29883051610E+02 0.29249106130E+02 0.27550959373E+02 0.25296039332E+02 0.23053120809E+02
 0.21231258957E+02 0.20015505211E+02 0.19566976577E+02 0.20157255481E+02 0.21982302201E+02
 0.25019339437E+02 0.29264887602E+02 0.35228882742E+02 0.42777258097E+02 0.50716872989E+02
 0.56942563563E+02 0.35964508141E+02 0.34926567534E+02 0.32231680597E+02 0.28844306411E+02
 0.25661521267E+02 0.23064693829E+02 0.21136484798E+02 0.20123127604E+02 0.20159023775E+02
 0.21223244265E+02 0.23219441218E+02 0.26224884821E+02 0.30200550836E+02 0.34781553717E+02
 0.39211234353E+02 0.42478077408E+02 0.43686982411E+02 0.42478077408E+02 0.39211234353E+02
 0.34781553717E+02 0.30200550836E+02 0.26224884821E+02 0.23219441218E+02 0.21223244265E+02
 0.20159023775E+02 0.20123127604E+02 0.21136484798E+02 0.23064693829E+02 0.25661521267E+02
 0.28844306411E+02 0.32231680597E+02 0.34926567534E+02 0.23519258909E+02 0.23166604179E+02
 0.22230329187E+02 0.20983897100E+02 0.19766734438E+02 0.18927996985E+02 0.18757076688E+02
 0.19463047857E+02 0.21152262373E+02 0.23872821896E+02 0.27908070265E+02 0.33396939835E+02
 0.40147067328E+02 0.47536219867E+02 0.54449315227E+02 0.59453409993E+02 0.61290124870E+02
 0.59453409993E+02 0.54449315227E+02 0.47536219867E+02 0.40147067328E+02 0.33396939835E+02
 0.27908070265E+02 0.23872821896E+02 0.21152262373E+02 0.19463047857E+02 0.18757076688E+02
 0.18927996985E+02 0.19766734438E+02 0.20983897100E+02 0.22230329187E+02 0.23166604179E+02
 0.16633317419E+02 0.16534730675E+02 0.16288260005E+02 0.16039481859E+02 0.16011086206E+02
 0.16461584817E+02 0.17645772014E+02 0.19776377915E+02 0.22994542795E+02 0.27716870823E+02
 0.34243820096E+02 0.42452729381E+02 0.51882969929E+02 0.61715512070E+02 0.70659295826E+02
 0.77049937886E+02 0.79385162032E+02 0.77049937886E+02 0.70659295826E+02 0.61715512070E+02
 0.51882969929E+02 0.42452729381E+02 0.34243820096E+02 0.27716870823E+02 0.22994542795E+02
 0.19776377915E+02 0.17645772014E+02 0.16461584817E+02 0.16011086206E+02 0.16039481859E+02
 0.16288260005E+02 0.16534730675E+02 0.12448856531E+02 0.12503405051E+02 0.12684847106E+02
 0.13068745254E+02 0.13817920433E+02 0.15173556582E+02 0.17414216003E+02 0.20776896742E+02
 0.25698407622E+02 0.32774232776E+02 0.41936213813E+02 0.52585040087E+02 0.63977425699E+02
 0.75313339266E+02 0.85430433501E+02 0.92648065321E+02 0.95293264279E+02 0.92648065321E+02
 0.85430433501E+02 0.75313339266E+02 0.63977425699E+02 0.52585040087E+02 0.41936213813E+02
 0.32774232776E+02 0.25698407622E+02 0.20776896742E+02 0.17414216003E+02 0.15173556582E+02
 0.13817920433E+02 0.13068745254E+02 0.12684847106E+02 0.12503405051E+02 0.10120930601E+02
 0.10256170849E+02 0.10665807694E+02 0.11402477291E+02 0.12630269150E+02 0.14628748307E+02
 0.17730729965E+02 0.22291121099E+02 0.29178248665E+02 0.38802753951E+02 0.50505398709E+02
 0.63100841383E+02 0.75686787511E+02 0.87779851802E+02 0.98594402993E+02 0.10645687090E+03
 0.10938075030E+03 0.10645687090E+03 0.98594402993E+02 0.87779851802E+02 0.75686787511E+02
 0.63100841383E+02 0.50505398709E+02 0.38802753951E+02 0.29178248665E+02 0.22291121099E+02
 0.17730729965E+02 0.14628748307E+02 0.12630269150E+02 0.11402477291E+02 0.10665807694E+02
 0.10256170849E+02 0.89466338551E+01 0.91156801418E+01 0.96247319491E+01 0.10534393606E+02
 0.12048042877E+02 0.14514553357E+02 0.18331284557E+02 0.24145001962E+02 0.33109164471E+02
 0.45280433968E+02 0.59320323504E+02 0.73507057579E+02 0.86995134588E+02 0.99860391424E+02
 0.11173838682E+03 0.12071711675E+03 0.12413406652E+03 0.12071711675E+03 0.11173838682E+03
 0.99860391424E+02 0.86995134588E+02 0.73507057579E+02 0.59320323504E+02 0.45280433968E+02
 0.33109164471E+02 0.24145001962E+02 0.18331284557E+02 0.14514553357E+02 0.12048042877E+02
 0.10534393606E+02 0.96247319491E+01 0.91156801418E+01 0.82649825035E+01 0.84513055140E+01
 0.90135588369E+01 0.10027489986E+02 0.11740914546E+02 0.14570675686E+02 0.18986525881E+02
 0.25997364890E+02 0.36873152426E+02 0.51308585868E+02 0.67365148338E+02 0.82954062520E+02
 0.97470994353E+02 0.11161912830E+03 0.12531269111E+03 0.13608261260E+03 0.14026357709E+03
 0.13608261260E+03 0.12531269111E+03 0.11161912830E+03 0.97470994353E+02 0.82954062520E+02
 0.67365148338E+02 0.51308585868E+02 0.36873152426E+02 0.25997364890E+02 0.18986525881E+02
 0.14570675686E+02 0.11740914546E+02 0.10027489986E+02 0.90135588369E+01 0.84513055140E+01
 0.77309761876E+01 0.79348786021E+01 0.85492272518E+01 0.96561131996E+01 0.11528976868E+02
 0.14626796823E+02 0.19485470857E+02 0.27387435085E+02 0.39640997596E+02 0.55680756848E+02
 0.73173241689E+02 0.89849298737E+02 0.10537484190E+03 0.12093729737E+03 0.13655334010E+03
 0.14913647445E+03 0.15407406069E+03 0.14913647445E+03 0.13655334010E+03 0.12093729737E+03
 0.10537484190E+03 0.89849298737E+02 0.73173241689E+02 0.55680756848E+02 0.39640997596E+02
 0.27387435085E+02 0.19485470857E+02 0.14626796823E+02 0.11528976868E+02 0.96561131996E+01
 0.85492272518E+01 0.79348786021E+01 0.74940274510E+01 0.77070723913E+01 0.83478292358E+01
 0.94986107002E+01 0.11439512048E+02 0.14642399040E+02 0.19670415103E+02 0.27905664797E+02
 0.40665048249E+02 0.57290042815E+02 0.75311958417E+02 0.92413115694E+02 0.10837636439E+03
 0.12456994827E+03 0.14102529505E+03 0.15438472369E+03 0.15964320337E+03 0.15438472369E+03
 0.14102529505E+03 0.12456994827E+03 0.10837636439E+03 0.92413115694E+02 0.75311958417E+02
 0.57290042815E+02 0.40665048249E+02 0.27905664797E+02 0.19670415103E+02 0.14642399040E+02
 0.11439512048E+02 0.94986107002E+01 0.83478292358E+01 0.77070723913E+01 0.77309761876E+01
 0.79348786021E+01 0.85492272518E+01 0.96561131996E+01 0.11528976868E+02 0.14626796823E+02
 0.19485470857E+02 0.27387435085E+02 0.39640997596E+02 0.55680756848E+02 0.73173241689E+02
 0.89849298737E+02 0.10537484190E+03 0.12093729737E+03 0.13655334010E+03 0.14913647445E+03
 0.15407406069E+03 0.14913647445E+03 0.13655334010E+03 0.12093729737E+03 0.10537484190E+03
 0.89849298737E+02 0.73173241689E+02 0.55680756848E+02 0.39640997596E+02 0.27387435085E+02
 0.19485470857E+02 0.14626796823E+02 0.11528976868E+02 0.96561131996E+01 0.85492272518E+01
 0.79348786021E+01 0.82649825035E+01 0.84513055140E+01 0.90135588369E+01 0.10027489986E+02
 0.11740914546E+02 0.14570675686E+02 0.18986525881E+02 0.25997364890E+02 0.36873152426E+02
 0.51308585868E+02 0.67365148338E+02 0.82954062520E+02 0.97470994353E+02 0.11161912830E+03
 0.12531269111E+03 0.13608261260E+03 0.14026357709E+03 0.13608261260E+03 0.12531269111E+03
 0.11161912830E+03 0.97470994353E+02 0.82954062520E+02 0.67365148338E+02 0.51308585868E+02
 0.36873152426E+02 0.25997364890E+02 0.18986525881E+02 0.14570675686E+02 0.11740914546E+02
 0.10027489986E+02 0.90135588369E+01 0.84513055140E+01 0.89466338551E+01 0.91156801418E+01
 0.96247319491E+01 0.10534393606E+02 0.12048042877E+02 0.14514553357E+02 0.18331284557E+02
 0.24145001962E+02 0.33109164471E+02 0.45280433968E+02 0.59320323504E+02 0.73507057579E+02
 0.86995134588E+02 0.99860391424E+02 0.11173838682E+03 0.12071711675E+03 0.12413406652E+03
 0.12071711675E+03 0.11173838682E+03 0.99860391424E+02 0.86995134588E+02 0.73507057579E+02
 0.59320323504E+02 0.45280433968E+02 0.33109164471E+02 0.24145001962E+02 0.18331284557E+02
 0.14514553357E+02 0.12048042877E+02 0.10534393606E+02 0.96247319491E+01 0.91156801418E+01
 0.10120930601E+02 0.10256170849E+02 0.10665807694E+02 0.11402477291E+02 0.12630269150E+02
 0.14628748307E+02 0.17730729965E+02 0.22291121099E+02 0.29178248665E+02 0.38802753951E+02
 0.50505398709E+02 0.63100841383E+02 0.75686787511E+02 0.87779851802E+02 0.98594402993E+02
 0.10645687090E+03 0.10938075030E+03 0.10645687090E+03 0.98594402993E+02 0.87779851802E+02
 0.75686787511E+02 0.63100841383E+02 0.50505398709E+02 0.38802753951E+02 0.29178248665E+02
 0.22291121099E+02 0.17730729965E+02 0.14628748307E+02 0.12630269150E+02 0.11402477291E+02
 0.10665807694E+02 0.10256170849E+02 0.12448856531E+02 0.12503405051E+02 0.12684847106E+02
 0.13068745254E+02 0.13817920433E+02 0.15173556582E+02 0.17414216003E+02 0.20776896742E+02
 0.25698407622E+02 0.32774232776E+02 0.41936213813E+02 0.52585040087E+02 0.63977425699E+02
 0.75313339266E+02 0.85430433501E+02 0.92648065321E+02 0.95293264279E+02 0.92648065321E+02
 0.85430433501E+02 0.75313339266E+02 0.63977425699E+02 0.52585040087E+02 0.41936213813E+02
 0.32774232776E+02 0.25698407622E+02 0.20776896742E+02 0.17414216003E+02 0.15173556582E+02
 0.13817920433E+02 0.13068745254E+02 0.12684847106E+02 0.12503405051E+02 0.16633317419E+02
 0.16534730675E+02 0.16288260005E+02 0.16039481859E+02 0.16011086206E+02 0.16461584817E+02
 0.17645772014E+02 0.19776377915E+02 0.22994542795E+02 0.27716870823E+02 0.34243820096E+02
 0.42452729381E+02 0.51882969929E+02 0.61715512070E+02 0.70659295826E+02 0.77049937886E+02
 0.79385162032E+02 0.77049937886E+02 0.70659295826E+02 0.61715512070E+02 0.51882969929E+02
 0.42452729381E+02 0.34243820096E+02 0.27716870823E+02 0.22994542795E+02 0.19776377915E+02
 0.17645772014E+02 0.16461584817E+02 0.16011086206E+02 0.16039481859E+02 0.16288260005E+02
 0.16534730675E+02 0.23519258909E+02 0.23166604179E+02 0.22230329187E+02 0.20983897100E+02
 0.19766734438E+02 0.18927996985E+02 0.18757076688E+02 0.19463047857E+02 0.21152262373E+02
 0.23872821896E+02 0.27908070265E+02 0.33396939835E+02 0.40147067328E+02 0.47536219867E+02
 0.54449315227E+02 0.59453409993E+02 0.61290124870E+02 0.59453409993E+02 0.54449315227E+02
 0.47536219867E+02 0.40147067328E+02 0.33396939835E+02 0.27908070265E+02 0.23872821896E+02
 0.21152262373E+02 0.19463047857E+02 0.18757076688E+02 0.18927996985E+02 0.19766734438E+02
 0.20983897100E+02 0.22230329187E+02 0.23166604179E+02 0.35964508141E+02 0.34926567534E+02
 0.32231680597E+02 0.28844306411E+02 0.25661521267E+02 0.23064693829E+02 0.21136484798E+02
 0.20123127604E+02 0.20159023775E+02 0.21223244265E+02 0.23219441218E+02 0.26224884821E+02
 0.30200550836E+02 0.34781553717E+02 0.39211234353E+02 0.42478077408E+02 0.43686982411E+02
 0.42478077408E+02 0.39211234353E+02 0.34781553717E+02 0.30200550836E+02 0.26224884821E+02
 0.23219441218E+02 0.21223244265E+02 0.20159023775E+02 0.20123127604E+02 0.21136484798E+02
 0.23064693829E+02 0.25661521267E+02 0.28844306411E+02 0.32231680597E+02 0.34926567534E+02
 0.59321600419E+02 0.56942563563E+02 0.50716872989E+02 0.42777258097E+02 0.35228882742E+02
 0.29264887602E+02 0.25019339437E+02 0.21982302201E+02 0.20157255481E+02 0.19566976577E+02
 0.20015505211E+02 0.21231258957E+02 0.23053120809E+02 0.25296039332E+02 0.27550959373E+02
 0.29249106130E+02 0.29883051610E+02 0.29249106130E+02 0.27550959373E+02 0.25296039332E+02
 0.23053120809E+02 0.21231258957E+02 0.20015505211E+02 0.19566976577E+02 0.20157255481E+02
 0.21982302201E+02 0.25019339437E+02 0.29264887602E+02 0.35228882742E+02 0.42777258097E+02
 0.50716872989E+02 0.56942563563E+02 0.94791843967E+02 0.90557625239E+02 0.79406459867E+02
 0.64959567037E+02 0.50808371575E+02 0.39143935209E+02 0.30690921501E+02 0.25068843579E+02
 0.21212035037E+02 0.18899085605E+02 0.17914310550E+02 0.17864842124E+02 0.18407597941E+02
 0.19257397438E+02 0.20149216031E+02 0.20822402175E+02 0.21071877415E+02 0.20822402175E+02
 0.20149216031E+02 0.19257397438E+02 0.18407597941E+02 0.17864842124E+02 0.17914310550E+02
 0.18899085605E+02 0.21212035037E+02 0.25068843579E+02 0.30690921501E+02 0.39143935209E+02
 0.50808371575E+02 0.64959567037E+02 0.79406459867E+02 0.90557625239E+02 0.13949009632E+03
 0.13316519784E+03 0.11648428036E+03 0.94705909028E+02 0.72868123834E+02 0.53990231085E+02
 0.39405665626E+02 0.29462015289E+02 0.23231607586E+02 0.19140116685E+02 0.16788794590E+02
 0.15662295114E+02 0.15304140588E+02 0.15383925672E+02 0.15614436435E+02 0.15792151627E+02
 0.15851249447E+02 0.15792151627E+02 0.15614436435E+02 0.15383925672E+02 0.15304140588E+02
 0.15662295114E+02 0.16788794590E+02 0.19140116685E+02 0.23231607586E+02 0.29462015289E+02
 0.39405665626E+02 0.53990231085E+02 0.72868123834E+02 0.94705909028E+02 0.11648428036E+03
 0.13316519784E+03 0.19042013807E+03 0.18187969304E+03 0.15944530765E+03 0.13021654597E+03
 0.10054434995E+03 0.73848541962E+02 0.51825908318E+02 0.35825093835E+02 0.26003240790E+02
 0.20094018043E+02 0.16426110786E+02 0.14375229269E+02 0.13350193268E+02 0.12931960577E+02
 0.12767373107E+02 0.12650941473E+02 0.12594606889E+02 0.12650941473E+02 0.12767373107E+02
 0.12931960577E+02 0.13350193268E+02 0.14375229269E+02 0.16426110786E+02 0.20094018043E+02
 0.26003240790E+02 0.35825093835E+02 0.51825908318E+02 0.73848541962E+02 0.10054434995E+03
 0.13021654597E+03 0.15944530765E+03 0.18187969304E+03 0.24571944044E+03 0.23474688480E+03
 0.20614919106E+03 0.16928035900E+03 0.13185961584E+03 0.97307754033E+02 0.67270747760E+02
 0.44110215204E+02 0.29482228284E+02 0.21466163464E+02 0.16560876678E+02 0.13707238167E+02
 0.12185849108E+02 0.11465906241E+02 0.11085837593E+02 0.10796145383E+02 0.10665911370E+02
 0.10796145383E+02 0.11085837593E+02 0.11465906241E+02 0.12185849108E+02 0.13707238167E+02
 0.16560876678E+02 0.21466163464E+02 0.29482228284E+02 0.44110215204E+02 0.67270747760E+02
 0.97307754033E+02 0.13185961584E+03 0.16928035900E+03 0.20614919106E+03 0.23474688480E+03
 0.30047885174E+03 0.28693951030E+03 0.25193970091E+03 0.20741583948E+03 0.16261708830E+03
 0.12079993759E+03 0.83211777450E+02 0.52978064960E+02 0.33261512041E+02 0.22878327597E+02
 0.16914583629E+02 0.13398424075E+02 0.11508894464E+02 0.10606884411E+02 0.10114829631E+02
 0.97246039260E+01 0.95469601210E+01 0.97246039260E+01 0.10114829631E+02 0.10606884411E+02
 0.11508894464E+02 0.13398424075E+02 0.16914583629E+02 0.22878327597E+02 0.33261512041E+02
 0.52978064960E+02 0.83211777450E+02 0.12079993759E+03 0.16261708830E+03 0.20741583948E+03
 0.25193970091E+03 0.28693951030E+03 0.34308384054E+03 0.32742544181E+03 0.28717259492E+03
 0.23647934286E+03 0.18594747685E+03 0.13870438337E+03 0.95536604923E+02 0.59985901911E+02
 0.36306130668E+02 0.23945860340E+02 0.17238882249E+02 0.13269394882E+02 0.11139990915E+02
 0.10133262449E+02 0.95841381421E+01 0.91376018287E+01 0.89314540914E+01 0.91376018287E+01
 0.95841381421E+01 0.10133262449E+02 0.11139990915E+02 0.13269394882E+02 0.17238882249E+02
 0.23945860340E+02 0.36306130668E+02 0.59985901911E+02 0.95536604923E+02 0.13870438337E+03
 0.18594747685E+03 0.23647934286E+03 0.28717259492E+03 0.32742544181E+03 0.34335022953E+03
 0.32775305550E+03 0.28763241816E+03 0.23703160683E+03 0.18647269403E+03 0.13909071985E+03
 0.95747429393E+02 0.60061270080E+02 0.36314758683E+02 0.23937756253E+02 0.17232913632E+02
 0.13271675121E+02 0.11152576564E+02 0.10155902263E+02 0.96153006915E+01 0.91746707216E+01
 0.89706732196E+01 0.91746707216E+01 0.96153006915E+01 0.10155902263E+02 0.11152576564E+02
 0.13271675121E+02 0.17232913632E+02 0.23937756253E+02 0.36314758683E+02 0.60061270080E+02
 0.95747429393E+02 0.13909071985E+03 0.18647269403E+03 0.23703160683E+03 0.28763241816E+03
 0.32775305550E+03 0.32826623742E+03 0.31342328652E+03 0.27516960005E+03 0.22675352877E+03
 0.17821294294E+03 0.13273316758E+03 0.91350209392E+02 0.57544136543E+02 0.35211899414E+02
 0.23552685367E+02 0.17109982778E+02 0.13306214850E+02 0.11269288622E+02 0.10307069694E+02
 0.97842805632E+01 0.93617570240E+01 0.91671424379E+01 0.93617570240E+01 0.97842805632E+01
 0.10307069694E+02 0.11269288622E+02 0.13306214850E+02 0.17109982778E+02 0.23552685367E+02
 0.35211899414E+02 0.57544136543E+02 0.91350209392E+02 0.13273316758E+03 0.17821294294E+03
 0.22675352877E+03 0.27516960005E+03 0.31342328652E+03 0.28877996736E+03 0.27585006121E+03
 0.24234272900E+03 0.19952407315E+03 0.15624875721E+03 0.11584559924E+03 0.79742579761E+02
 0.50968567446E+02 0.32360658488E+02 0.22527870434E+02 0.16797046146E+02 0.13430527764E+02
 0.11625033329E+02 0.10764135432E+02 0.10296407548E+02 0.99276986481E+01 0.97602355137E+01
 0.99276986481E+01 0.10296407548E+02 0.10764135433E+02 0.11625033329E+02 0.13430527764E+02
 0.16797046146E+02 0.22527870434E+02 0.32360658488E+02 0.50968567446E+02 0.79742579761E+02
 0.11584559924E+03 0.15624875721E+03 0.19952407315E+03 0.24234272900E+03 0.27585006121E+03
 0.23743041425E+03 0.22684945034E+03 0.19921475708E+03 0.16346618498E+03 0.12709782995E+03
 0.93594016450E+02 0.64693633016E+02 0.42635424095E+02 0.28809441910E+02 0.21162720264E+02
 0.16455449309E+02 0.13727789160E+02 0.12277606012E+02 0.11593179023E+02 0.11234028216E+02
 0.10962012446E+02 0.10839953881E+02 0.10962012446E+02 0.11234028216E+02 0.11593179023E+02
 0.12277606012E+02 0.13727789160E+02 0.16455449309E+02 0.21162720264E+02 0.28809441910E+02
 0.42635424095E+02 0.64693633016E+02 0.93594016450E+02 0.12709782995E+03 0.16346618498E+03
 0.19921475708E+03 0.22684945034E+03 0.18469654927E+03 0.17639866246E+03 0.15457282193E+03
 0.12608731562E+03 0.97167768626E+02 0.71257798849E+02 0.50069407026E+02 0.34830098349E+02
 0.25512640945E+02 0.19835518841E+02 0.16324034417E+02 0.14370416522E+02 0.13399603652E+02
 0.13007897827E+02 0.12858143565E+02 0.12753686350E+02 0.12702828168E+02 0.12753686350E+02
 0.12858143565E+02 0.13007897827E+02 0.13399603652E+02 0.14370416522E+02 0.16324034417E+02
 0.19835518841E+02 0.25512640945E+02 0.34830098349E+02 0.50069407026E+02 0.71257798849E+02
 0.97167768626E+02 0.12608731562E+03 0.15457282193E+03 0.17639866246E+03 0.13537867260E+03
 0.12922313364E+03 0.11298130183E+03 0.91771676651E+02 0.70537117578E+02 0.52271547409E+02
 0.38276290716E+02 0.28805917232E+02 0.22838128916E+02 0.18911020447E+02 0.16670824229E+02
 0.15608875146E+02 0.15282661706E+02 0.15374088517E+02 0.15608175977E+02 0.15788849479E+02
 0.15849629984E+02 0.15788849479E+02 0.15608175977E+02 0.15374088517E+02 0.15282661706E+02
 0.15608875146E+02 0.16670824229E+02 0.18911020447E+02 0.22838128916E+02 0.28805917232E+02
 0.38276290716E+02 0.52271547409E+02 0.70537117578E+02 0.91771676651E+02 0.11298130183E+03
 0.12922313364E+03 0.91843946494E+02 0.87740710135E+02 0.76936077293E+02 0.62948841708E+02
 0.49279177716E+02 0.38062960330E+02 0.29979328625E+02 0.24592957954E+02 0.20878611484E+02
 0.18673841827E+02 0.17752703383E+02 0.17730939154E+02 0.18276804929E+02 0.19114726731E+02
 0.19984596350E+02 0.20638243690E+02 0.20880189073E+02 0.20638243690E+02 0.19984596350E+02
 0.19114726731E+02 0.18276804929E+02 0.17730939154E+02 0.17752703383E+02 0.18673841827E+02
 0.20878611484E+02 0.24592957954E+02 0.29979328625E+02 0.38062960330E+02 0.49279177716E+02
 0.62948841708E+02 0.76936077293E+02 0.87740710135E+02 0.57446442266E+02 0.55159460480E+02
 0.49177179521E+02 0.41555734213E+02 0.34322389258E+02 0.28615077235E+02 0.24531807573E+02
 0.21596880597E+02 0.19855931275E+02 0.19315700675E+02 0.19779712469E+02 0.20980540244E+02
 0.22747340993E+02 0.24904623314E+02 0.27065612251E+02 0.28690515885E+02 0.29296786864E+02
 0.28690515885E+02 0.27065612251E+02 0.24904623314E+02 0.22747340993E+02 0.20980540244E+02
 0.19779712469E+02 0.19315700675E+02 0.19855931275E+02 0.21596880597E+02 0.24531807573E+02
 0.28615077235E+02 0.34322389258E+02 0.41555734213E+02 0.49177179521E+02 0.55159460480E+02
 0.35001707284E+02 0.34011856725E+02 0.31441267984E+02 0.28206554362E+02 0.25153935593E+02
 0.22633748652E+02 0.20766817824E+02 0.19800948912E+02 0.19859973351E+02 0.20919852158E+02
 0.22873614916E+02 0.25779635372E+02 0.29601992943E+02 0.33991316172E+02 0.38226026973E+02
 0.41344653529E+02 0.42497923901E+02 0.41344653529E+02 0.38226026973E+02 0.33991316172E+02
 0.29601992943E+02 0.25779635372E+02 0.22873614916E+02 0.20919852158E+02 0.19859973351E+02
 0.19800948912E+02 0.20766817824E+02 0.22633748652E+02 0.25153935593E+02 0.28206554362E+02
 0.31441267984E+02 0.34011856725E+02 0.23091457445E+02 0.22750891958E+02 0.21841860881E+02
 0.20625791225E+02 0.19441961513E+02 0.18631015635E+02 0.18473656396E+02 0.19172483874E+02
 0.20832211279E+02 0.23486889315E+02 0.27396011961E+02 0.32696447567E+02 0.39195450224E+02
 0.46285861900E+02 0.52898351898E+02 0.57673342868E+02 0.59423739812E+02 0.57673342868E+02
 0.52898351898E+02 0.46285861900E+02 0.39195450224E+02 0.32696447567E+02 0.27396011961E+02
 0.23486889315E+02 0.20832211279E+02 0.19172483874E+02 0.18473656396E+02 0.18631015635E+02
 0.19441961513E+02 0.20625791225E+02 0.21841860881E+02 0.22750891958E+02 0.16422568003E+02
 0.16326427845E+02 0.16086409509E+02 0.15844872703E+02 0.15818572607E+02 0.16258643772E+02
 0.17413417638E+02 0.19493076223E+02 0.22631043193E+02 0.27214420106E+02 0.33549299470E+02
 0.41512410928E+02 0.50632354171E+02 0.60092296142E+02 0.68648832204E+02 0.74735475888E+02
 0.76954281542E+02 0.74735475888E+02 0.68648832204E+02 0.60092296142E+02 0.50632354171E+02
 0.41512410928E+02 0.33549299470E+02 0.27214420106E+02 0.22631043193E+02 0.19493076223E+02
 0.17413417638E+02 0.16258643772E+02 0.15818572607E+02 0.15844872703E+02 0.16086409509E+02
 0.16326427845E+02 0.12398544300E+02 0.12450232218E+02 0.12623195714E+02 0.12992036826E+02
 0.13715841177E+02 0.15029941528E+02 0.17208044478E+02 0.20485966799E+02 0.25266396664E+02
 0.32150402473E+02 0.41094112284E+02 0.51496260572E+02 0.62577021177E+02 0.73505782910E+02
 0.83160693381E+02 0.89993153432E+02 0.92486564641E+02 0.89993153432E+02 0.83160693381E+02
 0.73505782910E+02 0.62577021177E+02 0.51496260572E+02 0.41094112284E+02 0.32150402473E+02
 0.25266396664E+02 0.20485966799E+02 0.17208044478E+02 0.15029941528E+02 0.13715841177E+02
 0.12992036826E+02 0.12623195714E+02 0.12450232218E+02 0.10181437339E+02 0.10309712677E+02
 0.10699499865E+02 0.11404496729E+02 0.12586736059E+02 0.14520866979E+02 0.17536626832E+02
 0.21973372591E+02 0.28668662554E+02 0.38075737542E+02 0.49578479671E+02 0.61978253524E+02
 0.74288240174E+02 0.85941050127E+02 0.96184057690E+02 0.10353555469E+03 0.10625206725E+03
 0.10353555469E+03 0.96184057690E+02 0.85941050127E+02 0.74288240174E+02 0.61978253524E+02
 0.49578479671E+02 0.38075737542E+02 0.28668662554E+02 0.21973372591E+02 0.17536626832E+02
 0.14520866979E+02 0.12586736059E+02 0.11404496729E+02 0.10699499865E+02 0.10309712677E+02
 0.90806429287E+01 0.92398564094E+01 0.97211892075E+01 0.10587787651E+02 0.12041984419E+02
 0.14428231264E+02 0.18142269132E+02 0.23790043821E+02 0.32525099694E+02 0.44476131855E+02
 0.58362892910E+02 0.72424577482E+02 0.85662564788E+02 0.98003066124E+02 0.10911851719E+03
 0.11738403253E+03 0.12050672352E+03 0.11738403253E+03 0.10911851719E+03 0.98003066124E+02
 0.85662564788E+02 0.72424577482E+02 0.58362892910E+02 0.44476131855E+02 0.32525099694E+02
 0.23790043821E+02 0.18142269132E+02 0.14428231264E+02 0.12041984419E+02 0.10587787651E+02
 0.97211892075E+01 0.92398564094E+01 0.84557951439E+01 0.86299532864E+01 0.91581249671E+01
 0.10119887210E+02 0.11762925928E+02 0.14500256187E+02 0.18796538986E+02 0.25605723172E+02
 0.36226577110E+02 0.50450025557E+02 0.66403246504E+02 0.81922661656E+02 0.96175346725E+02
 0.10965194905E+03 0.12232211137E+03 0.13212122093E+03 0.13589995030E+03 0.13212122093E+03
 0.12232211137E+03 0.10965194905E+03 0.96175346725E+02 0.81922661656E+02 0.66403246504E+02
 0.50450025557E+02 0.36226577110E+02 0.25605723172E+02 0.18796538986E+02 0.14500256187E+02
 0.11762925928E+02 0.10119887210E+02 0.91581249671E+01 0.86299532864E+01 0.79691326498E+01
 0.81588354971E+01 0.87335460769E+01 0.97803769833E+01 0.11573685913E+02 0.14569478204E+02
 0.19293633368E+02 0.26969361294E+02 0.38952025843E+02 0.54788280122E+02 0.72211498588E+02
 0.88845552058E+02 0.10406798887E+03 0.11880882658E+03 0.13316286594E+03 0.14454868906E+03
 0.14899049295E+03 0.14454868906E+03 0.13316286594E+03 0.11880882658E+03 0.10406798887E+03
 0.88845552058E+02 0.72211498588E+02 0.54788280122E+02 0.38952025843E+02 0.26969361294E+02
 0.19293633368E+02 0.14569478204E+02 0.11573685913E+02 0.97803769833E+01 0.87335460769E+01
 0.81588354971E+01 0.77525144224E+01 0.79504671882E+01 0.85491443365E+01 0.96364157849E+01
 0.11493814660E+02 0.14590685087E+02 0.19477986944E+02 0.27478018023E+02 0.39960941957E+02
 0.56385682924E+02 0.74349932397E+02 0.91416019839E+02 0.10705560061E+03 0.12236332288E+03
 0.13745898640E+03 0.14952997154E+03 0.15425528048E+03 0.14952997154E+03 0.13745898640E+03
 0.12236332288E+03 0.10705560061E+03 0.91416019839E+02 0.74349932397E+02 0.56385682924E+02
 0.39960941957E+02 0.27478018023E+02 0.19477986944E+02 0.14590685087E+02 0.11493814660E+02
 0.96364157849E+01 0.85491443365E+01 0.79504671882E+01 0.79691326498E+01 0.81588354971E+01
 0.87335460769E+01 0.97803769833E+01 0.11573685913E+02 0.14569478204E+02 0.19293633368E+02
 0.26969361294E+02 0.38952025843E+02 0.54788280122E+02 0.72211498588E+02 0.88845552058E+02
 0.10406798887E+03 0.11880882658E+03 0.13316286594E+03 0.14454868906E+03 0.14899049295E+03
 0.14454868906E+03 0.13316286594E+03 0.11880882658E+03 0.10406798887E+03 0.88845552058E+02
 0.72211498588E+02 0.54788280122E+02 0.38952025843E+02 0.26969361294E+02 0.19293633368E+02
 0.14569478204E+02 0.11573685913E+02 0.97803769833E+01 0.87335460769E+01 0.81588354971E+01
 0.84557951439E+01 0.86299532864E+01 0.91581249671E+01 0.10119887210E+02 0.11762925928E+02
 0.14500256187E+02 0.18796538986E+02 0.25605723172E+02 0.36226577110E+02 0.50450025557E+02
 0.66403246504E+02 0.81922661656E+02 0.96175346725E+02 0.10965194905E+03 0.12232211137E+03
 0.13212122093E+03 0.13589995030E+03 0.13212122093E+03 0.12232211137E+03 0.10965194905E+03
 0.96175346725E+02 0.81922661656E+02 0.66403246504E+02 0.50450025557E+02 0.36226577110E+02