   4   4   0   0
  0.1444527E+02  0.3866000E-09  0.3866000E-09  0.3866000E-09  0.5000000E-15
  1.000000000000000E-004
  CAR 
 unknown system                          
     27.36986266     -1.90242385  301      9.21564317      1.00000000
     -1.902  0.0000E+00  0.0000E+00
     -1.805  0.0000E+00  0.0000E+00
     -1.707  0.0000E+00  0.0000E+00
     -1.610  0.0000E+00  0.0000E+00
     -1.512 -0.2741E-28 -0.2675E-29
     -1.415 -0.5222E-25 -0.5098E-26
     -1.317 -0.6155E-22 -0.6011E-23
     -1.219 -0.4485E-19 -0.4382E-20
     -1.122 -0.2018E-16 -0.1974E-17
     -1.024 -0.5431E-14 -0.5319E-15
     -0.927 -0.9224E-12 -0.9054E-13
     -0.829 -0.9616E-10 -0.9473E-11
     -0.732 -0.6124E-08 -0.6070E-09
     -0.634 -0.2368E-06 -0.2371E-07
     -0.536 -0.5500E-05 -0.5604E-06
     -0.439 -0.7534E-04 -0.7912E-05
     -0.341 -0.5855E-03 -0.6504E-04
     -0.244 -0.2331E-02 -0.2925E-03
     -0.146 -0.2817E-02 -0.5674E-03
     -0.049  0.1070E-01  0.4762E-03
      0.049  0.4411E-01  0.4780E-02
      0.147  0.6256E-01  0.1088E-01
      0.244  0.3219E-01  0.1402E-01
      0.342 -0.6277E-02  0.1341E-01
      0.439  0.4582E-01  0.1788E-01
      0.537  0.2307E+00  0.4039E-01
      0.635  0.3728E+00  0.7677E-01
      0.732  0.2634E+00  0.1025E+00
      0.830  0.6052E-01  0.1084E+00
      0.927  0.1322E+00  0.1213E+00
      1.025  0.5293E+00  0.1729E+00
      1.122  0.7597E+00  0.2471E+00
      1.220  0.4872E+00  0.2946E+00
      1.318  0.1774E+00  0.3119E+00
      1.415  0.2809E+00  0.3393E+00
      1.513  0.5069E+00  0.3888E+00
      1.610  0.4502E+00  0.4327E+00
      1.708  0.2198E+00  0.4542E+00
      1.805  0.6793E-01  0.4608E+00
      1.903  0.9174E-01  0.4697E+00
      2.001  0.2940E+00  0.4984E+00
      2.098  0.5246E+00  0.5496E+00
      2.196  0.6969E+00  0.6176E+00
      2.293  0.1064E+01  0.7214E+00
      2.391  0.1625E+01  0.8800E+00
      2.488  0.1840E+01  0.1060E+01
      2.586  0.1496E+01  0.1206E+01
      2.684  0.8026E+00  0.1284E+01
      2.781  0.3388E+00  0.1317E+01
      2.879  0.8128E+00  0.1396E+01
      2.976  0.1995E+01  0.1591E+01
      3.074  0.2817E+01  0.1866E+01
      3.171  0.2837E+01  0.2143E+01
      3.269  0.2456E+01  0.2382E+01
      3.367  0.1880E+01  0.2566E+01
      3.464  0.1911E+01  0.2752E+01
      3.562  0.3570E+01  0.3100E+01
      3.659  0.5433E+01  0.3631E+01
      3.757  0.5452E+01  0.4163E+01
      3.854  0.4885E+01  0.4639E+01
      3.952  0.5611E+01  0.5187E+01
      4.050  0.6831E+01  0.5853E+01
      4.147  0.7377E+01  0.6573E+01
      4.245  0.7110E+01  0.7267E+01
      4.342  0.6005E+01  0.7853E+01
      4.440  0.4819E+01  0.8323E+01
      4.537  0.4904E+01  0.8801E+01
      4.635  0.5929E+01  0.9380E+01
      4.733  0.6294E+01  0.9994E+01
      4.830  0.5615E+01  0.1054E+02
      4.928  0.4754E+01  0.1101E+02
      5.025  0.4416E+01  0.1144E+02
      5.123  0.4650E+01  0.1189E+02
      5.220  0.4740E+01  0.1235E+02
      5.318  0.4408E+01  0.1278E+02
      5.416  0.4590E+01  0.1323E+02
      5.513  0.5576E+01  0.1377E+02
      5.611  0.6533E+01  0.1441E+02
      5.708  0.6965E+01  0.1509E+02
      5.806  0.6735E+01  0.1575E+02
      5.904  0.6185E+01  0.1635E+02
      6.001  0.6641E+01  0.1700E+02
      6.099  0.7992E+01  0.1778E+02
      6.196  0.8362E+01  0.1860E+02
      6.294  0.8384E+01  0.1941E+02
      6.391  0.1034E+02  0.2042E+02
      6.489  0.1262E+02  0.2166E+02
      6.587  0.1175E+02  0.2280E+02
      6.684  0.8414E+01  0.2362E+02
      6.782  0.6308E+01  0.2424E+02
      6.879  0.7032E+01  0.2492E+02
      6.977  0.8714E+01  0.2577E+02
      7.074  0.9350E+01  0.2669E+02
      7.172  0.9278E+01  0.2759E+02
      7.270  0.9163E+01  0.2849E+02
      7.367  0.8262E+01  0.2929E+02
      7.465  0.6329E+01  0.2991E+02
      7.562  0.4880E+01  0.3039E+02
      7.660  0.4706E+01  0.3085E+02
      7.757  0.4962E+01  0.3133E+02
      7.855  0.4846E+01  0.3180E+02
      7.953  0.4533E+01  0.3225E+02
      8.050  0.4997E+01  0.3273E+02
      8.148  0.6588E+01  0.3338E+02
      8.245  0.8069E+01  0.3416E+02
      8.343  0.8243E+01  0.3497E+02
      8.440  0.7431E+01  0.3569E+02
      8.538  0.6331E+01  0.3631E+02
      8.636  0.5300E+01  0.3683E+02
      8.733  0.4480E+01  0.3726E+02
      8.831  0.4222E+01  0.3768E+02
      8.928  0.5012E+01  0.3817E+02
      9.026  0.6150E+01  0.3877E+02
      9.123  0.6620E+01  0.3941E+02
      9.221  0.6372E+01  0.4003E+02
      9.319  0.5605E+01  0.4058E+02
      9.416  0.4689E+01  0.4104E+02
      9.514  0.3973E+01  0.4142E+02
      9.611  0.3506E+01  0.4177E+02
      9.709  0.3562E+01  0.4211E+02
      9.806  0.3643E+01  0.4247E+02
      9.904  0.2672E+01  0.4273E+02
     10.002  0.1255E+01  0.4285E+02
     10.099  0.8088E+00  0.4293E+02
     10.197  0.1204E+01  0.4305E+02
     10.294  0.1314E+01  0.4318E+02
     10.392  0.9591E+00  0.4327E+02
     10.490  0.8321E+00  0.4335E+02
     10.587  0.9664E+00  0.4345E+02
     10.685  0.9278E+00  0.4354E+02
     10.782  0.9175E+00  0.4363E+02
     10.880  0.1220E+01  0.4375E+02
     10.977  0.1532E+01  0.4390E+02
     11.075  0.1660E+01  0.4406E+02
     11.173  0.1491E+01  0.4420E+02
     11.270  0.8996E+00  0.4429E+02
     11.368  0.4531E+00  0.4433E+02
     11.465  0.6276E+00  0.4440E+02
     11.563  0.9381E+00  0.4449E+02
     11.660  0.8410E+00  0.4457E+02
     11.758  0.6610E+00  0.4463E+02
     11.856  0.8257E+00  0.4471E+02
     11.953  0.1008E+01  0.4481E+02
     12.051  0.8573E+00  0.4490E+02
     12.148  0.6125E+00  0.4496E+02
     12.246  0.4940E+00  0.4500E+02
     12.343  0.3844E+00  0.4504E+02
     12.441  0.3690E+00  0.4508E+02
     12.539  0.6751E+00  0.4514E+02
     12.636  0.1241E+01  0.4527E+02
     12.734  0.1686E+01  0.4543E+02
     12.831  0.1670E+01  0.4559E+02
     12.929  0.1416E+01  0.4573E+02
     13.026  0.1254E+01  0.4585E+02
     13.124  0.1160E+01  0.4597E+02
     13.222  0.9899E+00  0.4606E+02
     13.319  0.7776E+00  0.4614E+02
     13.417  0.7646E+00  0.4621E+02
     13.514  0.9034E+00  0.4630E+02
     13.612  0.9231E+00  0.4639E+02
     13.709  0.1142E+01  0.4650E+02
     13.807  0.1876E+01  0.4669E+02
     13.905  0.2290E+01  0.4691E+02
     14.002  0.1842E+01  0.4709E+02
     14.100  0.1078E+01  0.4719E+02
     14.197  0.3998E+00  0.4723E+02
     14.295  0.3904E-01  0.4724E+02
     14.392  0.1660E+00  0.4725E+02
     14.490  0.5573E+00  0.4731E+02
     14.588  0.7037E+00  0.4738E+02
     14.685  0.4070E+00  0.4742E+02
     14.783  0.6131E-01  0.4742E+02
     14.880  0.8198E-01  0.4743E+02
     14.978  0.4962E+00  0.4748E+02
     15.076  0.1079E+01  0.4758E+02
     15.173  0.1492E+01  0.4773E+02
     15.271  0.1418E+01  0.4787E+02
     15.368  0.1139E+01  0.4798E+02
     15.466  0.1405E+01  0.4812E+02
     15.563  0.2056E+01  0.4832E+02
     15.661  0.2169E+01  0.4853E+02
     15.759  0.1810E+01  0.4870E+02
     15.856  0.1477E+01  0.4885E+02
     15.954  0.1041E+01  0.4895E+02
     16.051  0.8311E+00  0.4903E+02
     16.149  0.1369E+01  0.4917E+02
     16.246  0.1983E+01  0.4936E+02
     16.344  0.1615E+01  0.4952E+02
     16.442  0.5917E+00  0.4957E+02
     16.539 -0.5575E-01  0.4957E+02
     16.637 -0.4402E-02  0.4957E+02
     16.734  0.6925E+00  0.4964E+02
     16.832  0.1735E+01  0.4981E+02
     16.929  0.2282E+01  0.5003E+02
     17.027  0.1925E+01  0.5022E+02
     17.125  0.1126E+01  0.5033E+02
     17.222  0.3909E+00  0.5036E+02
     17.320  0.1137E+00  0.5037E+02
     17.417  0.4970E+00  0.5042E+02
     17.515  0.1123E+01  0.5053E+02
     17.612  0.1377E+01  0.5067E+02
     17.710  0.1333E+01  0.5080E+02
     17.808  0.1691E+01  0.5096E+02
     17.905  0.2657E+01  0.5122E+02
     18.003  0.3075E+01  0.5152E+02
     18.100  0.2137E+01  0.5173E+02
     18.198  0.8631E+00  0.5181E+02
     18.295  0.3824E+00  0.5185E+02
     18.393  0.5965E+00  0.5191E+02
     18.491  0.1018E+01  0.5201E+02
     18.588  0.1510E+01  0.5216E+02
     18.686  0.1809E+01  0.5233E+02
     18.783  0.1679E+01  0.5250E+02
     18.881  0.1505E+01  0.5264E+02
     18.978  0.1492E+01  0.5279E+02
     19.076  0.1211E+01  0.5291E+02
     19.174  0.6518E+00  0.5297E+02
     19.271  0.4600E+00  0.5302E+02
     19.369  0.9120E+00  0.5310E+02
     19.466  0.1456E+01  0.5325E+02
     19.564  0.1462E+01  0.5339E+02
     19.661  0.1110E+01  0.5350E+02
     19.759  0.1183E+01  0.5361E+02
     19.857  0.1855E+01  0.5379E+02
     19.954  0.2506E+01  0.5404E+02
     20.052  0.2756E+01  0.5431E+02
     20.149  0.2513E+01  0.5455E+02
     20.247  0.1881E+01  0.5474E+02
     20.345  0.1585E+01  0.5489E+02
     20.442  0.1891E+01  0.5508E+02
     20.540  0.1986E+01  0.5527E+02
     20.637  0.1494E+01  0.5542E+02
     20.735  0.8525E+00  0.5550E+02
     20.832  0.4580E+00  0.5554E+02
     20.930  0.6545E+00  0.5561E+02
     21.028  0.1483E+01  0.5575E+02
     21.125  0.2208E+01  0.5597E+02
     21.223  0.2137E+01  0.5618E+02
     21.320  0.1653E+01  0.5634E+02
     21.418  0.1674E+01  0.5650E+02
     21.515  0.2320E+01  0.5673E+02
     21.613  0.2761E+01  0.5700E+02
     21.711  0.2463E+01  0.5724E+02
     21.808  0.1856E+01  0.5742E+02
     21.906  0.1531E+01  0.5757E+02
     22.003  0.1513E+01  0.5771E+02
     22.101  0.1620E+01  0.5787E+02
     22.198  0.1751E+01  0.5804E+02
     22.296  0.1793E+01  0.5822E+02
     22.394  0.1725E+01  0.5839E+02
     22.491  0.1436E+01  0.5853E+02
     22.589  0.1004E+01  0.5863E+02
     22.686  0.8515E+00  0.5871E+02
     22.784  0.1066E+01  0.5881E+02
     22.881  0.1358E+01  0.5894E+02
     22.979  0.1402E+01  0.5908E+02
     23.077  0.1034E+01  0.5918E+02
     23.174  0.5228E+00  0.5923E+02
     23.272  0.3170E+00  0.5926E+02
     23.369  0.3992E+00  0.5930E+02
     23.467  0.3907E+00  0.5934E+02
     23.564  0.1963E+00  0.5936E+02
     23.662  0.2670E-01  0.5936E+02
     23.760 -0.1971E-01  0.5936E+02
     23.857 -0.1139E-01  0.5936E+02
     23.955 -0.6341E-02  0.5936E+02
     24.052 -0.1811E-01  0.5936E+02
     24.150 -0.3491E-01  0.5935E+02
     24.247  0.2786E-01  0.5936E+02
     24.345  0.2857E+00  0.5939E+02
     24.443  0.6889E+00  0.5945E+02
     24.540  0.1042E+01  0.5955E+02
     24.638  0.1100E+01  0.5966E+02
     24.735  0.7178E+00  0.5973E+02
     24.833  0.2071E+00  0.5975E+02
     24.931 -0.4946E-01  0.5975E+02
     25.028 -0.8202E-01  0.5974E+02
     25.126  0.4286E-01  0.5974E+02
     25.223  0.4275E+00  0.5978E+02
     25.321  0.8780E+00  0.5987E+02
     25.418  0.8895E+00  0.5996E+02
     25.516  0.4485E+00  0.6000E+02
     25.614  0.6428E-01  0.6001E+02
     25.711 -0.4177E-01  0.6000E+02
     25.809 -0.2361E-01  0.6000E+02
     25.906 -0.5335E-02  0.6000E+02
     26.004 -0.6511E-03  0.6000E+02
     26.101 -0.4612E-04  0.6000E+02
     26.199 -0.1950E-05  0.6000E+02
     26.297 -0.4988E-07  0.6000E+02
     26.394 -0.7780E-09  0.6000E+02
     26.492 -0.7432E-11  0.6000E+02
     26.589 -0.4340E-13  0.6000E+02
     26.687 -0.2913E-15  0.6000E+02
     26.784  0.0000E+00  0.6000E+02
     26.882  0.0000E+00  0.6000E+02
     26.980  0.0000E+00  0.6000E+02
     27.077  0.0000E+00  0.6000E+02
     27.175  0.0000E+00  0.6000E+02
     27.272  0.0000E+00  0.6000E+02
     27.370  0.0000E+00  0.6000E+02
