    4    4    1    1
  0.1444527E+02  0.3866000E-09  0.3866000E-09  0.3866000E-09  0.5000000E-15
  1.000000000000000E-004
  CAR 
 unknown system                          
     40     27     30
 
  0.0000000E+00  0.0000000E+00  0.0000000E+00  0.8000000E-02
    1        0.097576   1.000000
    2        2.585020   1.000000
    3        3.540553   1.000000
    4        3.549715   1.000000
    5        3.630499   1.000000
    6        3.723453   1.000000
    7        3.730241   1.000000
    8        6.200166   1.000000
    9        6.202724   1.000000
   10        6.348497   1.000000
   11        7.458328   1.000000
   12        7.585175   1.000000
   13        8.240111   1.000000
   14        8.392861   1.000000
   15        8.550064   1.000013
   16        9.241368   0.392140
   17        9.405790  -0.019230
   18        9.500943  -0.030764
   19        9.779695  -0.000246
   20       10.248800  -0.000000
   21       10.824085  -0.000000
   22       11.386603  -0.000000
   23       11.394272  -0.000000
   24       11.407213  -0.000000
   25       17.896673   0.000000
   26       18.147800   0.000000
   27       19.756703   0.000000
   28       20.289004   0.000000
   29       20.433836   0.000000
   30       20.673002   0.000000
 
  0.2000000E+00  0.0000000E+00  0.0000000E+00  0.1600000E-01
    1        0.564775   1.000000
    2        2.887393   1.000000
    3        3.701491   1.000000
    4        3.708508   1.000000
    5        3.904742   1.000000
    6        3.987968   1.000000
    7        4.060805   1.000000
    8        5.975340   1.000000
    9        6.344398   1.000000
   10        6.497976   1.000000
   11        7.358780   1.000000
   12        7.497765   1.000000
   13        7.669842   1.000000
   14        7.856824   1.000000
   15        8.001847   1.000000
   16        8.229040   1.000000
   17        9.012785   1.026548
   18        9.108573   0.888891
   19        9.244853   0.377851
   20        9.471562  -0.035028
   21        9.721458  -0.001016
   22       10.822556  -0.000000
   23       13.176214  -0.000000
   24       13.181666  -0.000000
   25       17.899392   0.000000
   26       18.016259   0.000000
   27       20.382873   0.000000
   28       20.424858   0.000000
   29       20.586877   0.000000
   30       20.981611   0.000000
 
  0.0000000E+00  0.2000000E+00  0.0000000E+00  0.1600000E-01
    1        0.615943   1.000000
    2        2.905895   1.000000
    3        3.658631   1.000000
    4        3.784103   1.000000
    5        3.848344   1.000000
    6        3.985213   1.000000
    7        4.085223   1.000000
    8        6.149813   1.000000
    9        6.371369   1.000000
   10        6.376031   1.000000
   11        7.292126   1.000000
   12        7.602220   1.000000
   13        7.625697   1.000000
   14        7.761506   1.000000
   15        8.277065   1.000000
   16        8.752857   1.002553
   17        9.019296   1.023127
   18        9.202384   0.555969
   19        9.226968   0.452165
   20        9.299824   0.176380
   21        9.483057  -0.033797
   22        9.702750  -0.001537
   23       13.286866  -0.000000
   24       13.403995  -0.000000
   25       17.424974   0.000000
   26       18.671370   0.000000
   27       20.318424   0.000000
   28       20.380168   0.000000
   29       20.585130   0.000000
   30       21.282470   0.000000
 
  0.0000000E+00  0.0000000E+00  0.2000000E+00  0.1600000E-01
    1        0.617651   1.000000
    2        2.917907   1.000000
    3        3.812531   1.000000
    4        3.856869   1.000000
    5        3.899716   1.000000
    6        3.905087   1.000000
    7        3.911207   1.000000
    8        5.962109   1.000000
    9        6.343210   1.000000
   10        6.499280   1.000000
   11        7.298526   1.000000
   12        7.569683   1.000000
   13        7.591662   1.000000
   14        7.941734   1.000000
   15        8.085518   1.000000
   16        8.528623   1.000007
   17        8.842957   1.012115
   18        9.135655   0.810312
   19        9.170734   0.684817
   20        9.306224   0.156854
   21        9.734823  -0.000746
   22       10.234112  -0.000000
   23       13.258272  -0.000000
   24       13.369973  -0.000000
   25       17.111223   0.000000
   26       18.879448   0.000000
   27       20.409538   0.000000
   28       20.433025   0.000000
   29       20.702513   0.000000
   30       21.206147   0.000000
 
  0.4000000E+00  0.0000000E+00  0.0000000E+00  0.1600000E-01
    1        1.676304   1.000000
    2        3.500244   1.000000
    3        3.800640   1.000000
    4        4.059609   1.000000
    5        4.709134   1.000000
    6        4.748462   1.000000
    7        4.847232   1.000000
    8        5.516917   1.000000
    9        6.037749   1.000000
   10        6.137743   1.000000
   11        6.849139   1.000000
   12        6.919586   1.000000
   13        6.955601   1.000000
   14        7.158299   1.000000
   15        7.338792   1.000000
   16        7.585992   1.000000
   17        8.213453   1.000000
   18        8.218121   1.000000
   19        8.245456   1.000000
   20        8.555013   1.000016
   21        9.348001   0.054181
   22       10.820684  -0.000000
   23       15.725655   0.000000
   24       15.800704   0.000000
   25       17.057417   0.000000
   26       18.025923   0.000000
   27       18.604147   0.000000
   28       18.726181   0.000000
   29       19.151999   0.000000
   30       21.820973   0.000000
 
  0.0000000E+00  0.4000000E+00  0.0000000E+00  0.1600000E-01
    1        1.989449   1.000000
    2        3.297342   1.000000
    3        3.779487   1.000000
    4        4.111633   1.000000
    5        4.644875   1.000000
    6        4.694154   1.000000
    7        4.973352   1.000000
    8        5.744223   1.000000
    9        6.338088   1.000000
   10        6.362373   1.000000
   11        6.810849   1.000000
   12        6.892864   1.000000
   13        6.914752   1.000000
   14        7.090053   1.000000
   15        7.563048   1.000000
   16        7.873925   1.000000
   17        7.881968   1.000000
   18        8.088385   1.000000
   19        8.192696   1.000000
   20        8.452126   1.000000
   21        9.142120   0.789024
   22        9.466319  -0.035336
   23       15.913178   0.000000
   24       15.961840   0.000000
   25       16.685420   0.000000
   26       18.468443   0.000000
   27       18.494577   0.000000
   28       18.622198   0.000000
   29       20.473922   0.000000
   30       20.737793   0.000000
 
  0.0000000E+00  0.0000000E+00  0.4000000E+00  0.1600000E-01
    1        2.004812   1.000000
    2        3.294769   1.000000
    3        3.989309   1.000000
    4        4.351555   1.000000
    5        4.646306   1.000000
    6        4.732706   1.000000
    7        4.745077   1.000000
    8        5.416702   1.000000
    9        6.031268   1.000000
   10        6.147758   1.000000
   11        6.819242   1.000000
   12        6.969768   1.000000
   13        6.972480   1.000000
   14        7.116892   1.000000
   15        7.388124   1.000000
   16        7.717801   1.000000
   17        8.018435   1.000000
   18        8.048616   1.000000
   19        8.428884   1.000000
   20        8.502274   1.000003
   21        8.939332   1.032425
   22       10.214444  -0.000000
   23       15.888784   0.000000
   24       16.017650   0.000000
   25       16.243529   0.000000
   26       18.440828   0.000000
   27       18.715337   0.000000
   28       18.983802   0.000000
   29       20.068857   0.000000
   30       21.093618   0.000000
 
  0.2000000E+00  0.2000000E+00  0.0000000E+00  0.3200000E-01
    1        1.060983   1.000000
    2        3.195852   1.000000
    3        3.928753   1.000000
    4        3.935007   1.000000
    5        4.109730   1.000000
    6        4.111668   1.000000
    7        4.394397   1.000000
    8        5.918141   1.000000
    9        6.401959   1.000000
   10        6.533874   1.000000
   11        7.051917   1.000000
   12        7.247685   1.000000
   13        7.275529   1.000000
   14        7.345746   1.000000
   15        7.803369   1.000000
   16        7.987783   1.000000
   17        8.353837   1.000000
   18        8.919861   1.028581
   19        8.972646   1.035443
   20        9.063901   0.978718
   21        9.736161  -0.000723
   22       10.896260  -0.000000
   23       11.886111  -0.000000
   24       14.551454  -0.000000
   25       16.956253   0.000000
   26       19.015272   0.000000
   27       20.038163   0.000000
   28       20.412244   0.000000
   29       21.041651   0.000000
   30       21.676351   0.000000
 
  0.0000000E+00  0.2000000E+00  0.2000000E+00  0.3200000E-01
    1        1.086975   1.000000
    2        3.230691   1.000000
    3        3.914319   1.000000
    4        3.980213   1.000000
    5        4.044146   1.000000
    6        4.224353   1.000000
    7        4.339801   1.000000
    8        5.901772   1.000000
    9        6.400606   1.000000
   10        6.537318   1.000000
   11        7.073212   1.000000
   12        7.227221   1.000000
   13        7.293317   1.000000
   14        7.323849   1.000000
   15        7.767933   1.000000
   16        8.098164   1.000000
   17        8.448762   1.000000
   18        8.720575   1.001292
   19        8.929188   1.030535
   20        8.930248   1.030745
   21        9.564545  -0.016652
   22       10.930385  -0.000000
   23       12.249722  -0.000000
   24       14.455105  -0.000000
   25       16.816215   0.000000
   26       19.065510   0.000000
   27       19.521532   0.000000
   28       20.941420   0.000000
   29       21.199712   0.000000
   30       21.921752   0.000000
 
  0.2000000E+00  0.0000000E+00  0.2000000E+00  0.3200000E-01
    1        1.060914   1.000000
    2        3.211188   1.000000
    3        3.937340   1.000000
    4        3.957316   1.000000
    5        4.069823   1.000000
    6        4.227092   1.000000
    7        4.328009   1.000000
    8        5.780568   1.000000
    9        6.458944   1.000000
   10        6.567030   1.000000
   11        7.024707   1.000000
   12        7.232533   1.000000
   13        7.236872   1.000000
   14        7.299846   1.000000
   15        7.798050   1.000000
   16        7.845426   1.000000
   17        8.226526   1.000000
   18        9.008480   1.028456
   19        9.068866   0.971150
   20        9.268251   0.285707
   21        9.855263  -0.000030
   22       11.146269  -0.000000
   23       11.547494  -0.000000
   24       14.544891  -0.000000
   25       16.923908   0.000000
   26       18.944298   0.000000
   27       19.982392   0.000000
   28       20.534776   0.000000
   29       21.113773   0.000000
   30       21.812076   0.000000
 
  0.4000000E+00  0.2000000E+00  0.0000000E+00  0.3200000E-01
    1        2.140772   1.000000
    2        3.775601   1.000000
    3        4.125122   1.000000
    4        4.299389   1.000000
    5        4.677894   1.000000
    6        4.838381   1.000000
    7        5.030815   1.000000
    8        5.471836   1.000000
    9        5.680516   1.000000
   10        6.093324   1.000000
   11        6.362201   1.000000
   12        6.481041   1.000000
   13        6.933036   1.000000
   14        7.184081   1.000000
   15        7.332956   1.000000
   16        7.674417   1.000000
   17        7.849486   1.000000
   18        8.413229   1.000000
   19        8.455639   1.000001
   20        8.950449   1.034087
   21        9.562966  -0.016981
   22        9.823818  -0.000074
   23       13.133696  -0.000000
   24       15.191735   0.000000
   25       16.922009   0.000000
   26       18.085637   0.000000
   27       19.556668   0.000000
   28       19.819459   0.000000
   29       21.827316   0.000000
   30       23.077912   0.000000
 
  0.0000000E+00  0.4000000E+00  0.2000000E+00  0.3200000E-01
    1        2.342901   1.000000
    2        3.638192   1.000000
    3        4.029690   1.000000
    4        4.305862   1.000000
    5        4.599063   1.000000
    6        4.814933   1.000000
    7        5.161256   1.000000
    8        5.634229   1.000000
    9        5.791766   1.000000
   10        6.271655   1.000000
   11        6.346874   1.000000
   12        6.493765   1.000000
   13        6.925828   1.000000
   14        7.148297   1.000000
   15        7.622888   1.000000
   16        7.700013   1.000000
   17        7.773813   1.000000
   18        8.194951   1.000000
   19        8.392386   1.000000
   20        8.958885   1.034963
   21        9.077377   0.956811
   22        9.385757  -0.001878
   23       13.601203  -0.000000
   24       15.149851   0.000000
   25       16.790426   0.000000
   26       18.365181   0.000000
   27       19.382704   0.000000
   28       19.569920   0.000000
   29       21.675633   0.000000
   30       23.306495   0.000000
 
  0.2000000E+00  0.0000000E+00  0.4000000E+00  0.3200000E-01
    1        2.379578   1.000000
    2        3.646970   1.000000
    3        4.248074   1.000000
    4        4.444021   1.000000
    5        4.633899   1.000000
    6        4.958882   1.000000
    7        4.961888   1.000000
    8        5.289844   1.000000
    9        5.572050   1.000000
   10        6.154317   1.000000
   11        6.426655   1.000000
   12        6.512217   1.000000
   13        6.957991   1.000000
   14        7.196398   1.000000
   15        7.352592   1.000000
   16        7.690079   1.000000
   17        7.990347   1.000000
   18        8.290010   1.000000
   19        8.467873   1.000001
   20        8.700631   1.000823
   21        9.291813   0.202152
   22        9.459060  -0.035449
   23       13.466073  -0.000000
   24       15.191857   0.000000
   25       16.839448   0.000000
   26       17.955435   0.000000
   27       19.369281   0.000000
   28       20.131208   0.000000
   29       21.944164   0.000000
   30       22.959837   0.000000
 
 -0.2000000E+00  0.4000000E+00  0.0000000E+00  0.3200000E-01
    1        2.377297   1.000000
    2        3.626476   1.000000
    3        4.078128   1.000000
    4        4.320028   1.000000
    5        4.618280   1.000000
    6        4.777533   1.000000
    7        5.145376   1.000000
    8        5.637568   1.000000
    9        5.964209   1.000000
   10        6.256773   1.000000
   11        6.265915   1.000000
   12        6.477780   1.000000
   13        6.923605   1.000000
   14        7.181084   1.000000
   15        7.528401   1.000000
   16        7.726983   1.000000
   17        7.806851   1.000000
   18        8.212892   1.000000
   19        8.465492   1.000001
   20        8.867458   1.016801
   21        8.977090   1.035293
   22        9.245219   0.376358
   23       13.515704  -0.000000
   24       15.182885   0.000000
   25       16.837648   0.000000
   26       18.330468   0.000000
   27       19.353289   0.000000
   28       19.753539   0.000000
   29       21.986973   0.000000
   30       22.985717   0.000000
 
 -0.4000000E+00  0.0000000E+00  0.2000000E+00  0.3200000E-01
    1        2.136624   1.000000
    2        3.813456   1.000000
    3        4.084493   1.000000
    4        4.268588   1.000000
    5        4.626995   1.000000
    6        4.883521   1.000000
    7        5.079300   1.000000
    8        5.419621   1.000000
    9        5.592608   1.000000
   10        6.158374   1.000000
   11        6.431714   1.000000
   12        6.524417   1.000000
   13        6.943700   1.000000
   14        7.196483   1.000000
   15        7.290360   1.000000
   16        7.664882   1.000000
   17        8.066681   1.000000
   18        8.164842   1.000000
   19        8.549420   1.000013
   20        8.976719   1.035312
   21        9.529718  -0.024437
   22        9.777474  -0.000261
   23       13.112820  -0.000000
   24       15.256039   0.000000
   25       16.874083   0.000000
   26       18.050392   0.000000
   27       19.460602   0.000000
   28       19.754908   0.000000
   29       21.937199   0.000000
   30       22.963110   0.000000
 
  0.0000000E+00  0.2000000E+00  0.4000000E+00  0.3200000E-01
    1        2.351173   1.000000
    2        3.620538   1.000000
    3        4.250337   1.000000
    4        4.476452   1.000000
    5        4.649754   1.000000
    6        4.918481   1.000000
    7        4.933060   1.000000
    8        5.355153   1.000000
    9        5.562561   1.000000
   10        6.098756   1.000000
   11        6.337553   1.000000
   12        6.508618   1.000000
   13        6.960936   1.000000
   14        7.149812   1.000000
   15        7.452585   1.000000
   16        7.708774   1.000000
   17        7.772290   1.000000
   18        8.315997   1.000000
   19        8.618168   1.000100
   20        8.641892   1.000191
   21        9.478018  -0.034422
   22        9.577768  -0.014026
   23       13.561916  -0.000000
   24       15.093252   0.000000
   25       16.847453   0.000000
   26       18.009778   0.000000
   27       19.487974   0.000000
   28       20.011343   0.000000
   29       21.553245   0.000000
   30       23.416217   0.000000
 
  0.4000000E+00  0.4000000E+00  0.0000000E+00  0.3200000E-01
    1        3.286306   1.000000
    2        4.204316   1.000000
    3        4.473275   1.000000
    4        4.807782   1.000000
    5        4.874390   1.000000
    6        5.088723   1.000000
    7        5.205837   1.000000
    8        5.327871   1.000000
    9        5.384044   1.000000
   10        5.864621   1.000000
   11        6.002010   1.000000
   12        6.277872   1.000000
   13        6.911146   1.000000
   14        7.081073   1.000000
   15        7.093172   1.000000
   16        7.334581   1.000000
   17        7.521303   1.000000
   18        8.109187   1.000000
   19        8.415962   1.000000
   20        8.448026   1.000000
   21        9.166375   0.701624
   22       10.153516  -0.000000
   23       11.631982  -0.000000
   24       12.967918  -0.000000
   25       18.821023   0.000000
   26       18.951576   0.000000
   27       20.499688   0.000000
   28       21.184490   0.000000
   29       21.229475   0.000000
   30       21.658105   0.000000
 
  0.0000000E+00  0.4000000E+00  0.4000000E+00  0.3200000E-01
    1        3.181318   1.000000
    2        3.986443   1.000000
    3        4.374385   1.000000
    4        4.769485   1.000000
    5        4.987363   1.000000
    6        5.115264   1.000000
    7        5.136614   1.000000
    8        5.402825   1.000000
    9        5.424228   1.000000
   10        5.884809   1.000000
   11        6.091010   1.000000
   12        6.272674   1.000000
   13        6.906268   1.000000
   14        7.061430   1.000000
   15        7.156270   1.000000
   16        7.230215   1.000000
   17        7.420965   1.000000
   18        8.057801   1.000000
   19        8.640291   1.000183
   20        8.693095   1.000690
   21        9.233365   0.425338
   22        9.987705  -0.000000
   23       12.195705  -0.000000
   24       13.027546  -0.000000
   25       18.563901   0.000000
   26       18.690168   0.000000
   27       20.382301   0.000000
   28       20.511267   0.000000
   29       21.059009   0.000000
   30       22.116374   0.000000
 
  0.4000000E+00  0.0000000E+00  0.4000000E+00  0.3200000E-01
    1        3.254011   1.000000
    2        4.355683   1.000000
    3        4.429914   1.000000
    4        4.678829   1.000000
    5        4.760529   1.000000
    6        5.002812   1.000000
    7        5.056187   1.000000
    8        5.268490   1.000000
    9        5.575634   1.000000
   10        6.021963   1.000000
   11        6.148578   1.000000
   12        6.386843   1.000000
   13        6.864389   1.000000
   14        7.080470   1.000000
   15        7.088530   1.000000
   16        7.344676   1.000000
   17        7.822370   1.000000
   18        7.967403   1.000000
   19        8.214668   1.000000
   20        8.312613   1.000000
   21        9.358664   0.034965
   22       10.549258  -0.000000
   23       11.179834  -0.000000
   24       12.855090  -0.000000
   25       18.730158   0.000000
   26       18.908434   0.000000
   27       20.697680   0.000000
   28       21.018776   0.000000
   29       21.422039   0.000000
   30       21.480768   0.000000
 
  0.2000000E+00  0.2000000E+00  0.2000000E+00  0.6400000E-01
    1        1.475067   1.000000
    2        3.430904   1.000000
    3        3.998945   1.000000
    4        4.136445   1.000000
    5        4.192829   1.000000
    6        4.562968   1.000000
    7        4.689657   1.000000
    8        5.732343   1.000000
    9        6.456949   1.000000
   10        6.550267   1.000000
   11        6.663613   1.000000
   12        6.858350   1.000000
   13        7.040730   1.000000
   14        7.296018   1.000000
   15        7.401851   1.000000
   16        7.625937   1.000000
   17        8.324773   1.000000
   18        8.400272   1.000000
   19        8.544270   1.000011
   20        9.107806   0.890857
   21        9.841365  -0.000045
   22       11.838421  -0.000000
   23       12.505541  -0.000000
   24       12.725207  -0.000000
   25       17.660756   0.000000
   26       17.895354   0.000000
   27       18.610611   0.000000
   28       21.111048   0.000000
   29       21.522852   0.000000
   30       21.691157   0.000000
 
  0.4000000E+00  0.2000000E+00  0.2000000E+00  0.6400000E-01
    1        2.393233   1.000000
    2        3.731440   1.000000
    3        4.218093   1.000000
    4        4.557368   1.000000
    5        4.572526   1.000000
    6        4.849619   1.000000
    7        5.358457   1.000000
    8        5.547618   1.000000
    9        5.814598   1.000000
   10        6.018214   1.000000
   11        6.378003   1.000000
   12        6.485082   1.000000
   13        6.689325   1.000000
   14        7.034934   1.000000
   15        7.111196   1.000000
   16        7.570510   1.000000
   17        8.125890   1.000000
   18        8.211462   1.000000
   19        8.650755   1.000241
   20        9.035359   1.011642
   21        9.525596  -0.025389
   22        9.800464  -0.000142
   23       13.816369  -0.000000
   24       13.832924  -0.000000
   25       15.536440   0.000000
   26       16.282540   0.000000
   27       20.114218   0.000000
   28       21.510999   0.000000
   29       22.095104   0.000000
   30       22.354593   0.000000
 
  0.2000000E+00  0.4000000E+00  0.2000000E+00  0.6400000E-01
    1        2.561055   1.000000
    2        3.632069   1.000000
    3        4.029035   1.000000
    4        4.519794   1.000000
    5        4.684803   1.000000
    6        4.884799   1.000000
    7        5.540208   1.000000
    8        5.617255   1.000000
    9        5.799481   1.000000
   10        6.107761   1.000000
   11        6.472294   1.000000
   12        6.503500   1.000000
   13        6.614449   1.000000
   14        7.035622   1.000000
   15        7.193060   1.000000
   16        7.286749   1.000000
   17        8.190222   1.000000
   18        8.264816   1.000000
   19        8.445928   1.000000
   20        8.951800   1.034252
   21        9.381929   0.002342
   22        9.667546  -0.003167
   23       13.819314  -0.000000
   24       14.051544  -0.000000
   25       15.589577   0.000000
   26       16.149328   0.000000
   27       20.195485   0.000000
   28       21.580547   0.000000
   29       22.229853   0.000000
   30       22.397630   0.000000
 
  0.2000000E+00  0.2000000E+00  0.4000000E+00  0.6400000E-01
    1        2.565151   1.000000
    2        3.631752   1.000000
    3        4.175297   1.000000
    4        4.512466   1.000000
    5        4.697645   1.000000
    6        5.062815   1.000000
    7        5.201121   1.000000
    8        5.532486   1.000000
    9        5.763668   1.000000
   10        5.992953   1.000000
   11        6.372086   1.000000
   12        6.488287   1.000000
   13        6.699205   1.000000
   14        7.057442   1.000000
   15        7.152052   1.000000
   16        7.441810   1.000000
   17        8.205210   1.000000
   18        8.225557   1.000000
   19        8.573204   1.000027
   20        8.893236   1.022510
   21        9.462284  -0.035447
   22        9.748112  -0.000544
   23       13.824242  -0.000000
   24       13.992427  -0.000000
   25       15.573306   0.000000
   26       16.239446   0.000000
   27       20.103064   0.000000
   28       21.357647   0.000000
   29       22.192087   0.000000
   30       22.461269   0.000000
 
  0.4000000E+00  0.4000000E+00  0.2000000E+00  0.6400000E-01
    1        3.046399   1.000000
    2        3.556682   1.000000
    3        3.884542   1.000000
    4        4.267486   1.000000
    5        5.196606   1.000000
    6        5.496570   1.000000
    7        5.735670   1.000000
    8        5.917798   1.000000
    9        6.078192   1.000000
   10        6.130186   1.000000
   11        6.339476   1.000000
   12        6.511426   1.000000
   13        6.606376   1.000000
   14        6.723891   1.000000
   15        6.882543   1.000000
   16        6.951019   1.000000
   17        7.935721   1.000000
   18        8.372588   1.000000
   19        8.770946   1.003638
   20        9.100899   0.907874
   21        9.235938   0.414614
   22       10.275275  -0.000000
   23       11.513988  -0.000000
   24       12.720049  -0.000000
   25       15.809928   0.000000
   26       17.482587   0.000000
   27       17.910016   0.000000
   28       19.890242   0.000000
   29       22.772069   0.000000
   30       24.559448   0.000000
 
  0.2000000E+00  0.4000000E+00  0.4000000E+00  0.6400000E-01
    1        3.030442   1.000000
    2        3.593900   1.000000
    3        3.654965   1.000000
    4        4.279387   1.000000
    5        5.200801   1.000000
    6        5.497051   1.000000
    7        5.723000   1.000000
    8        5.967834   1.000000
    9        6.090431   1.000000
   10        6.126002   1.000000
   11        6.330912   1.000000
   12        6.518263   1.000000
   13        6.614499   1.000000
   14        6.725013   1.000000
   15        6.880032   1.000000
   16        6.937303   1.000000
   17        7.978841   1.000000
   18        8.404903   1.000000
   19        8.896482   1.023260
   20        9.085631   0.941215
   21        9.214265   0.505831
   22       10.157912  -0.000000
   23       11.995843  -0.000000
   24       12.906058  -0.000000
   25       15.549370   0.000000
   26       17.061340   0.000000
   27       17.943706   0.000000
   28       19.862142   0.000000
   29       22.861666   0.000000
   30       24.405567   0.000000
 
  0.4000000E+00  0.2000000E+00  0.4000000E+00  0.6400000E-01
    1        3.039816   1.000000
    2        3.587472   1.000000
    3        3.921316   1.000000
    4        4.107719   1.000000
    5        5.168290   1.000000
    6        5.396978   1.000000
    7        5.709026   1.000000
    8        6.075725   1.000000
    9        6.189485   1.000000
   10        6.222825   1.000000
   11        6.438528   1.000000
   12        6.458149   1.000000
   13        6.604017   1.000000
   14        6.774220   1.000000
   15        6.833429   1.000000
   16        6.895411   1.000000
   17        8.093015   1.000000
   18        8.134452   1.000000
   19        8.595073   1.000052
   20        9.230951   0.435438
   21        9.363144   0.027712
   22       10.641381  -0.000000
   23       11.066055  -0.000000
   24       12.657092  -0.000000
   25       15.782956   0.000000
   26       17.521816   0.000000
   27       17.897542   0.000000
   28       19.950519   0.000000
   29       22.635845   0.000000
   30       24.634679   0.000000
 
  0.4000000E+00  0.4000000E+00  0.4000000E+00  0.6400000E-01
    1        2.918336   1.000000
    2        3.044614   1.000000
    3        3.287366   1.000000
    4        3.660205   1.000000
    5        5.627891   1.000000
    6        5.741502   1.000000
    7        5.828863   1.000000
    8        6.112304   1.000000
    9        6.189197   1.000000
   10        6.418437   1.000000
   11        6.427708   1.000000
   12        6.617966   1.000000
   13        7.289211   1.000000
   14        7.352166   1.000000
   15        7.512638   1.000000
   16        7.845342   1.000000
   17        8.285287   1.000000
   18        8.700395   1.000818
   19        8.764993   1.003245
   20        9.182587   0.637777
   21        9.721903  -0.001006
   22       10.493218  -0.000000
   23       10.886659  -0.000000
   24       11.111717  -0.000000
   25       14.990755   0.000000
   26       15.388778   0.000000
   27       16.193400   0.000000
   28       17.709654   0.000000
   29       25.275515   0.000000
   30       25.369863   0.000000
