 vasp.6.2.0 18Jan21 (build Mar 17 2021 09:06:54) complex                        
  
 executed on             LinuxIFC date 2021.06.11  11:56:43
 serial version


--------------------------------------------------------------------------------------------------------


 INCAR:
   ENCUT = 250.000000
   SIGMA = 0.200000
   EDIFF = 1.00e-06
   GGA = PE
   PREC = normal
   IBRION = -1
   ICHARG = 1
   ISMEAR = 1
   KPAR = 1
   NBANDS = 30
   NSW = 0
   NCORE = 1
   LCHARG = .TRUE.

 POTCAR:    PAW_PBE Pd 04Jan2005                  
 POTCAR:    PAW_PBE Ir 06Sep2000                  
 POTCAR:    PAW_PBE Pt 04Feb2005                  
 POTCAR:    PAW_PBE Cu 22Jun2005                  
 POTCAR:    PAW_PBE Pd 04Jan2005                  
   SHA256 =  dd6f6f02930356371984e2b707ff5e456046761dc76b07c1eba30abd15eb3c39 Pd/POTCAR             
   COPYR  = (c) Copyright 04Jan2005 Georg Kresse                                                    
   COPYR  = This file is part of the software VASP. Any use, copying, and all other rights are regul
   COPYR  = If you do not have a valid VASP license, you may not use, copy or distribute this file. 
   VRHFIN =Pd : s1 d9                                                                               
   LEXCH  = PE                                                                                      
   EATOM  =   809.7530 eV,   59.5152 Ry                                                             
                                                                                                    
   TITEL  = PAW_PBE Pd 04Jan2005                                                                    
   LULTRA =        F    use ultrasoft PP ?                                                          
   IUNSCR =        1    unscreen: 0-lin 1-nonlin 2-no                                               
   RPACOR =    2.000    partial core radius                                                         
   POMASS =  106.420; ZVAL   =   10.000    mass and valenz                                          
   RCORE  =    2.600    outmost cutoff radius                                                       
   RWIGS  =    2.710; RWIGS  =    1.434    wigner-seitz radius (au A)                               
   ENMAX  =  250.925; ENMIN  =  188.194 eV                                                          
   ICORE  =        3    local potential                                                             
   LCOR   =        T    correct aug charges                                                         
   LPAW   =        T    paw PP                                                                      
   EAUG   =  416.230                                                                                
   DEXC   =    0.000                                                                                
   RMAX   =    2.653    core radius for proj-oper                                                   
   RAUG   =    1.300    factor for augmentation sphere                                              
   RDEP   =    2.734    radius for radial grids                                                     
   RDEPT  =    2.103    core radius for aug-charge                                                  
                                                                                                    
   Atomic configuration                                                                             
   12 entries                                                                                       
     n  l   j            E        occ.                                                              
     1  0  0.50    -24164.6631   2.0000                                                             
     2  0  0.50     -3530.9218   2.0000                                                             
     2  1  1.50     -3165.6822   6.0000                                                             
     3  0  0.50      -639.4577   2.0000                                                             
     3  1  1.50      -519.4532   6.0000                                                             
     3  2  2.50      -328.9757  10.0000                                                             
     4  0  0.50       -88.7014   2.0000                                                             
     4  1  1.50       -54.4540   6.0000                                                             
     4  2  2.50        -6.6878   9.0000                                                             
     5  0  0.50        -4.3543   1.0000                                                             
     5  1  0.50        -1.3606   0.0000                                                             
     4  3  2.50        -1.3606   0.0000                                                             
   Description                                                                                      
     l       E           TYP  RCUT    TYP  RCUT                                                     
     2     -6.6878251     23  2.400                                                                 
     2     -8.0484077     23  2.400                                                                 
     0     -4.3542939     23  2.400                                                                 
     0      4.3406793     23  2.400                                                                 
     1     -4.0817478     23  2.600                                                                 
     1     15.8380318     23  2.600                                                                 
     3     -4.0817478     23  2.400                                                                 
  local pseudopotential read in
  partial core-charges read in
  partial kinetic energy density read in
  atomic valenz-charges read in
  non local Contribution for L=           2  read in
    real space projection operators read in
  non local Contribution for L=           2  read in
    real space projection operators read in
  non local Contribution for L=           0  read in
    real space projection operators read in
  non local Contribution for L=           0  read in
    real space projection operators read in
  non local Contribution for L=           1  read in
    real space projection operators read in
  non local Contribution for L=           1  read in
    real space projection operators read in
    PAW grid and wavefunctions read in
 
   number of l-projection  operators is LMAX  =           6
   number of lm-projection operators is LMMAX =          18
 
 POTCAR:    PAW_PBE Ir 06Sep2000                  
   SHA256 =  7c6af8d4d487b237782eb51e6f62977b27a1da78c3c96acd1cebefd6c308f120 Ir/POTCAR             
   COPYR  = (c) Copyright 06Sep2000 Georg Kresse                                                    
   COPYR  = This file is part of the software VASP. Any use, copying, and all other rights are regul
   COPYR  = If you do not have a valid VASP license, you may not use, copy or distribute this file. 
   VRHFIN =Ir: s1d8                                                                                 
   LEXCH  = PE                                                                                      
   EATOM  =   560.1833 eV,   41.1723 Ry                                                             
                                                                                                    
   TITEL  = PAW_PBE Ir 06Sep2000                                                                    
   LULTRA =        F    use ultrasoft PP ?                                                          
   IUNSCR =        1    unscreen: 0-lin 1-nonlin 2-no                                               
   RPACOR =    2.250    partial core radius                                                         
   POMASS =  192.220; ZVAL   =    9.000    mass and valenz                                          
   RCORE  =    2.600    outmost cutoff radius                                                       
   RWIGS  =    2.690; RWIGS  =    1.423    wigner-seitz radius (au A)                               
   ENMAX  =  210.864; ENMIN  =  158.148 eV                                                          
   RCLOC  =    1.857    cutoff for local pot                                                        
   LCOR   =        T    correct aug charges                                                         
   LPAW   =        T    paw PP                                                                      
   EAUG   =  318.962                                                                                
   DEXC   =    0.000                                                                                
   RMAX   =    2.667    core radius for proj-oper                                                   
   RAUG   =    1.300    factor for augmentation sphere                                              
   RDEP   =    2.748    radius for radial grids                                                     
   RDEPT  =    2.300    core radius for aug-charge                                                  
                                                                                                    
   Atomic configuration                                                                             
   16 entries                                                                                       
     n  l   j            E        occ.                                                              
     1  0  0.50    -76100.0449   2.0000                                                             
     2  0  0.50    -13308.1683   2.0000                                                             
     2  1  1.50    -11558.0021   6.0000                                                             
     3  0  0.50     -3110.7274   2.0000                                                             
     3  1  1.50     -2599.2109   6.0000                                                             
     3  2  2.50     -2037.1515  10.0000                                                             
     4  0  0.50      -661.6001   2.0000                                                             
     4  1  1.50      -493.8981   6.0000                                                             
     4  2  2.50      -288.1909  10.0000                                                             
     4  3  3.50       -59.5718  14.0000                                                             
     5  0  0.50       -95.3879   2.0000                                                             
     5  1  1.50       -52.2747   6.0000                                                             
     5  2  2.50        -5.4180   8.0000                                                             
     6  0  0.50        -5.5479   1.0000                                                             
     6  1  1.50        -6.8029   0.0000                                                             
     5  3  2.50        -1.3606   0.0000                                                             
   Description                                                                                      
     l       E           TYP  RCUT    TYP  RCUT                                                     
     2     -5.4179967     23  2.600                                                                 
     2     -6.7785793     23  2.600                                                                 
     0     -5.5478636     23  2.600                                                                 
     0      2.2542272     23  2.600                                                                 
     1     -2.7211652     23  2.600                                                                 
     1     20.4087390     23  2.600                                                                 
  local pseudopotential read in
  partial core-charges read in
  partial kinetic energy density read in
  atomic valenz-charges read in
  non local Contribution for L=           2  read in
    real space projection operators read in
  non local Contribution for L=           2  read in
    real space projection operators read in
  non local Contribution for L=           0  read in
    real space projection operators read in
  non local Contribution for L=           0  read in
    real space projection operators read in
  non local Contribution for L=           1  read in
    real space projection operators read in
  non local Contribution for L=           1  read in
    real space projection operators read in
    PAW grid and wavefunctions read in
 
   number of l-projection  operators is LMAX  =           6
   number of lm-projection operators is LMMAX =          18
 
 POTCAR:    PAW_PBE Pt 04Feb2005                  
   SHA256 =  3ed90460adef76debcff1cfb73ee1349b515b1a3db03439735b44de3a8db7dc8 Pt/POTCAR             
   COPYR  = (c) Copyright 04Feb2005 Georg Kresse                                                    
   COPYR  = This file is part of the software VASP. Any use, copying, and all other rights are regul
   COPYR  = If you do not have a valid VASP license, you may not use, copy or distribute this file. 
   VRHFIN =Pt: s1d9                                                                                 
   LEXCH  = PE                                                                                      
   EATOM  =   729.1176 eV,   53.5886 Ry                                                             
                                                                                                    
   TITEL  = PAW_PBE Pt 04Feb2005                                                                    
   LULTRA =        F    use ultrasoft PP ?                                                          
   IUNSCR =        1    unscreen: 0-lin 1-nonlin 2-no                                               
   RPACOR =    2.330    partial core radius                                                         
   POMASS =  195.080; ZVAL   =   10.000    mass and valenz                                          
   RCORE  =    2.600    outmost cutoff radius                                                       
   RWIGS  =    2.750; RWIGS  =    1.455    wigner-seitz radius (au A)                               
   ENMAX  =  230.283; ENMIN  =  172.712 eV                                                          
   ICORE  =        3    local potential                                                             
   LCOR   =        T    correct aug charges                                                         
   LPAW   =        T    paw PP                                                                      
   EAUG   =  358.966                                                                                
   DEXC   =    0.000                                                                                
   RMAX   =    2.658    core radius for proj-oper                                                   
   RAUG   =    1.300    factor for augmentation sphere                                              
   RDEP   =    2.761    radius for radial grids                                                     
   RDEPT  =    2.203    core radius for aug-charge                                                  
                                                                                                    
   Atomic configuration                                                                             
   16 entries                                                                                       
     n  l   j            E        occ.                                                              
     1  0  0.50    -78401.1885   2.0000                                                             
     2  0  0.50    -13770.7750   2.0000                                                             
     2  1  1.50    -11931.0468   6.0000                                                             
     3  0  0.50     -3234.7234   2.0000                                                             
     3  1  1.50     -2699.2216   6.0000                                                             
     3  2  2.50     -2119.5714  10.0000                                                             
     4  0  0.50      -695.1528   2.0000                                                             
     4  1  1.50      -519.6034   6.0000                                                             
     4  2  2.50      -306.6786  10.0000                                                             
     4  3  3.50       -70.1041  14.0000                                                             
     5  0  0.50      -101.7747   2.0000                                                             
     5  1  1.50       -55.9873   6.0000                                                             
     5  2  2.50        -6.1423   9.0000                                                             
     6  0  0.50        -5.6573   1.0000                                                             
     6  1  1.50        -6.8029   0.0000                                                             
     5  3  2.50        -1.3606   0.0000                                                             
   Description                                                                                      
     l       E           TYP  RCUT    TYP  RCUT                                                     
     2     -6.1423404     23  2.500                                                                 
     2     -7.5029230     23  2.500                                                                 
     0     -5.6573207     23  2.500                                                                 
     0      0.7416693     23  2.500                                                                 
     1     -2.7211652     23  2.600                                                                 
     1     20.4087390     23  2.600                                                                 
     3     -1.3605826     23  2.500                                                                 
  local pseudopotential read in
  partial core-charges read in
  partial kinetic energy density read in
  atomic valenz-charges read in
  non local Contribution for L=           2  read in
    real space projection operators read in
  non local Contribution for L=           2  read in
    real space projection operators read in
  non local Contribution for L=           0  read in
    real space projection operators read in
  non local Contribution for L=           0  read in
    real space projection operators read in
  non local Contribution for L=           1  read in
    real space projection operators read in
  non local Contribution for L=           1  read in
    real space projection operators read in
    PAW grid and wavefunctions read in
 
   number of l-projection  operators is LMAX  =           6
   number of lm-projection operators is LMMAX =          18
 
 POTCAR:    PAW_PBE Cu 22Jun2005                  
   SHA256 =  0e71e558f37a4e8407882b4609ceaae59938afaad9ced71dfe8490308a0ab630 Cu/POTCAR             
   COPYR  = (c) Copyright 22Jun2005 Georg Kresse                                                    
   COPYR  = This file is part of the software VASP. Any use, copying, and all other rights are regul
   COPYR  = If you do not have a valid VASP license, you may not use, copy or distribute this file. 
   VRHFIN =Cu: d10 p1                                                                               
   LEXCH  = PE                                                                                      
   EATOM  =  1390.9808 eV,  102.2342 Ry                                                             
                                                                                                    
   TITEL  = PAW_PBE Cu 22Jun2005                                                                    
   LULTRA =        F    use ultrasoft PP ?                                                          
   IUNSCR =        1    unscreen: 0-lin 1-nonlin 2-no                                               
   RPACOR =    2.000    partial core radius                                                         
   POMASS =   63.546; ZVAL   =   11.000    mass and valenz                                          
   RCORE  =    2.300    outmost cutoff radius                                                       
   RWIGS  =    2.200; RWIGS  =    1.164    wigner-seitz radius (au A)                               
   ENMAX  =  295.446; ENMIN  =  221.585 eV                                                          
   ICORE  =        3    local potential                                                             
   LCOR   =        T    correct aug charges                                                         
   LPAW   =        T    paw PP                                                                      
   EAUG   =  586.980                                                                                
   DEXC   =    0.000                                                                                
   RMAX   =    2.344    core radius for proj-oper                                                   
   RAUG   =    1.300    factor for augmentation sphere                                              
   RDEP   =    2.302    radius for radial grids                                                     
   RDEPT  =    1.771    core radius for aug-charge                                                  
                                                                                                    
   Atomic configuration                                                                             
    9 entries                                                                                       
     n  l   j            E        occ.                                                              
     1  0  0.50     -8850.2468   2.0000                                                             
     2  0  0.50     -1062.3498   2.0000                                                             
     2  1  1.50      -916.8226   6.0000                                                             
     3  0  0.50      -114.6929   2.0000                                                             
     3  1  1.50       -72.1325   6.0000                                                             
     3  2  2.50        -5.0394  10.0000                                                             
     4  0  0.50        -4.6097   1.0000                                                             
     4  1  0.50        -4.0817   0.0000                                                             
     4  3  2.50        -1.3606   0.0000                                                             
   Description                                                                                      
     l       E           TYP  RCUT    TYP  RCUT                                                     
     2     -5.0393973     23  2.200                                                                 
     2     10.8846608     23  2.200                                                                 
     0     -4.6097109     23  2.200                                                                 
     0      8.2520465     23  2.200                                                                 
     1     -2.7211652     23  2.200                                                                 
     1     21.7055443     23  2.200                                                                 
     3      2.7211652     23  2.300                                                                 
  local pseudopotential read in
  partial core-charges read in
  partial kinetic energy density read in
  atomic valenz-charges read in
  non local Contribution for L=           2  read in
    real space projection operators read in
  non local Contribution for L=           2  read in
    real space projection operators read in
  non local Contribution for L=           0  read in
    real space projection operators read in
  non local Contribution for L=           0  read in
    real space projection operators read in
  non local Contribution for L=           1  read in
    real space projection operators read in
  non local Contribution for L=           1  read in
    real space projection operators read in
    PAW grid and wavefunctions read in
 
   number of l-projection  operators is LMAX  =           6
   number of lm-projection operators is LMMAX =          18
 
  PAW_PBE Pd 04Jan2005                  :
 energy of atom  1       EATOM= -809.7530
 kinetic energy error for atom=    0.0670 (will be added to EATOM!!)
  PAW_PBE Ir 06Sep2000                  :
 energy of atom  2       EATOM= -560.1833
 kinetic energy error for atom=    0.0414 (will be added to EATOM!!)
  PAW_PBE Pt 04Feb2005                  :
 energy of atom  3       EATOM= -729.1176
 kinetic energy error for atom=    0.0537 (will be added to EATOM!!)
  PAW_PBE Cu 22Jun2005                  :
 energy of atom  4       EATOM=-1390.9808
 kinetic energy error for atom=    0.2692 (will be added to EATOM!!)
 
 
 POSCAR: Pd Ir Pt Cu
  positions in cartesian coordinates
  No initial velocities read in
 exchange correlation table for  LEXCH =        8
   RHO(1)=    0.500       N(1)  =     2000
   RHO(2)=  100.500       N(2)  =     4000
 


--------------------------------------------------------------------------------------------------------


 ion  position               nearest neighbor table
   1  0.000  0.000  0.000-   2 2.73   3 2.73   4 2.73   3 2.73   4 2.73   2 2.73   4 2.73   4 2.73
                             2 2.73   3 2.73   3 2.73   2 2.73
   2  0.500  0.500  0.000-   1 2.73   3 2.73   4 2.73   3 2.73   4 2.73   1 2.73   3 2.73   3 2.73
                             1 2.73   4 2.73   4 2.73   1 2.73
   3  0.500  0.000  0.500-   1 2.73   2 2.73   4 2.73   1 2.73   2 2.73   2 2.73   4 2.73   2 2.73
                             1 2.73   4 2.73   1 2.73   4 2.73
   4  0.000  0.500  0.500-   1 2.73   2 2.73   3 2.73   1 2.73   2 2.73   1 2.73   3 2.73   1 2.73
                             2 2.73   3 2.73   2 2.73   3 2.73
 
  LATTYP: Found a simple cubic cell.
 ALAT       =     3.8660000000
  
  Lattice vectors:
  
 A1 = (   3.8660000000,   0.0000000000,   0.0000000000)
 A2 = (   0.0000000000,   3.8660000000,   0.0000000000)
 A3 = (   0.0000000000,   0.0000000000,   3.8660000000)


Analysis of symmetry for initial positions (statically):
=====================================================================
 Subroutine PRICEL returns:
 Original cell was already a primitive cell.
 

 Routine SETGRP: Setting up the symmetry group for a 
 simple cubic supercell.


 Subroutine GETGRP returns: Found  8 space group operations
 (whereof  8 operations were pure point group operations)
 out of a pool of 48 trial point group operations.


The static configuration has the point symmetry D_2h.


Analysis of symmetry for dynamics (positions and initial velocities):
=====================================================================
 Subroutine PRICEL returns:
 Original cell was already a primitive cell.
 

 Routine SETGRP: Setting up the symmetry group for a 
 simple cubic supercell.


 Subroutine GETGRP returns: Found  8 space group operations
 (whereof  8 operations were pure point group operations)
 out of a pool of 48 trial point group operations.


The dynamic configuration has the point symmetry D_2h.


 Subroutine INISYM returns: Found  8 space group operations
 (whereof  8 operations are pure point group operations),
 and found     1 'primitive' translations


----------------------------------------------------------------------------------------

                                     Primitive cell                                     

  volume of cell :      57.7811

  direct lattice vectors                    reciprocal lattice vectors
     3.866000000  0.000000000  0.000000000     0.258665287  0.000000000  0.000000000
     0.000000000  3.866000000  0.000000000     0.000000000  0.258665287  0.000000000
     0.000000000  0.000000000  3.866000000     0.000000000  0.000000000  0.258665287

  length of vectors
     3.866000000  3.866000000  3.866000000     0.258665287  0.258665287  0.258665287

  position of ions in fractional coordinates (direct lattice)
     0.000000000  0.000000000  0.000000000
     0.500000000  0.500000000  0.000000000
     0.500000000  0.000000000  0.500000000
     0.000000000  0.500000000  0.500000000

  ion indices of the primitive-cell ions
   primitive index   ion index
                 1           1
                 2           2
                 3           3
                 4           4

----------------------------------------------------------------------------------------

 
 
 KPOINTS: KPOINTS created by Atomic Simulation Env

Automatic generation of k-mesh.
 Grid dimensions read from file:
 generate k-points for:    5    5    5

 Generating k-lattice:

  Cartesian coordinates                     Fractional coordinates (reciprocal lattice)
     0.051733057  0.000000000  0.000000000     0.200000000  0.000000000  0.000000000
     0.000000000  0.051733057  0.000000000     0.000000000  0.200000000  0.000000000
     0.000000000  0.000000000  0.051733057     0.000000000  0.000000000  0.200000000

  Length of vectors
     0.051733057  0.051733057  0.051733057

  Shift w.r.t. Gamma in fractional coordinates (k-lattice)
     0.000000000  0.000000000  0.000000000

 
 Subroutine IBZKPT returns following result:
 ===========================================
 
 Found     27 irreducible k-points:
 
 Following reciprocal coordinates:
            Coordinates               Weight
  0.000000  0.000000  0.000000      1.000000
  0.200000  0.000000  0.000000      2.000000
  0.000000  0.200000  0.000000      2.000000
  0.000000  0.000000  0.200000      2.000000
  0.400000  0.000000  0.000000      2.000000
  0.000000  0.400000  0.000000      2.000000
  0.000000  0.000000  0.400000      2.000000
  0.200000  0.200000  0.000000      4.000000
  0.000000  0.200000  0.200000      4.000000
  0.200000  0.000000  0.200000      4.000000
  0.400000  0.200000  0.000000      4.000000
  0.000000  0.400000  0.200000      4.000000
  0.200000  0.000000  0.400000      4.000000
 -0.200000  0.400000  0.000000      4.000000
 -0.400000  0.000000  0.200000      4.000000
  0.000000  0.200000  0.400000      4.000000
  0.400000  0.400000  0.000000      4.000000
  0.000000  0.400000  0.400000      4.000000
  0.400000  0.000000  0.400000      4.000000
  0.200000  0.200000  0.200000      8.000000
  0.400000  0.200000  0.200000      8.000000
  0.200000  0.400000  0.200000      8.000000
  0.200000  0.200000  0.400000      8.000000
  0.400000  0.400000  0.200000      8.000000
  0.200000  0.400000  0.400000      8.000000
  0.400000  0.200000  0.400000      8.000000
  0.400000  0.400000  0.400000      8.000000
 
 Following cartesian coordinates:
            Coordinates               Weight
  0.000000  0.000000  0.000000      1.000000
  0.051733  0.000000  0.000000      2.000000
  0.000000  0.051733  0.000000      2.000000
  0.000000  0.000000  0.051733      2.000000
  0.103466  0.000000  0.000000      2.000000
  0.000000  0.103466  0.000000      2.000000
  0.000000  0.000000  0.103466      2.000000
  0.051733  0.051733  0.000000      4.000000
  0.000000  0.051733  0.051733      4.000000
  0.051733  0.000000  0.051733      4.000000
  0.103466  0.051733  0.000000      4.000000
  0.000000  0.103466  0.051733      4.000000
  0.051733  0.000000  0.103466      4.000000
 -0.051733  0.103466  0.000000      4.000000
 -0.103466  0.000000  0.051733      4.000000
  0.000000  0.051733  0.103466      4.000000
  0.103466  0.103466  0.000000      4.000000
  0.000000  0.103466  0.103466      4.000000
  0.103466  0.000000  0.103466      4.000000
  0.051733  0.051733  0.051733      8.000000
  0.103466  0.051733  0.051733      8.000000
  0.051733  0.103466  0.051733      8.000000
  0.051733  0.051733  0.103466      8.000000
  0.103466  0.103466  0.051733      8.000000
  0.051733  0.103466  0.103466      8.000000
  0.103466  0.051733  0.103466      8.000000
  0.103466  0.103466  0.103466      8.000000
 


--------------------------------------------------------------------------------------------------------




 Dimension of arrays:
   k-points           NKPTS =     27   k-points in BZ     NKDIM =     27   number of bands    NBANDS=     30
   number of dos      NEDOS =    301   number of ions     NIONS =      4
   non local maximal  LDIM  =      6   non local SUM 2l+1 LMDIM =     18
   total plane-waves  NPLWV =   4096
   max r-space proj   IRMAX =      1   max aug-charges    IRDMAX=   5325
   dimension x,y,z NGX =    16 NGY =   16 NGZ =   16
   dimension x,y,z NGXF=    32 NGYF=   32 NGZF=   32
   support grid    NGXF=    32 NGYF=   32 NGZF=   32
   ions per type =               1   1   1   1
   NGX,Y,Z   is equivalent  to a cutoff of   6.88,  6.88,  6.88 a.u.
   NGXF,Y,Z  is equivalent  to a cutoff of  13.76, 13.76, 13.76 a.u.

 SYSTEM =  unknown system                          
 POSCAR =  Pd Ir Pt Cu                             

 Startparameter for this run:
   NWRITE =      2    write-flag & timer
   PREC   = normal    normal or accurate (medium, high low for compatibility)
   ISTART =      1    job   : 0-new  1-cont  2-samecut
   ICHARG =      1    charge: 1-file 2-atom 10-const
   ISPIN  =      1    spin polarized calculation?
   LNONCOLLINEAR =      F non collinear calculations
   LSORBIT =      F    spin-orbit coupling
   INIWAV =      1    electr: 0-lowe 1-rand  2-diag
   LASPH  =      F    aspherical Exc in radial PAW
   METAGGA=      F    non-selfconsistent MetaGGA calc.

 Electronic Relaxation 1
   ENCUT  =  250.0 eV  18.37 Ry    4.29 a.u.   4.98  4.98  4.98*2*pi/ulx,y,z
   ENINI  =  250.0     initial cutoff
   ENAUG  =  587.0 eV  augmentation charge cutoff
   NELM   =     60;   NELMIN=  2; NELMDL=  0     # of ELM steps 
   EDIFF  = 0.1E-05   stopping-criterion for ELM
   LREAL  =      F    real-space projection
   NLSPLINE    = F    spline interpolate recip. space projectors
   LCOMPAT=      F    compatible to vasp.4.4
   GGA_COMPAT  = T    GGA compatible to vasp.4.4-vasp.4.6
   LMAXPAW     = -100 max onsite density
   LMAXMIX     =    2 max onsite mixed and CHGCAR
   VOSKOWN=      0    Vosko Wilk Nusair interpolation
   ROPT   =    0.00000   0.00000   0.00000   0.00000
 Ionic relaxation
   EDIFFG = 0.1E-04   stopping-criterion for IOM
   NSW    =      0    number of steps for IOM
   NBLOCK =      1;   KBLOCK =      1    inner block; outer block 
   IBRION =     -1    ionic relax: 0-MD 1-quasi-New 2-CG
   NFREE  =      0    steps in history (QN), initial steepest desc. (CG)
   ISIF   =      2    stress and relaxation
   IWAVPR =      0    prediction:  0-non 1-charg 2-wave 3-comb
   ISYM   =      2    0-nonsym 1-usesym 2-fastsym
   LCORR  =      T    Harris-Foulkes like correction to forces

   POTIM  = 0.5000    time-step for ionic-motion
   TEIN   =    0.0    initial temperature
   TEBEG  =    0.0;   TEEND  =   0.0 temperature during run
   SMASS  =  -3.00    Nose mass-parameter (am)
   estimated Nose-frequenzy (Omega)   =  0.10E-29 period in steps = 0.13E+47 mass=  -0.342E-27a.u.
   SCALEE = 1.0000    scale energy and forces
   NPACO  =    256;   APACO  = 16.0  distance and # of slots for P.C.
   PSTRESS=    0.0 pullay stress

  Mass of Ions in am
   POMASS = 106.42192.22195.08 63.55
  Ionic Valenz
   ZVAL   =  10.00  9.00 10.00 11.00
  Atomic Wigner-Seitz radii
   RWIGS  =  -1.00 -1.00 -1.00 -1.00
  virtual crystal weights 
   VCA    =   1.00  1.00  1.00  1.00
   NELECT =      40.0000    total number of electrons
   NUPDOWN=      -1.0000    fix difference up-down

 DOS related values:
   EMIN   =  10.00;   EMAX   =-10.00  energy-range for DOS
   EFERMI =   0.00
   ISMEAR =     1;   SIGMA  =   0.20  broadening in eV -4-tet -1-fermi 0-gaus

 Electronic relaxation 2 (details)
   IALGO  =     38    algorithm
   LDIAG  =      T    sub-space diagonalisation (order eigenvalues)
   LSUBROT=      F    optimize rotation matrix (better conditioning)
   TURBO    =      0    0=normal 1=particle mesh
   IRESTART =      0    0=no restart 2=restart with 2 vectors
   NREBOOT  =      0    no. of reboots
   NMIN     =      0    reboot dimension
   EREF     =   0.00    reference energy to select bands
   IMIX   =      4    mixing-type and parameters
     AMIX     =   0.40;   BMIX     =  1.00
     AMIX_MAG =   1.60;   BMIX_MAG =  1.00
     AMIN     =   0.10
     WC   =   100.;   INIMIX=   1;  MIXPRE=   1;  MAXMIX= -45

 Intra band minimization:
   WEIMIN = 0.0000     energy-eigenvalue tresh-hold
   EBREAK =  0.83E-08  absolut break condition
   DEPER  =   0.30     relativ break condition  

   TIME   =   0.40     timestep for ELM

  volume/ion in A,a.u.               =      14.45        97.48
  Fermi-wavevector in a.u.,A,eV,Ry     =   1.448215  2.736729 28.535854  2.097326
  Thomas-Fermi vector in A             =   2.566081
 
 Write flags
   LWAVE        =      T    write WAVECAR
   LDOWNSAMPLE  =      F    k-point downsampling of WAVECAR
   LCHARG       =      T    write CHGCAR
   LVTOT        =      F    write LOCPOT, total local potential
   LVHAR        =      F    write LOCPOT, Hartree potential only
   LELF         =      F    write electronic localiz. function (ELF)
   LORBIT       =      0    0 simple, 1 ext, 2 COOP (PROOUT), +10 PAW based schemes


 Dipole corrections
   LMONO  =      F    monopole corrections only (constant potential shift)
   LDIPOL =      F    correct potential (dipole corrections)
   IDIPOL =      0    1-x, 2-y, 3-z, 4-all directions 
   EPSILON=  1.0000000 bulk dielectric constant

 Exchange correlation treatment:
   GGA     =    PE    GGA type
   LEXCH   =     8    internal setting for exchange type
   VOSKOWN=      0    Vosko Wilk Nusair interpolation
   LHFCALC =     F    Hartree Fock is set to
   LHFONE  =     F    Hartree Fock one center treatment
   AEXX    =    0.0000 exact exchange contribution

 Linear response parameters
   LEPSILON=     F    determine dielectric tensor
   LRPA    =     F    only Hartree local field effects (RPA)
   LNABLA  =     F    use nabla operator in PAW spheres
   LVEL    =     F    velocity operator in full k-point grid
   LINTERFAST=   F  fast interpolation
   KINTER  =     0    interpolate to denser k-point grid
   CSHIFT  =0.1000    complex shift for real part using Kramers Kronig
   OMEGAMAX=  -1.0    maximum frequency
   DEG_THRESHOLD= 0.2000000E-02 threshold for treating states as degnerate
   RTIME   =   -0.100 relaxation time in fs
  (WPLASMAI=    0.000 imaginary part of plasma frequency in eV, 0.658/RTIME)
   DFIELD  = 0.0000000 0.0000000 0.0000000 field for delta impulse in time
 
 Orbital magnetization related:
   ORBITALMAG=     F  switch on orbital magnetization
   LCHIMAG   =     F  perturbation theory with respect to B field
   DQ        =  0.001000  dq finite difference perturbation B field
   LLRAUG    =     F  two centre corrections for induced B field



--------------------------------------------------------------------------------------------------------


 Static calculation
 charge density and potential will be updated during run
 non-spin polarized calculation
 Variant of blocked Davidson
 Davidson routine will perform the subspace rotation
 perform sub-space diagonalisation
    after iterative eigenvector-optimisation
 modified Broyden-mixing scheme, WC =      100.0
 initial mixing is a Kerker type mixing with AMIX =  0.4000 and BMIX =      1.0000
 Hartree-type preconditioning will be used
 using additional bands           10
 reciprocal scheme for non local part
 use partial core corrections
 calculate Harris-corrections to forces 
   (improved forces if not selfconsistent)
 use gradient corrections 
 use of overlap-Matrix (Vanderbilt PP)
 Methfessel and Paxton  Order N= 1 SIGMA  =   0.20


--------------------------------------------------------------------------------------------------------


  energy-cutoff  :      250.00
  volume of cell :       57.78
      direct lattice vectors                 reciprocal lattice vectors
     3.866000000  0.000000000  0.000000000     0.258665287  0.000000000  0.000000000
     0.000000000  3.866000000  0.000000000     0.000000000  0.258665287  0.000000000
     0.000000000  0.000000000  3.866000000     0.000000000  0.000000000  0.258665287

  length of vectors
     3.866000000  3.866000000  3.866000000     0.258665287  0.258665287  0.258665287


 
 old parameters found on file WAVECAR:
  energy-cutoff  :      250.00
  volume of cell :       57.78
      direct lattice vectors                 reciprocal lattice vectors
     3.866000000  0.000000000  0.000000000     0.258665287  0.000000000  0.000000000
     0.000000000  3.866000000  0.000000000     0.000000000  0.258665287  0.000000000
     0.000000000  0.000000000  3.866000000     0.000000000  0.000000000  0.258665287

  length of vectors

 
 k-points in units of 2pi/SCALE and weight: KPOINTS created by Atomic Simulation Env
   0.00000000  0.00000000  0.00000000       0.008
   0.05173306  0.00000000  0.00000000       0.016
   0.00000000  0.05173306  0.00000000       0.016
   0.00000000  0.00000000  0.05173306       0.016
   0.10346611  0.00000000  0.00000000       0.016
   0.00000000  0.10346611  0.00000000       0.016
   0.00000000  0.00000000  0.10346611       0.016
   0.05173306  0.05173306  0.00000000       0.032
   0.00000000  0.05173306  0.05173306       0.032
   0.05173306  0.00000000  0.05173306       0.032
   0.10346611  0.05173306  0.00000000       0.032
   0.00000000  0.10346611  0.05173306       0.032
   0.05173306  0.00000000  0.10346611       0.032
  -0.05173306  0.10346611  0.00000000       0.032
  -0.10346611  0.00000000  0.05173306       0.032
   0.00000000  0.05173306  0.10346611       0.032
   0.10346611  0.10346611  0.00000000       0.032
   0.00000000  0.10346611  0.10346611       0.032
   0.10346611  0.00000000  0.10346611       0.032
   0.05173306  0.05173306  0.05173306       0.064
   0.10346611  0.05173306  0.05173306       0.064
   0.05173306  0.10346611  0.05173306       0.064
   0.05173306  0.05173306  0.10346611       0.064
   0.10346611  0.10346611  0.05173306       0.064
   0.05173306  0.10346611  0.10346611       0.064
   0.10346611  0.05173306  0.10346611       0.064
   0.10346611  0.10346611  0.10346611       0.064
 
 k-points in reciprocal lattice and weights: KPOINTS created by Atomic Simulation Env
   0.00000000  0.00000000  0.00000000       0.008
   0.20000000  0.00000000  0.00000000       0.016
   0.00000000  0.20000000  0.00000000       0.016
   0.00000000  0.00000000  0.20000000       0.016
   0.40000000  0.00000000  0.00000000       0.016
   0.00000000  0.40000000  0.00000000       0.016
   0.00000000  0.00000000  0.40000000       0.016
   0.20000000  0.20000000  0.00000000       0.032
   0.00000000  0.20000000  0.20000000       0.032
   0.20000000  0.00000000  0.20000000       0.032
   0.40000000  0.20000000  0.00000000       0.032
   0.00000000  0.40000000  0.20000000       0.032
   0.20000000  0.00000000  0.40000000       0.032
  -0.20000000  0.40000000  0.00000000       0.032
  -0.40000000  0.00000000  0.20000000       0.032
   0.00000000  0.20000000  0.40000000       0.032
   0.40000000  0.40000000  0.00000000       0.032
   0.00000000  0.40000000  0.40000000       0.032
   0.40000000  0.00000000  0.40000000       0.032
   0.20000000  0.20000000  0.20000000       0.064
   0.40000000  0.20000000  0.20000000       0.064
   0.20000000  0.40000000  0.20000000       0.064
   0.20000000  0.20000000  0.40000000       0.064
   0.40000000  0.40000000  0.20000000       0.064
   0.20000000  0.40000000  0.40000000       0.064
   0.40000000  0.20000000  0.40000000       0.064
   0.40000000  0.40000000  0.40000000       0.064
 
 position of ions in fractional coordinates (direct lattice) 
   0.00000000  0.00000000  0.00000000
   0.50000000  0.50000000  0.00000000
   0.50000000  0.00000000  0.50000000
   0.00000000  0.50000000  0.50000000
 
 position of ions in cartesian coordinates  (Angst):
   0.00000000  0.00000000  0.00000000
   1.93300000  1.93300000  0.00000000
   1.93300000  0.00000000  1.93300000
   0.00000000  1.93300000  1.93300000
 


--------------------------------------------------------------------------------------------------------


 k-point   1 :   0.0000 0.0000 0.0000  plane waves:     485
 k-point   2 :   0.2000 0.0000 0.0000  plane waves:     510
 k-point   3 :   0.0000 0.2000 0.0000  plane waves:     510
 k-point   4 :   0.0000 0.0000 0.2000  plane waves:     510
 k-point   5 :   0.4000 0.0000 0.0000  plane waves:     510
 k-point   6 :   0.0000 0.4000 0.0000  plane waves:     510
 k-point   7 :   0.0000 0.0000 0.4000  plane waves:     510
 k-point   8 :   0.2000 0.2000 0.0000  plane waves:     515
 k-point   9 :   0.0000 0.2000 0.2000  plane waves:     515
 k-point  10 :   0.2000 0.0000 0.2000  plane waves:     515
 k-point  11 :   0.4000 0.2000 0.0000  plane waves:     517
 k-point  12 :   0.0000 0.4000 0.2000  plane waves:     517
 k-point  13 :   0.2000 0.0000 0.4000  plane waves:     517
 k-point  14 :  -0.2000 0.4000 0.0000  plane waves:     517
 k-point  15 :  -0.4000 0.0000 0.2000  plane waves:     517
 k-point  16 :   0.0000 0.2000 0.4000  plane waves:     517
 k-point  17 :   0.4000 0.4000 0.0000  plane waves:     525
 k-point  18 :   0.0000 0.4000 0.4000  plane waves:     525
 k-point  19 :   0.4000 0.0000 0.4000  plane waves:     525
 k-point  20 :   0.2000 0.2000 0.2000  plane waves:     516
 k-point  21 :   0.4000 0.2000 0.2000  plane waves:     526
 k-point  22 :   0.2000 0.4000 0.2000  plane waves:     526
 k-point  23 :   0.2000 0.2000 0.4000  plane waves:     526
 k-point  24 :   0.4000 0.4000 0.2000  plane waves:     525
 k-point  25 :   0.2000 0.4000 0.4000  plane waves:     525
 k-point  26 :   0.4000 0.2000 0.4000  plane waves:     525
 k-point  27 :   0.4000 0.4000 0.4000  plane waves:     516

 maximum number of plane-waves:       526
 maximum index in each direction: 
   IXMAX=    5   IYMAX=    4   IZMAX=    4
   IXMIN=   -5   IYMIN=   -5   IZMIN=   -5


 total amount of memory used by VASP MPI-rank0    48667. kBytes
=======================================================================

   base      :      30000. kBytes
   nonl-proj :       8214. kBytes
   grid      :       2641. kBytes
   one-center:         62. kBytes
   wavefun   :       7750. kBytes
 
     INWAV:  cpu time    0.0095: real time    0.0095
 Broyden mixing: mesh for mixing (old mesh)
   NGX =  9   NGY =  9   NGZ =  9
  (NGX  = 32   NGY  = 32   NGZ  = 32)
  gives a total of    729 points

 initial charge density was supplied:
 number of electron      39.9999671 magnetization 
 keeping initial charge density in first step


--------------------------------------------------------------------------------------------------------


 Maximum index for augmentation-charges         4945 (set IRDMAX)


--------------------------------------------------------------------------------------------------------


 First call to EWALD:  gamma=   0.458
 Maximum number of real-space cells 3x 3x 3
 Maximum number of reciprocal cells 3x 3x 3

    FEWALD:  cpu time    0.0008: real time    0.0008


--------------------------------------- Iteration      1(   1)  ---------------------------------------


    POTLOK:  cpu time    0.0082: real time    0.0082
    SETDIJ:  cpu time    0.0042: real time    0.0042
     EDDAV:  cpu time    0.4021: real time    0.4224
       DOS:  cpu time    0.0025: real time    0.0025
    CHARGE:  cpu time    0.0240: real time    0.0240
    MIXING:  cpu time    0.0003: real time    0.0003
    --------------------------------------------
      LOOP:  cpu time    0.4412: real time    0.4615

 eigenvalue-minimisations  :  2170
 total energy-change (2. order) :-0.2343857E+02  (-0.5843793E-03)
 number of electron      39.9999671 magnetization 
 augmentation part       16.9201722 magnetization 

 Broyden mixing:
  rms(total) = 0.13002E-01    rms(broyden)= 0.12376E-01
  rms(prec ) = 0.23999E-01
  weight for this iteration     100.00

 Free energy of the ion-electron system (eV)
  ---------------------------------------------------
  alpha Z        PSCENC =       244.65455147
  Ewald energy   TEWEN  =     -3423.86860972
  -Hartree energ DENC   =      -596.37505041
  -exchange      EXHF   =         0.00000000
  -V(xc)+E(xc)   XCENC  =         1.65794265
  PAW double counting   =      3929.80342151    -3914.71330744
  entropy T*S    EENTRO =        -0.00572158
  eigenvalues    EBANDS =       245.80469911
  atomic energy  EATOM  =      3489.60350230
  Solvation  Ediel_sol  =         0.00000000
  ---------------------------------------------------
  free energy    TOTEN  =       -23.43857212 eV

  energy without entropy =      -23.43285054  energy(sigma->0) =      -23.43666493


--------------------------------------------------------------------------------------------------------




--------------------------------------- Iteration      1(   2)  ---------------------------------------


    POTLOK:  cpu time    0.0079: real time    0.0079
    SETDIJ:  cpu time    0.0045: real time    0.0045
     EDDAV:  cpu time    0.3784: real time    0.3784
       DOS:  cpu time    0.0024: real time    0.0024
    CHARGE:  cpu time    0.0233: real time    0.0233
    MIXING:  cpu time    0.0003: real time    0.0003
    --------------------------------------------
      LOOP:  cpu time    0.4168: real time    0.4168

 eigenvalue-minimisations  :  2122
 total energy-change (2. order) : 0.2661382E-01  (-0.9183662E-03)
 number of electron      39.9999672 magnetization 
 augmentation part       16.9145187 magnetization 

 Broyden mixing:
  rms(total) = 0.22218E-01    rms(broyden)= 0.21842E-01
  rms(prec ) = 0.57036E-01
  weight for this iteration     100.00

 eigenvalues of (default mixing * dielectric matrix)
  average eigenvalue GAMMA=   0.3484
  0.3484

 Free energy of the ion-electron system (eV)
  ---------------------------------------------------
  alpha Z        PSCENC =       244.65455147
  Ewald energy   TEWEN  =     -3423.86860972
  -Hartree energ DENC   =      -596.46704156
  -exchange      EXHF   =         0.00000000
  -V(xc)+E(xc)   XCENC  =         1.66420584
  PAW double counting   =      3930.14031999    -3915.13749628
  entropy T*S    EENTRO =        -0.00676842
  eigenvalues    EBANDS =       246.00537809
  atomic energy  EATOM  =      3489.60350230
  Solvation  Ediel_sol  =         0.00000000
  ---------------------------------------------------
  free energy    TOTEN  =       -23.41195830 eV

  energy without entropy =      -23.40518988  energy(sigma->0) =      -23.40970216


--------------------------------------------------------------------------------------------------------




--------------------------------------- Iteration      1(   3)  ---------------------------------------


    POTLOK:  cpu time    0.0075: real time    0.0075
    SETDIJ:  cpu time    0.0043: real time    0.0043
     EDDAV:  cpu time    0.3739: real time    0.3739
       DOS:  cpu time    0.0024: real time    0.0024
    CHARGE:  cpu time    0.0230: real time    0.0230
    MIXING:  cpu time    0.0003: real time    0.0003
    --------------------------------------------
      LOOP:  cpu time    0.4113: real time    0.4114

 eigenvalue-minimisations  :  2226
 total energy-change (2. order) : 0.6588886E-03  (-0.1294350E-03)
 number of electron      39.9999672 magnetization 
 augmentation part       16.9202548 magnetization 

 Broyden mixing:
  rms(total) = 0.48434E-02    rms(broyden)= 0.47836E-02
  rms(prec ) = 0.10227E-01
  weight for this iteration     100.00

 eigenvalues of (default mixing * dielectric matrix)
  average eigenvalue GAMMA=   0.4501
  0.5537  0.3465

 Free energy of the ion-electron system (eV)
  ---------------------------------------------------
  alpha Z        PSCENC =       244.65455147
  Ewald energy   TEWEN  =     -3423.86860972
  -Hartree energ DENC   =      -596.36054240
  -exchange      EXHF   =         0.00000000
  -V(xc)+E(xc)   XCENC  =         1.65855014
  PAW double counting   =      3930.06073155    -3914.99749746
  entropy T*S    EENTRO =        -0.00627550
  eigenvalues    EBANDS =       245.84429023
  atomic energy  EATOM  =      3489.60350230
  Solvation  Ediel_sol  =         0.00000000
  ---------------------------------------------------
  free energy    TOTEN  =       -23.41129941 eV

  energy without entropy =      -23.40502390  energy(sigma->0) =      -23.40920757


--------------------------------------------------------------------------------------------------------




--------------------------------------- Iteration      1(   4)  ---------------------------------------


    POTLOK:  cpu time    0.0076: real time    0.0076
    SETDIJ:  cpu time    0.0040: real time    0.0040
     EDDAV:  cpu time    0.3895: real time    0.3895
       DOS:  cpu time    0.0023: real time    0.0023
    CHARGE:  cpu time    0.0241: real time    0.0246
    MIXING:  cpu time    0.0003: real time    0.0003
    --------------------------------------------
      LOOP:  cpu time    0.4278: real time    0.4282

 eigenvalue-minimisations  :  2394
 total energy-change (2. order) : 0.2519087E-05  (-0.8513898E-05)
 number of electron      39.9999672 magnetization 
 augmentation part       16.9188740 magnetization 

 Broyden mixing:
  rms(total) = 0.40428E-02    rms(broyden)= 0.40415E-02
  rms(prec ) = 0.85756E-02
  weight for this iteration     100.00

 eigenvalues of (default mixing * dielectric matrix)
  average eigenvalue GAMMA=   0.4332
  0.5122  0.5122  0.2752

 Free energy of the ion-electron system (eV)
  ---------------------------------------------------
  alpha Z        PSCENC =       244.65455147
  Ewald energy   TEWEN  =     -3423.86860972
  -Hartree energ DENC   =      -596.39969793
  -exchange      EXHF   =         0.00000000
  -V(xc)+E(xc)   XCENC  =         1.65992036
  PAW double counting   =      3930.04537331    -3914.99171746
  entropy T*S    EENTRO =        -0.00640218
  eigenvalues    EBANDS =       245.89178297
  atomic energy  EATOM  =      3489.60350230
  Solvation  Ediel_sol  =         0.00000000
  ---------------------------------------------------
  free energy    TOTEN  =       -23.41129689 eV

  energy without entropy =      -23.40489471  energy(sigma->0) =      -23.40916283


--------------------------------------------------------------------------------------------------------




--------------------------------------- Iteration      1(   5)  ---------------------------------------


    POTLOK:  cpu time    0.0076: real time    0.0076
    SETDIJ:  cpu time    0.0042: real time    0.0042
     EDDAV:  cpu time    0.3546: real time    0.3546
       DOS:  cpu time    0.0023: real time    0.0023
    CHARGE:  cpu time    0.0230: real time    0.0230
    MIXING:  cpu time    0.0003: real time    0.0003
    --------------------------------------------
      LOOP:  cpu time    0.3921: real time    0.3921

 eigenvalue-minimisations  :  2120
 total energy-change (2. order) : 0.5890792E-05  (-0.1280522E-05)
 number of electron      39.9999672 magnetization 
 augmentation part       16.9195648 magnetization 

 Broyden mixing:
  rms(total) = 0.29198E-02    rms(broyden)= 0.29187E-02
  rms(prec ) = 0.56526E-02
  weight for this iteration     100.00

 eigenvalues of (default mixing * dielectric matrix)
  average eigenvalue GAMMA=   0.5488
  0.7740  0.7740  0.3236  0.3236

 Free energy of the ion-electron system (eV)
  ---------------------------------------------------
  alpha Z        PSCENC =       244.65455147
  Ewald energy   TEWEN  =     -3423.86860972
  -Hartree energ DENC   =      -596.38008958
  -exchange      EXHF   =         0.00000000
  -V(xc)+E(xc)   XCENC  =         1.65896980
  PAW double counting   =      3930.00779982    -3914.94726084
  entropy T*S    EENTRO =        -0.00633707
  eigenvalues    EBANDS =       245.86618284
  atomic energy  EATOM  =      3489.60350230
  Solvation  Ediel_sol  =         0.00000000
  ---------------------------------------------------
  free energy    TOTEN  =       -23.41129100 eV

  energy without entropy =      -23.40495393  energy(sigma->0) =      -23.40917864


--------------------------------------------------------------------------------------------------------




--------------------------------------- Iteration      1(   6)  ---------------------------------------


    POTLOK:  cpu time    0.0075: real time    0.0075
    SETDIJ:  cpu time    0.0040: real time    0.0040
     EDDAV:  cpu time    0.2150: real time    0.2150
       DOS:  cpu time    0.0024: real time    0.0024
    --------------------------------------------
      LOOP:  cpu time    0.2289: real time    0.2289

 eigenvalue-minimisations  :  1002
 total energy-change (2. order) :-0.9065889E-07  (-0.1127139E-06)
 number of electron      39.9999672 magnetization 
 augmentation part       16.9195648 magnetization 

 Free energy of the ion-electron system (eV)
  ---------------------------------------------------
  alpha Z        PSCENC =       244.65455147
  Ewald energy   TEWEN  =     -3423.86860972
  -Hartree energ DENC   =      -596.37844497
  -exchange      EXHF   =         0.00000000
  -V(xc)+E(xc)   XCENC  =         1.65872198
  PAW double counting   =      3929.95886660    -3914.89693058
  entropy T*S    EENTRO =        -0.00633613
  eigenvalues    EBANDS =       245.86338796
  atomic energy  EATOM  =      3489.60350230
  Solvation  Ediel_sol  =         0.00000000
  ---------------------------------------------------
  free energy    TOTEN  =       -23.41129109 eV

  energy without entropy =      -23.40495496  energy(sigma->0) =      -23.40917904


--------------------------------------------------------------------------------------------------------




 average (electrostatic) potential at core
  the test charge radii are     1.1199  1.2793  1.2059  0.9430
  (the norm of the test charge is              1.0000)
       1 -71.7394       2 -48.8008       3 -64.8533       4 -61.7351
 
 
 
 E-fermi :   9.2156     XC(G=0): -13.1632     alpha+bet :-15.1862

 Fermi energy:         9.2156431715

 k-point     1 :       0.0000    0.0000    0.0000
  band No.  band energies     occupation 
      1       0.0976      2.00000
      2       2.5850      2.00000
      3       3.5406      2.00000
      4       3.5497      2.00000
      5       3.6305      2.00000
      6       3.7235      2.00000
      7       3.7302      2.00000
      8       6.2002      2.00000
      9       6.2027      2.00000
     10       6.3485      2.00000
     11       7.4583      2.00000
     12       7.5852      2.00000
     13       8.2401      2.00000
     14       8.3929      2.00000
     15       8.5501      2.00003
     16       9.2414      0.78428
     17       9.4058     -0.03846
     18       9.5009     -0.06153
     19       9.7797     -0.00049
     20      10.2488     -0.00000
     21      10.8241     -0.00000
     22      11.3866     -0.00000
     23      11.3943     -0.00000
     24      11.4072     -0.00000
     25      17.8967      0.00000
     26      18.1478      0.00000
     27      19.7567      0.00000
     28      20.2890      0.00000
     29      20.4338      0.00000
     30      20.6730      0.00000

 k-point     2 :       0.2000    0.0000    0.0000
  band No.  band energies     occupation 
      1       0.5648      2.00000
      2       2.8874      2.00000
      3       3.7015      2.00000
      4       3.7085      2.00000
      5       3.9047      2.00000
      6       3.9880      2.00000
      7       4.0608      2.00000
      8       5.9753      2.00000
      9       6.3444      2.00000
     10       6.4980      2.00000
     11       7.3588      2.00000
     12       7.4978      2.00000
     13       7.6698      2.00000
     14       7.8568      2.00000
     15       8.0018      2.00000
     16       8.2290      2.00000
     17       9.0128      2.05310
     18       9.1086      1.77778
     19       9.2449      0.75570
     20       9.4716     -0.07006
     21       9.7215     -0.00203
     22      10.8226     -0.00000
     23      13.1762     -0.00000
     24      13.1817     -0.00000
     25      17.8994      0.00000
     26      18.0163      0.00000
     27      20.3829      0.00000
     28      20.4249      0.00000
     29      20.5869      0.00000
     30      20.9816      0.00000

 k-point     3 :       0.0000    0.2000    0.0000
  band No.  band energies     occupation 
      1       0.6159      2.00000
      2       2.9059      2.00000
      3       3.6586      2.00000
      4       3.7841      2.00000
      5       3.8483      2.00000
      6       3.9852      2.00000
      7       4.0852      2.00000
      8       6.1498      2.00000
      9       6.3714      2.00000
     10       6.3760      2.00000
     11       7.2921      2.00000
     12       7.6022      2.00000
     13       7.6257      2.00000
     14       7.7615      2.00000
     15       8.2771      2.00000
     16       8.7529      2.00511
     17       9.0193      2.04625
     18       9.2024      1.11194
     19       9.2270      0.90433
     20       9.2998      0.35276
     21       9.4831     -0.06759
     22       9.7027     -0.00307
     23      13.2869     -0.00000
     24      13.4040     -0.00000
     25      17.4250      0.00000
     26      18.6714      0.00000
     27      20.3184      0.00000
     28      20.3802      0.00000
     29      20.5851      0.00000
     30      21.2825      0.00000

 k-point     4 :       0.0000    0.0000    0.2000
  band No.  band energies     occupation 
      1       0.6177      2.00000
      2       2.9179      2.00000
      3       3.8125      2.00000
      4       3.8569      2.00000
      5       3.8997      2.00000
      6       3.9051      2.00000
      7       3.9112      2.00000
      8       5.9621      2.00000
      9       6.3432      2.00000
     10       6.4993      2.00000
     11       7.2985      2.00000
     12       7.5697      2.00000
     13       7.5917      2.00000
     14       7.9417      2.00000
     15       8.0855      2.00000
     16       8.5286      2.00001
     17       8.8430      2.02423
     18       9.1357      1.62062
     19       9.1707      1.36963
     20       9.3062      0.31371
     21       9.7348     -0.00149
     22      10.2341     -0.00000
     23      13.2583     -0.00000
     24      13.3700     -0.00000
     25      17.1112      0.00000
     26      18.8794      0.00000
     27      20.4095      0.00000
     28      20.4330      0.00000
     29      20.7025      0.00000
     30      21.2061      0.00000

 k-point     5 :       0.4000    0.0000    0.0000
  band No.  band energies     occupation 
      1       1.6763      2.00000
      2       3.5002      2.00000
      3       3.8006      2.00000
      4       4.0596      2.00000
      5       4.7091      2.00000
      6       4.7485      2.00000
      7       4.8472      2.00000
      8       5.5169      2.00000
      9       6.0377      2.00000
     10       6.1377      2.00000
     11       6.8491      2.00000
     12       6.9196      2.00000
     13       6.9556      2.00000
     14       7.1583      2.00000
     15       7.3388      2.00000
     16       7.5860      2.00000
     17       8.2135      2.00000
     18       8.2181      2.00000
     19       8.2455      2.00000
     20       8.5550      2.00003
     21       9.3480      0.10836
     22      10.8207     -0.00000
     23      15.7257      0.00000
     24      15.8007      0.00000
     25      17.0574      0.00000
     26      18.0259      0.00000
     27      18.6041      0.00000
     28      18.7262      0.00000
     29      19.1520      0.00000
     30      21.8210      0.00000

 k-point     6 :       0.0000    0.4000    0.0000
  band No.  band energies     occupation 
      1       1.9894      2.00000
      2       3.2973      2.00000
      3       3.7795      2.00000
      4       4.1116      2.00000
      5       4.6449      2.00000
      6       4.6942      2.00000
      7       4.9734      2.00000
      8       5.7442      2.00000
      9       6.3381      2.00000
     10       6.3624      2.00000
     11       6.8108      2.00000
     12       6.8929      2.00000
     13       6.9148      2.00000
     14       7.0901      2.00000
     15       7.5630      2.00000
     16       7.8739      2.00000
     17       7.8820      2.00000
     18       8.0884      2.00000
     19       8.1927      2.00000
     20       8.4521      2.00000
     21       9.1421      1.57805
     22       9.4663     -0.07067
     23      15.9132      0.00000
     24      15.9618      0.00000
     25      16.6854      0.00000
     26      18.4684      0.00000
     27      18.4946      0.00000
     28      18.6222      0.00000
     29      20.4739      0.00000
     30      20.7378      0.00000

 k-point     7 :       0.0000    0.0000    0.4000
  band No.  band energies     occupation 
      1       2.0048      2.00000
      2       3.2948      2.00000
      3       3.9893      2.00000
      4       4.3516      2.00000
      5       4.6463      2.00000
      6       4.7327      2.00000
      7       4.7451      2.00000
      8       5.4167      2.00000
      9       6.0313      2.00000
     10       6.1478      2.00000
     11       6.8192      2.00000
     12       6.9698      2.00000
     13       6.9725      2.00000
     14       7.1169      2.00000
     15       7.3881      2.00000
     16       7.7178      2.00000
     17       8.0184      2.00000
     18       8.0486      2.00000
     19       8.4289      2.00000
     20       8.5023      2.00001
     21       8.9393      2.06485
     22      10.2144     -0.00000
     23      15.8888      0.00000
     24      16.0177      0.00000
     25      16.2435      0.00000
     26      18.4408      0.00000
     27      18.7153      0.00000
     28      18.9838      0.00000
     29      20.0689      0.00000
     30      21.0936      0.00000

 k-point     8 :       0.2000    0.2000    0.0000
  band No.  band energies     occupation 
      1       1.0610      2.00000
      2       3.1959      2.00000
      3       3.9288      2.00000
      4       3.9350      2.00000
      5       4.1097      2.00000
      6       4.1117      2.00000
      7       4.3944      2.00000
      8       5.9181      2.00000
      9       6.4020      2.00000
     10       6.5339      2.00000
     11       7.0519      2.00000
     12       7.2477      2.00000
     13       7.2755      2.00000
     14       7.3457      2.00000
     15       7.8034      2.00000
     16       7.9878      2.00000
     17       8.3538      2.00000
     18       8.9199      2.05716
     19       8.9726      2.07089
     20       9.0639      1.95744
     21       9.7362     -0.00145
     22      10.8963     -0.00000
     23      11.8861     -0.00000
     24      14.5515     -0.00000
     25      16.9563      0.00000
     26      19.0153      0.00000
     27      20.0382      0.00000
     28      20.4122      0.00000
     29      21.0417      0.00000
     30      21.6764      0.00000

 k-point     9 :       0.0000    0.2000    0.2000
  band No.  band energies     occupation 
      1       1.0870      2.00000
      2       3.2307      2.00000
      3       3.9143      2.00000
      4       3.9802      2.00000
      5       4.0441      2.00000
      6       4.2244      2.00000
      7       4.3398      2.00000
      8       5.9018      2.00000
      9       6.4006      2.00000
     10       6.5373      2.00000
     11       7.0732      2.00000
     12       7.2272      2.00000
     13       7.2933      2.00000
     14       7.3238      2.00000
     15       7.7679      2.00000
     16       8.0982      2.00000
     17       8.4488      2.00000
     18       8.7206      2.00258
     19       8.9292      2.06107
     20       8.9302      2.06149
     21       9.5645     -0.03330
     22      10.9304     -0.00000
     23      12.2497     -0.00000
     24      14.4551     -0.00000
     25      16.8162      0.00000
     26      19.0655      0.00000
     27      19.5215      0.00000
     28      20.9414      0.00000
     29      21.1997      0.00000
     30      21.9218      0.00000

 k-point    10 :       0.2000    0.0000    0.2000
  band No.  band energies     occupation 
      1       1.0609      2.00000
      2       3.2112      2.00000
      3       3.9373      2.00000
      4       3.9573      2.00000
      5       4.0698      2.00000
      6       4.2271      2.00000
      7       4.3280      2.00000
      8       5.7806      2.00000
      9       6.4589      2.00000
     10       6.5670      2.00000
     11       7.0247      2.00000
     12       7.2325      2.00000
     13       7.2369      2.00000
     14       7.2998      2.00000
     15       7.7981      2.00000
     16       7.8454      2.00000
     17       8.2265      2.00000
     18       9.0085      2.05691
     19       9.0689      1.94230
     20       9.2683      0.57141
     21       9.8553     -0.00006
     22      11.1463     -0.00000
     23      11.5475     -0.00000
     24      14.5449     -0.00000
     25      16.9239      0.00000
     26      18.9443      0.00000
     27      19.9824      0.00000
     28      20.5348      0.00000
     29      21.1138      0.00000
     30      21.8121      0.00000

 k-point    11 :       0.4000    0.2000    0.0000
  band No.  band energies     occupation 
      1       2.1408      2.00000
      2       3.7756      2.00000
      3       4.1251      2.00000
      4       4.2994      2.00000
      5       4.6779      2.00000
      6       4.8384      2.00000
      7       5.0308      2.00000
      8       5.4718      2.00000
      9       5.6805      2.00000
     10       6.0933      2.00000
     11       6.3622      2.00000
     12       6.4810      2.00000
     13       6.9330      2.00000
     14       7.1841      2.00000
     15       7.3330      2.00000
     16       7.6744      2.00000
     17       7.8495      2.00000
     18       8.4132      2.00000
     19       8.4556      2.00000
     20       8.9504      2.06817
     21       9.5630     -0.03396
     22       9.8238     -0.00015
     23      13.1337     -0.00000
     24      15.1917      0.00000
     25      16.9220      0.00000
     26      18.0856      0.00000
     27      19.5567      0.00000
     28      19.8195      0.00000
     29      21.8273      0.00000
     30      23.0779      0.00000

 k-point    12 :       0.0000    0.4000    0.2000
  band No.  band energies     occupation 
      1       2.3429      2.00000
      2       3.6382      2.00000
      3       4.0297      2.00000
      4       4.3059      2.00000
      5       4.5991      2.00000
      6       4.8149      2.00000
      7       5.1613      2.00000
      8       5.6342      2.00000
      9       5.7918      2.00000
     10       6.2717      2.00000
     11       6.3469      2.00000
     12       6.4938      2.00000
     13       6.9258      2.00000
     14       7.1483      2.00000
     15       7.6229      2.00000
     16       7.7000      2.00000
     17       7.7738      2.00000
     18       8.1950      2.00000
     19       8.3924      2.00000
     20       8.9589      2.06993
     21       9.0774      1.91362
     22       9.3858     -0.00376
     23      13.6012     -0.00000
     24      15.1499      0.00000
     25      16.7904      0.00000
     26      18.3652      0.00000
     27      19.3827      0.00000
     28      19.5699      0.00000
     29      21.6756      0.00000
     30      23.3065      0.00000

 k-point    13 :       0.2000    0.0000    0.4000
  band No.  band energies     occupation 
      1       2.3796      2.00000
      2       3.6470      2.00000
      3       4.2481      2.00000
      4       4.4440      2.00000
      5       4.6339      2.00000
      6       4.9589      2.00000
      7       4.9619      2.00000
      8       5.2898      2.00000
      9       5.5720      2.00000
     10       6.1543      2.00000
     11       6.4267      2.00000
     12       6.5122      2.00000
     13       6.9580      2.00000
     14       7.1964      2.00000
     15       7.3526      2.00000
     16       7.6901      2.00000
     17       7.9903      2.00000
     18       8.2900      2.00000
     19       8.4679      2.00000
     20       8.7006      2.00165
     21       9.2918      0.40430
     22       9.4591     -0.07090
     23      13.4661     -0.00000
     24      15.1919      0.00000
     25      16.8394      0.00000
     26      17.9554      0.00000
     27      19.3693      0.00000
     28      20.1312      0.00000
     29      21.9442      0.00000
     30      22.9598      0.00000

 k-point    14 :      -0.2000    0.4000    0.0000
  band No.  band energies     occupation 
      1       2.3773      2.00000
      2       3.6265      2.00000
      3       4.0781      2.00000
      4       4.3200      2.00000
      5       4.6183      2.00000
      6       4.7775      2.00000
      7       5.1454      2.00000
      8       5.6376      2.00000
      9       5.9642      2.00000
     10       6.2568      2.00000
     11       6.2659      2.00000
     12       6.4778      2.00000
     13       6.9236      2.00000
     14       7.1811      2.00000
     15       7.5284      2.00000
     16       7.7270      2.00000
     17       7.8069      2.00000
     18       8.2129      2.00000
     19       8.4655      2.00000
     20       8.8675      2.03360
     21       8.9771      2.07059
     22       9.2452      0.75272
     23      13.5157     -0.00000
     24      15.1829      0.00000
     25      16.8376      0.00000
     26      18.3305      0.00000
     27      19.3533      0.00000
     28      19.7535      0.00000
     29      21.9870      0.00000
     30      22.9857      0.00000

 k-point    15 :      -0.4000    0.0000    0.2000
  band No.  band energies     occupation 
      1       2.1366      2.00000
      2       3.8135      2.00000
      3       4.0845      2.00000
      4       4.2686      2.00000
      5       4.6270      2.00000
      6       4.8835      2.00000
      7       5.0793      2.00000
      8       5.4196      2.00000
      9       5.5926      2.00000
     10       6.1584      2.00000
     11       6.4317      2.00000
     12       6.5244      2.00000
     13       6.9437      2.00000
     14       7.1965      2.00000
     15       7.2904      2.00000
     16       7.6649      2.00000
     17       8.0667      2.00000
     18       8.1648      2.00000
     19       8.5494      2.00003
     20       8.9767      2.07062
     21       9.5297     -0.04887
     22       9.7775     -0.00052
     23      13.1128     -0.00000
     24      15.2560      0.00000
     25      16.8741      0.00000
     26      18.0504      0.00000
     27      19.4606      0.00000
     28      19.7549      0.00000
     29      21.9372      0.00000
     30      22.9631      0.00000

 k-point    16 :       0.0000    0.2000    0.4000
  band No.  band energies     occupation 
      1       2.3512      2.00000
      2       3.6205      2.00000
      3       4.2503      2.00000
      4       4.4765      2.00000
      5       4.6498      2.00000
      6       4.9185      2.00000
      7       4.9331      2.00000
      8       5.3552      2.00000
      9       5.5626      2.00000
     10       6.0988      2.00000
     11       6.3376      2.00000
     12       6.5086      2.00000
     13       6.9609      2.00000
     14       7.1498      2.00000
     15       7.4526      2.00000
     16       7.7088      2.00000
     17       7.7723      2.00000
     18       8.3160      2.00000
     19       8.6182      2.00020
     20       8.6419      2.00038
     21       9.4780     -0.06884
     22       9.5778     -0.02805
     23      13.5619     -0.00000
     24      15.0933      0.00000
     25      16.8475      0.00000
     26      18.0098      0.00000
     27      19.4880      0.00000
     28      20.0113      0.00000
     29      21.5532      0.00000
     30      23.4162      0.00000

 k-point    17 :       0.4000    0.4000    0.0000
  band No.  band energies     occupation 
      1       3.2863      2.00000
      2       4.2043      2.00000
      3       4.4733      2.00000
      4       4.8078      2.00000
      5       4.8744      2.00000
      6       5.0887      2.00000
      7       5.2058      2.00000
      8       5.3279      2.00000
      9       5.3840      2.00000
     10       5.8646      2.00000
     11       6.0020      2.00000
     12       6.2779      2.00000
     13       6.9111      2.00000
     14       7.0811      2.00000
     15       7.0932      2.00000
     16       7.3346      2.00000
     17       7.5213      2.00000
     18       8.1092      2.00000
     19       8.4160      2.00000
     20       8.4480      2.00000
     21       9.1664      1.40325
     22      10.1535     -0.00000
     23      11.6320     -0.00000
     24      12.9679     -0.00000
     25      18.8210      0.00000
     26      18.9516      0.00000
     27      20.4997      0.00000
     28      21.1845      0.00000
     29      21.2295      0.00000
     30      21.6581      0.00000

 k-point    18 :       0.0000    0.4000    0.4000
  band No.  band energies     occupation 
      1       3.1813      2.00000
      2       3.9864      2.00000
      3       4.3744      2.00000
      4       4.7695      2.00000
      5       4.9874      2.00000
      6       5.1153      2.00000
      7       5.1366      2.00000
      8       5.4028      2.00000
      9       5.4242      2.00000
     10       5.8848      2.00000
     11       6.0910      2.00000
     12       6.2727      2.00000
     13       6.9063      2.00000
     14       7.0614      2.00000
     15       7.1563      2.00000
     16       7.2302      2.00000
     17       7.4210      2.00000
     18       8.0578      2.00000
     19       8.6403      2.00037
     20       8.6931      2.00138
     21       9.2334      0.85068
     22       9.9877     -0.00000
     23      12.1957     -0.00000
     24      13.0275     -0.00000
     25      18.5639      0.00000
     26      18.6902      0.00000
     27      20.3823      0.00000
     28      20.5113      0.00000
     29      21.0590      0.00000
     30      22.1164      0.00000

 k-point    19 :       0.4000    0.0000    0.4000
  band No.  band energies     occupation 
      1       3.2540      2.00000
      2       4.3557      2.00000
      3       4.4299      2.00000
      4       4.6788      2.00000
      5       4.7605      2.00000
      6       5.0028      2.00000
      7       5.0562      2.00000
      8       5.2685      2.00000
      9       5.5756      2.00000
     10       6.0220      2.00000
     11       6.1486      2.00000
     12       6.3868      2.00000
     13       6.8644      2.00000
     14       7.0805      2.00000
     15       7.0885      2.00000
     16       7.3447      2.00000
     17       7.8224      2.00000
     18       7.9674      2.00000
     19       8.2147      2.00000
     20       8.3126      2.00000
     21       9.3587      0.06993
     22      10.5493     -0.00000
     23      11.1798     -0.00000
     24      12.8551     -0.00000
     25      18.7302      0.00000
     26      18.9084      0.00000
     27      20.6977      0.00000
     28      21.0188      0.00000
     29      21.4220      0.00000
     30      21.4808      0.00000

 k-point    20 :       0.2000    0.2000    0.2000
[...]
      3       3.9989      2.00000
      4       4.1364      2.00000
      5       4.1928      2.00000
      6       4.5630      2.00000
      7       4.6897      2.00000
      8       5.7323      2.00000
      9       6.4569      2.00000
     10       6.5503      2.00000
     11       6.6636      2.00000
     12       6.8583      2.00000
     13       7.0407      2.00000
     14       7.2960      2.00000
     15       7.4019      2.00000
     16       7.6259      2.00000
     17       8.3248      2.00000
     18       8.4003      2.00000
     19       8.5443      2.00002
     20       9.1078      1.78171
     21       9.8414     -0.00009
     22      11.8384     -0.00000
     23      12.5055     -0.00000
     24      12.7252     -0.00000
     25      17.6608      0.00000
     26      17.8954      0.00000
     27      18.6106      0.00000
     28      21.1110      0.00000
     29      21.5229      0.00000
     30      21.6912      0.00000

 k-point    21 :       0.4000    0.2000    0.2000
  band No.  band energies     occupation 
      1       2.3932      2.00000
      2       3.7314      2.00000
      3       4.2181      2.00000
      4       4.5574      2.00000
      5       4.5725      2.00000
      6       4.8496      2.00000
      7       5.3585      2.00000
      8       5.5476      2.00000
      9       5.8146      2.00000
     10       6.0182      2.00000
     11       6.3780      2.00000
     12       6.4851      2.00000
     13       6.6893      2.00000
     14       7.0349      2.00000
     15       7.1112      2.00000
     16       7.5705      2.00000
     17       8.1259      2.00000
     18       8.2115      2.00000
     19       8.6508      2.00048
     20       9.0354      2.02328
     21       9.5256     -0.05078
     22       9.8005     -0.00028
     23      13.8164     -0.00000
     24      13.8329     -0.00000
     25      15.5364      0.00000
     26      16.2825      0.00000
     27      20.1142      0.00000
     28      21.5110      0.00000
     29      22.0951      0.00000
     30      22.3546      0.00000

 k-point    22 :       0.2000    0.4000    0.2000
  band No.  band energies     occupation 
      1       2.5611      2.00000
      2       3.6321      2.00000
      3       4.0290      2.00000
      4       4.5198      2.00000
      5       4.6848      2.00000
      6       4.8848      2.00000
      7       5.5402      2.00000
      8       5.6173      2.00000
      9       5.7995      2.00000
     10       6.1078      2.00000
     11       6.4723      2.00000
     12       6.5035      2.00000
     13       6.6144      2.00000
     14       7.0356      2.00000
     15       7.1931      2.00000
     16       7.2867      2.00000
     17       8.1902      2.00000
     18       8.2648      2.00000
     19       8.4459      2.00000
     20       8.9518      2.06850
     21       9.3819      0.00468
     22       9.6675     -0.00633
     23      13.8193     -0.00000
     24      14.0515     -0.00000
     25      15.5896      0.00000
     26      16.1493      0.00000
     27      20.1955      0.00000
     28      21.5805      0.00000
     29      22.2299      0.00000
     30      22.3976      0.00000

 k-point    23 :       0.2000    0.2000    0.4000
  band No.  band energies     occupation 
      1       2.5652      2.00000
      2       3.6318      2.00000
      3       4.1753      2.00000
      4       4.5125      2.00000
      5       4.6976      2.00000
      6       5.0628      2.00000
      7       5.2011      2.00000
      8       5.5325      2.00000
      9       5.7637      2.00000
     10       5.9930      2.00000
     11       6.3721      2.00000
     12       6.4883      2.00000
     13       6.6992      2.00000
     14       7.0574      2.00000
     15       7.1521      2.00000
     16       7.4418      2.00000
     17       8.2052      2.00000
     18       8.2256      2.00000
     19       8.5732      2.00005
     20       8.8932      2.04502
     21       9.4623     -0.07089
     22       9.7481     -0.00109
     23      13.8242     -0.00000
     24      13.9924     -0.00000
     25      15.5733      0.00000
     26      16.2394      0.00000
     27      20.1031      0.00000
     28      21.3576      0.00000
     29      22.1921      0.00000
     30      22.4613      0.00000

 k-point    24 :       0.4000    0.4000    0.2000
  band No.  band energies     occupation 
      1       3.0464      2.00000
      2       3.5567      2.00000
      3       3.8845      2.00000
      4       4.2675      2.00000
      5       5.1966      2.00000
      6       5.4966      2.00000
      7       5.7357      2.00000
      8       5.9178      2.00000
      9       6.0782      2.00000
     10       6.1302      2.00000
     11       6.3395      2.00000
     12       6.5114      2.00000
     13       6.6064      2.00000
     14       6.7239      2.00000
     15       6.8825      2.00000
     16       6.9510      2.00000
     17       7.9357      2.00000
     18       8.3726      2.00000
     19       8.7709      2.00728
     20       9.1009      1.81575
     21       9.2359      0.82923
     22      10.2753     -0.00000
     23      11.5140     -0.00000
     24      12.7200     -0.00000
     25      15.8099      0.00000
     26      17.4826      0.00000
     27      17.9100      0.00000
     28      19.8902      0.00000
     29      22.7721      0.00000
     30      24.5594      0.00000

 k-point    25 :       0.2000    0.4000    0.4000
  band No.  band energies     occupation 
      1       3.0304      2.00000
      2       3.5939      2.00000
      3       3.6550      2.00000
      4       4.2794      2.00000
      5       5.2008      2.00000
      6       5.4971      2.00000
      7       5.7230      2.00000
      8       5.9678      2.00000
      9       6.0904      2.00000
     10       6.1260      2.00000
     11       6.3309      2.00000
     12       6.5183      2.00000
     13       6.6145      2.00000
     14       6.7250      2.00000
     15       6.8800      2.00000
     16       6.9373      2.00000
     17       7.9788      2.00000
     18       8.4049      2.00000
     19       8.8965      2.04652
     20       9.0856      1.88243
     21       9.2143      1.01166
     22      10.1579     -0.00000
     23      11.9958     -0.00000
     24      12.9061     -0.00000
     25      15.5494      0.00000
     26      17.0613      0.00000
     27      17.9437      0.00000
     28      19.8621      0.00000
     29      22.8617      0.00000
     30      24.4056      0.00000

 k-point    26 :       0.4000    0.2000    0.4000
  band No.  band energies     occupation 
      1       3.0398      2.00000
      2       3.5875      2.00000
      3       3.9213      2.00000
      4       4.1077      2.00000
      5       5.1683      2.00000
      6       5.3970      2.00000
      7       5.7090      2.00000
      8       6.0757      2.00000
      9       6.1895      2.00000
     10       6.2228      2.00000
     11       6.4385      2.00000
     12       6.4581      2.00000
     13       6.6040      2.00000
     14       6.7742      2.00000
     15       6.8334      2.00000
     16       6.8954      2.00000
     17       8.0930      2.00000
     18       8.1345      2.00000
     19       8.5951      2.00010
     20       9.2310      0.87088
     21       9.3631      0.05542
     22      10.6414     -0.00000
     23      11.0661     -0.00000
     24      12.6571     -0.00000
     25      15.7830      0.00000
     26      17.5218      0.00000
     27      17.8975      0.00000
     28      19.9505      0.00000
     29      22.6358      0.00000
     30      24.6347      0.00000

 k-point    27 :       0.4000    0.4000    0.4000
  band No.  band energies     occupation 
      1       2.9183      2.00000
      2       3.0446      2.00000
      3       3.2874      2.00000
      4       3.6602      2.00000
      5       5.6279      2.00000
      6       5.7415      2.00000
      7       5.8289      2.00000
      8       6.1123      2.00000
      9       6.1892      2.00000
     10       6.4184      2.00000
     11       6.4277      2.00000
     12       6.6180      2.00000
     13       7.2892      2.00000
     14       7.3522      2.00000
     15       7.5126      2.00000
     16       7.8453      2.00000
     17       8.2853      2.00000
     18       8.7004      2.00164
     19       8.7650      2.00649
     20       9.1826      1.27555
     21       9.7219     -0.00201
     22      10.4932     -0.00000
     23      10.8867     -0.00000
     24      11.1117     -0.00000
     25      14.9908      0.00000
     26      15.3888      0.00000
     27      16.1934      0.00000
     28      17.7097      0.00000
     29      25.2755      0.00000
     30      25.3699      0.00000


--------------------------------------------------------------------------------------------------------


 soft charge-density along one line, spin component           1
         0         1         2         3         4         5         6         7         8         9
x    23.0804    0.0000   -1.4441    0.0000    0.7701    0.0000    0.2649    0.0000   -0.4691    0.0000
x    -0.0445    0.0000    0.0940    0.0000    0.0122    0.0000    0.0000    0.0000
y    23.0804    0.0000    1.4567    0.0000    0.8153    0.0000   -0.2696   -0.0000   -0.4422    0.0000
y     0.0068   -0.0000    0.0916   -0.0000    0.0038    0.0000    0.0000    0.0000
z    23.0804    0.0000    0.4326    0.0000    0.8146    0.0000   -0.1632   -0.0000   -0.4531    0.0000
z     0.0124   -0.0000    0.0927   -0.0000   -0.0063    0.0000    0.0000    0.0000
 total charge-density along one line
x    40.0000    0.0000    3.7371   -0.0000   10.8493   -0.0000    3.2025    0.0000    1.3827    0.0000
x     0.4236   -0.0000    0.1311    0.0000   -0.0052   -0.0000    0.0023   -0.0000    0.0068   -0.0000
x     0.0016    0.0000   -0.0015   -0.0000   -0.0009    0.0000    0.0004    0.0000    0.0006   -0.0000
x    -0.0001    0.0000   -0.0006    0.0000
y    40.0000    0.0000   -0.9213    0.0000   10.9326    0.0000   -1.8172   -0.0000    1.4369    0.0000
y    -0.3496   -0.0000    0.1115   -0.0000    0.0391    0.0000   -0.0018    0.0000   -0.0093    0.0000
y     0.0018   -0.0000    0.0031   -0.0000   -0.0009   -0.0000   -0.0011   -0.0000    0.0005    0.0000
y     0.0003    0.0000   -0.0005    0.0000
z    40.0000    0.0000   -2.7184    0.0000   10.9030    0.0000   -2.1425   -0.0000    1.4004   -0.0000
z    -0.3853    0.0000    0.1183    0.0000    0.0167    0.0000    0.0002    0.0000   -0.0079    0.0000
z     0.0017    0.0000    0.0025    0.0000   -0.0009   -0.0000   -0.0010    0.0000    0.0006   -0.0000
z     0.0003    0.0000   -0.0005    0.0000
 
 pseudopotential strength for first ion, spin component:           1
 -2.731   0.000   0.000   0.000   0.000  -2.953   0.000   0.000
  0.000  -2.645   0.000  -0.000  -0.000   0.000  -2.871   0.000
  0.000   0.000  -2.655   0.000  -0.007   0.000   0.000  -2.880
  0.000  -0.000   0.000  -2.703  -0.000   0.000  -0.000   0.000
  0.000  -0.000  -0.007  -0.000  -2.664   0.000  -0.000  -0.007
 -2.953   0.000   0.000   0.000   0.000  -3.143   0.000   0.000
  0.000  -2.871   0.000  -0.000  -0.000   0.000  -3.065   0.000
  0.000   0.000  -2.880   0.000  -0.007   0.000   0.000  -3.073
  0.000  -0.000   0.000  -2.927  -0.000   0.000  -0.000   0.000
  0.000  -0.000  -0.007  -0.000  -2.890   0.000  -0.000  -0.007
  0.000  -0.000  -0.008   0.000   0.006   0.000  -0.000  -0.008
  0.000  -0.000  -0.014   0.000   0.011   0.000  -0.000  -0.014
  0.000  -0.000   0.000  -0.000   0.000   0.000  -0.000   0.000
 -0.000  -0.000  -0.000   0.000  -0.000  -0.000  -0.000  -0.000
 -0.000  -0.000  -0.000  -0.000   0.000  -0.000  -0.000  -0.000
  0.000  -0.000   0.000  -0.000   0.000   0.000  -0.000   0.000
 -0.000  -0.000  -0.000   0.000  -0.000  -0.000  -0.000  -0.000
 -0.000  -0.000  -0.000  -0.000   0.000  -0.000  -0.000  -0.000
 total augmentation occupancy for first ion, spin component:           1
  2.142   0.000   0.000   0.000   0.000  -1.443   0.000   0.000   0.000   0.000   0.000  -0.000   0.000   0.000   0.000   0.000
  0.000   3.849   0.000   0.000   0.000   0.000  -2.245   0.000   0.000   0.000   0.000   0.000   0.000   0.000   0.000   0.000
  0.000   0.000   3.321   0.000  -0.579  -0.000   0.000  -1.858   0.000   0.379   0.249  -0.052   0.000   0.000   0.000   0.000
  0.000   0.000   0.000   3.236   0.000   0.000  -0.000   0.000  -2.281   0.000   0.000   0.000   0.000   0.000   0.000   0.000
  0.000   0.000  -0.579   0.000   4.402  -0.000   0.000   0.378   0.000  -2.651  -0.389   0.076   0.000   0.000   0.000   0.000
 -1.443   0.000   0.000   0.000   0.000   2.392   0.000  -0.000   0.000  -0.000   0.000  -0.000   0.000   0.000   0.000   0.000
  0.000  -2.245   0.000   0.000   0.000   0.000   2.507   0.000   0.000   0.000   0.000   0.000   0.000   0.000   0.000   0.000
  0.000   0.000  -1.858   0.000   0.378   0.000   0.000   2.216   0.000  -0.235  -0.185   0.015   0.000   0.000   0.000   0.000
  0.000   0.000   0.000  -2.281   0.000   0.000   0.000   0.000   3.017   0.000   0.000   0.000   0.000   0.000   0.000   0.000
  0.000   0.000   0.379   0.000  -2.651  -0.000   0.000  -0.235   0.000   2.785   0.311  -0.049   0.000   0.000   0.000   0.000
 -0.000   0.000   0.249   0.000  -0.389   0.000   0.000  -0.185   0.000   0.311   2.180  -0.354   0.000   0.000   0.000   0.000
 -0.000   0.000  -0.052   0.000   0.076  -0.000   0.000   0.015   0.000  -0.049  -0.354   0.063   0.000   0.000   0.000   0.000
  0.000   0.000   0.000   0.000   0.000   0.000   0.000   0.000   0.000   0.000   0.000   0.000   0.287   0.000   0.000  -0.016
  0.000   0.000   0.000   0.000   0.000   0.000   0.000   0.000   0.000   0.000   0.000   0.000   0.000   0.278   0.000   0.000
  0.000   0.000   0.000   0.000   0.000   0.000   0.000   0.000   0.000   0.000   0.000   0.000   0.000   0.000   0.338   0.000
  0.000   0.000   0.000   0.000   0.000   0.000   0.000   0.000   0.000   0.000   0.000   0.000  -0.016   0.000   0.000   0.001
  0.000   0.000   0.000   0.000   0.000   0.000   0.000   0.000   0.000   0.000   0.000   0.000   0.000  -0.016   0.000   0.000
  0.000   0.000   0.000   0.000   0.000   0.000   0.000   0.000   0.000   0.000   0.000   0.000  -0.000   0.000  -0.019   0.000


------------------------ aborting loop because EDIFF is reached ----------------------------------------


    CHARGE:  cpu time    0.0233: real time    0.0233
    FORLOC:  cpu time    0.0013: real time    0.0013
    FORNL :  cpu time    0.0917: real time    0.0917
    STRESS:  cpu time    0.1579: real time    0.1579
    FORCOR:  cpu time    0.0090: real time    0.0090
    FORHAR:  cpu time    0.0026: real time    0.0026
    MIXING:  cpu time    0.0003: real time    0.0003

  FORCE on cell =-STRESS in cart. coord.  units (eV):
  Direction    XX          YY          ZZ          XY          YZ          ZX
  --------------------------------------------------------------------------------------
  Alpha Z   244.65455   244.65455   244.65455
  Ewald   -1143.04101 -1137.78808 -1143.04101     0.00000     0.00000     0.00000
  Hartree   193.86454   205.11656   197.35580    -0.00000    -0.00000    -0.00000
  E(xc)    -202.48532  -202.35697  -202.45270     0.00000     0.00000    -0.00000
  Local     183.27635   169.79359   182.35151     0.00000     0.00000    -0.00000
  n-local   -32.44026   -30.84402   -33.40016     5.99039     7.63159     6.35702
  augment   261.22052   259.76801   260.83834    -0.00000     0.00000    -0.00000
  Kinetic   491.87668   488.25787   489.77658     1.93197     2.78024     1.42039
  Fock        0.00000     0.00000     0.00000     0.00000     0.00000     0.00000
  -------------------------------------------------------------------------------------
  Total      -3.07396    -3.39849    -3.91708    -0.00000     0.00000     0.00000
  in kB     -85.23605   -94.23479  -108.61442    -0.00000     0.00000     0.00000
  external pressure =      -96.03 kB  Pullay stress =        0.00 kB


 VOLUME and BASIS-vectors are now :
 -----------------------------------------------------------------------------
  energy-cutoff  :      250.00
  volume of cell :       57.78
      direct lattice vectors                 reciprocal lattice vectors
     3.866000000  0.000000000  0.000000000     0.258665287  0.000000000  0.000000000
     0.000000000  3.866000000  0.000000000     0.000000000  0.258665287  0.000000000
     0.000000000  0.000000000  3.866000000     0.000000000  0.000000000  0.258665287

  length of vectors
     3.866000000  3.866000000  3.866000000     0.258665287  0.258665287  0.258665287


 FORCES acting on ions
    electron-ion (+dipol)            ewald-force                    non-local-force                 convergence-correction
 -----------------------------------------------------------------------------------------------
   -.230E-13 0.129E-13 0.420E-14   0.892E-14 -.838E-14 -.466E-14   0.138E-24 0.180E-25 0.302E-25   -.152E-13 0.790E-14 0.131E-13
   0.112E-13 0.407E-13 0.357E-14   0.112E-14 0.145E-13 -.285E-14   -.196E-23 0.126E-23 -.528E-24   -.119E-13 0.209E-14 -.161E-14
   0.339E-13 0.116E-13 0.703E-13   -.749E-14 -.139E-13 0.598E-14   -.436E-23 0.408E-24 -.658E-24   -.279E-13 -.315E-16 0.192E-13
   -.642E-13 0.311E-12 0.313E-12   -.120E-14 0.656E-14 0.190E-14   -.476E-24 -.617E-25 -.207E-24   -.580E-13 -.960E-14 0.502E-13
 -----------------------------------------------------------------------------------------------
   -.421E-13 0.376E-12 0.391E-12   0.135E-14 -.120E-14 0.371E-15   -.666E-23 0.163E-23 -.136E-23   -.113E-12 0.365E-15 0.809E-13
 
 
 POSITION                                       TOTAL-FORCE (eV/Angst)
 -----------------------------------------------------------------------------------
      0.00000      0.00000      0.00000         0.000000      0.000000     -0.000000
      1.93300      1.93300      0.00000         0.000000      0.000000     -0.000000
      1.93300      0.00000      1.93300         0.000000      0.000000     -0.000000
      0.00000      1.93300      1.93300        -0.000000     -0.000000      0.000000
 -----------------------------------------------------------------------------------
    total drift:                               -0.000000      0.000000      0.000000


--------------------------------------------------------------------------------------------------------



  FREE ENERGIE OF THE ION-ELECTRON SYSTEM (eV)
  ---------------------------------------------------
  free  energy   TOTEN  =       -23.41129109 eV

  energy  without entropy=      -23.40495496  energy(sigma->0) =      -23.40917904
 


--------------------------------------------------------------------------------------------------------


    POTLOK:  cpu time    0.0117: real time    0.0117


--------------------------------------------------------------------------------------------------------


 writing wavefunctions
     LOOP+:  cpu time    2.6493: real time    2.6701
    4ORBIT:  cpu time    0.0000: real time    0.0000

 total amount of memory used by VASP MPI-rank0    48667. kBytes
=======================================================================

   base      :      30000. kBytes
   nonl-proj :       8214. kBytes
   grid      :       2641. kBytes
   one-center:         62. kBytes
   wavefun   :       7750. kBytes
 
  
  
 General timing and accounting informations for this job:
 ========================================================
  
                  Total CPU time used (sec):        2.865
                            User time (sec):        2.813
                          System time (sec):        0.052
                         Elapsed time (sec):        2.875
  
                   Maximum memory used (kb):       57180.
                   Average memory used (kb):          N/A
  
                          Minor page faults:         7756
                          Major page faults:            0
                 Voluntary context switches:           27
