 vasp.6.2.0 18Jan21 (build Mar 17 2021 09:06:54) complex                        
  
 POSCAR found type information on POSCAR PdIrPtCu
 POSCAR found :  4 types and       4 ions
 LDA part: xc-table for Pade appr. of Perdew
 found WAVECAR, reading the header
 POSCAR, INCAR and KPOINTS ok, starting setup
 FFT: planning ...
 reading WAVECAR
 the WAVECAR file was read successfully
 charge-density read from file: unknown                                 
 entering main loop
       N       E                     dE             d eps       ncg     rms          rms(c)
DAV:   1    -0.234385721203E+02   -0.23439E+02   -0.58438E-03  2170   0.776E-01    0.130E-01
DAV:   2    -0.234119582959E+02    0.26614E-01   -0.91837E-03  2122   0.122E+00    0.222E-01
DAV:   3    -0.234112994074E+02    0.65889E-03   -0.12943E-03  2226   0.897E-01    0.484E-02
DAV:   4    -0.234112968883E+02    0.25191E-05   -0.85139E-05  2394   0.150E-01    0.404E-02
DAV:   5    -0.234112909975E+02    0.58908E-05   -0.12805E-05  2120   0.982E-02    0.292E-02
DAV:   6    -0.234112910881E+02   -0.90659E-07   -0.11271E-06  1002   0.169E-02
   1 F= -.23411291E+02 E0= -.23409179E+02  d E =-.633613E-02
 writing wavefunctions
