   2   2   0   0
  0.1051642E+02  0.2423200E-09  0.2423200E-09  0.4136080E-09  0.5000000E-15
  1.000000000000000E-004
  CAR 
 unknown system                          
     71.16478054     -5.67053736  301      6.52110359      1.00000000
     -5.671  0.0000E+00  0.0000E+00
     -5.414  0.0000E+00  0.0000E+00
     -5.158  0.0000E+00  0.0000E+00
     -4.902  0.0000E+00  0.0000E+00
     -4.646  0.0000E+00  0.0000E+00
     -4.390  0.0000E+00  0.0000E+00
     -4.134  0.0000E+00  0.0000E+00
     -3.878 -0.6062E-33 -0.1552E-33
     -3.622 -0.2843E-24 -0.7281E-25
     -3.365 -0.4890E-17 -0.1252E-17
     -3.109 -0.2933E-11 -0.7512E-12
     -2.853 -0.6457E-07 -0.1654E-07
     -2.597 -0.4755E-04 -0.1220E-04
     -2.341 -0.4379E-03 -0.1243E-03
     -2.085  0.8407E-02  0.2029E-02
     -1.829  0.5986E-01  0.1736E-01
     -1.573  0.9820E-01  0.4251E-01
     -1.317  0.6558E-01  0.5931E-01
     -1.060  0.1633E+00  0.1011E+00
     -0.804  0.1804E+00  0.1473E+00
     -0.548  0.1833E+00  0.1943E+00
     -0.292  0.8518E-01  0.2161E+00
     -0.036  0.2935E+00  0.2913E+00
      0.220  0.2832E+00  0.3638E+00
      0.476  0.2978E+00  0.4401E+00
      0.732  0.2928E+00  0.5151E+00
      0.989  0.2033E+00  0.5671E+00
      1.245  0.5535E+00  0.7089E+00
      1.501  0.6453E+00  0.8741E+00
      1.757  0.7830E+00  0.1075E+01
      2.013  0.1493E+01  0.1457E+01
      2.269  0.2006E+01  0.1971E+01
      2.525  0.2706E+01  0.2664E+01
      2.781  0.2318E+01  0.3258E+01
      3.037  0.3129E+01  0.4059E+01
      3.294  0.2236E+01  0.4632E+01
      3.550  0.3262E+01  0.5467E+01
      3.806  0.3373E+01  0.6331E+01
      4.062  0.3171E+01  0.7143E+01
      4.318  0.2239E+01  0.7717E+01
      4.574  0.2989E+01  0.8482E+01
      4.830  0.4306E+01  0.9585E+01
      5.086  0.4211E+01  0.1066E+02
      5.343  0.4414E+01  0.1179E+02
      5.599  0.4465E+01  0.1294E+02
      5.855  0.3691E+01  0.1388E+02
      6.111  0.3022E+01  0.1466E+02
      6.367  0.3330E+01  0.1551E+02
      6.623  0.2907E+01  0.1625E+02
      6.879  0.2788E+01  0.1697E+02
      7.135  0.5042E+01  0.1826E+02
      7.391  0.5705E+01  0.1972E+02
      7.648  0.4848E+01  0.2096E+02
      7.904  0.1084E+01  0.2124E+02
      8.160  0.7936E-01  0.2126E+02
      8.416  0.8275E+00  0.2147E+02
      8.672  0.1056E+01  0.2174E+02
      8.928  0.5236E+00  0.2188E+02
      9.184  0.4575E+00  0.2199E+02
      9.440  0.6462E+00  0.2216E+02
      9.697  0.3805E+00  0.2226E+02
      9.953  0.2134E+00  0.2231E+02
     10.209  0.8501E+00  0.2253E+02
     10.465  0.7034E+00  0.2271E+02
     10.721  0.3980E+00  0.2281E+02
     10.977  0.2662E+00  0.2288E+02
     11.233  0.4487E+00  0.2299E+02
     11.489  0.4803E+00  0.2312E+02
     11.745  0.4964E+00  0.2324E+02
     12.002  0.2563E+00  0.2331E+02
     12.258  0.3140E+00  0.2339E+02
     12.514  0.3326E+00  0.2348E+02
     12.770  0.4316E+00  0.2359E+02
     13.026  0.5297E+00  0.2372E+02
     13.282  0.4956E+00  0.2385E+02
     13.538  0.9590E-01  0.2387E+02
     13.794  0.8023E-01  0.2389E+02
     14.051  0.2354E+00  0.2395E+02
     14.307  0.2063E+00  0.2401E+02
     14.563  0.2325E+00  0.2407E+02
     14.819  0.1948E+00  0.2412E+02
     15.075  0.2515E+00  0.2418E+02
     15.331  0.2872E+00  0.2425E+02
     15.587  0.3938E+00  0.2436E+02
     15.843  0.9491E+00  0.2460E+02
     16.099  0.9691E+00  0.2485E+02
     16.356  0.6656E+00  0.2502E+02
     16.612  0.7818E+00  0.2522E+02
     16.868  0.3189E+00  0.2530E+02
     17.124  0.6626E+00  0.2547E+02
     17.380  0.7929E+00  0.2567E+02
     17.636  0.8512E+00  0.2589E+02
     17.892  0.7985E+00  0.2609E+02
     18.148  0.5972E+00  0.2625E+02
     18.405  0.6107E+00  0.2640E+02
     18.661  0.8669E+00  0.2663E+02
     18.917  0.8426E+00  0.2684E+02
     19.173  0.5489E+00  0.2698E+02
     19.429  0.8056E+00  0.2719E+02
     19.685  0.5489E+00  0.2733E+02
     19.941  0.6970E+00  0.2751E+02
     20.197  0.6072E+00  0.2766E+02
     20.453  0.3244E+00  0.2775E+02
     20.710  0.6503E+00  0.2791E+02
     20.966  0.5482E+00  0.2805E+02
     21.222  0.5525E+00  0.2819E+02
     21.478  0.9009E+00  0.2843E+02
     21.734  0.4560E+00  0.2854E+02
     21.990  0.6704E+00  0.2871E+02
     22.246  0.9550E+00  0.2896E+02
     22.502  0.8344E+00  0.2917E+02
     22.759  0.8248E+00  0.2938E+02
     23.015  0.9637E+00  0.2963E+02
     23.271  0.8248E+00  0.2984E+02
     23.527  0.8392E+00  0.3006E+02
     23.783  0.8114E+00  0.3026E+02
     24.039  0.1188E+01  0.3057E+02
     24.295  0.4500E+00  0.3068E+02
     24.551  0.8023E+00  0.3089E+02
     24.807  0.1116E+01  0.3118E+02
     25.064  0.1491E+01  0.3156E+02
     25.320  0.7949E+00  0.3176E+02
     25.576  0.6906E+00  0.3194E+02
     25.832  0.6163E+00  0.3210E+02
     26.088  0.7258E+00  0.3228E+02
     26.344  0.1389E+01  0.3264E+02
     26.600  0.9982E+00  0.3289E+02
     26.856  0.7713E+00  0.3309E+02
     27.113  0.8397E+00  0.3331E+02
     27.369  0.8297E+00  0.3352E+02
     27.625  0.8799E+00  0.3374E+02
     27.881  0.9589E+00  0.3399E+02
     28.137  0.7009E+00  0.3417E+02
     28.393  0.6633E+00  0.3434E+02
     28.649  0.6068E+00  0.3449E+02
     28.905  0.1008E+01  0.3475E+02
     29.161  0.6523E+00  0.3492E+02
     29.418  0.7626E+00  0.3511E+02
     29.674  0.6398E+00  0.3528E+02
     29.930  0.8283E+00  0.3549E+02
     30.186  0.8469E+00  0.3571E+02
     30.442  0.6613E+00  0.3588E+02
     30.698  0.6220E+00  0.3604E+02
     30.954  0.7629E+00  0.3623E+02
     31.210  0.1023E+01  0.3649E+02
     31.467  0.1065E+01  0.3677E+02
     31.723  0.6074E+00  0.3692E+02
     31.979  0.8880E+00  0.3715E+02
     32.235  0.7792E+00  0.3735E+02
     32.491  0.7886E+00  0.3755E+02
     32.747  0.1062E+01  0.3782E+02
     33.003  0.9064E+00  0.3806E+02
     33.259  0.8326E+00  0.3827E+02
     33.515  0.1013E+01  0.3853E+02
     33.772  0.9398E+00  0.3877E+02
     34.028  0.8348E+00  0.3898E+02
     34.284  0.7403E+00  0.3917E+02
     34.540  0.1123E+01  0.3946E+02
     34.796  0.1367E+01  0.3981E+02
     35.052  0.1038E+01  0.4008E+02
     35.308  0.7686E+00  0.4027E+02
     35.564  0.6419E+00  0.4044E+02
     35.821  0.5898E+00  0.4059E+02
     36.077  0.9669E+00  0.4084E+02
     36.333  0.7167E+00  0.4102E+02
     36.589  0.8288E+00  0.4123E+02
     36.845  0.7005E+00  0.4141E+02
     37.101  0.1030E+01  0.4167E+02
     37.357  0.8726E+00  0.4190E+02
     37.613  0.9041E+00  0.4213E+02
     37.869  0.1135E+01  0.4242E+02
     38.126  0.9721E+00  0.4267E+02
     38.382  0.7124E+00  0.4285E+02
     38.638  0.1062E+01  0.4312E+02
     38.894  0.9824E+00  0.4338E+02
     39.150  0.8666E+00  0.4360E+02
     39.406  0.8829E+00  0.4382E+02
     39.662  0.5358E+00  0.4396E+02
     39.918  0.7455E+00  0.4415E+02
     40.175  0.9564E+00  0.4440E+02
     40.431  0.1012E+01  0.4466E+02
     40.687  0.1041E+01  0.4492E+02
     40.943  0.1446E+01  0.4529E+02
     41.199  0.1106E+01  0.4558E+02
     41.455  0.6461E+00  0.4574E+02
     41.711  0.1294E+01  0.4607E+02
     41.967  0.9508E+00  0.4632E+02
     42.223  0.8266E+00  0.4653E+02
     42.480  0.1264E+01  0.4685E+02
     42.736  0.1534E+01  0.4724E+02
     42.992  0.9407E+00  0.4749E+02
     43.248  0.7999E+00  0.4769E+02
     43.504  0.1734E+01  0.4813E+02
     43.760  0.9126E+00  0.4837E+02
     44.016  0.7416E+00  0.4856E+02
     44.272  0.9551E+00  0.4880E+02
     44.529  0.9236E+00  0.4904E+02
     44.785  0.4876E+00  0.4916E+02
     45.041  0.6771E+00  0.4934E+02
     45.297  0.1245E+01  0.4966E+02
     45.553  0.6543E+00  0.4982E+02
     45.809  0.4806E+00  0.4995E+02
     46.065  0.1250E+01  0.5027E+02
     46.321  0.1564E+01  0.5067E+02
     46.577  0.8279E+00  0.5088E+02
     46.834  0.9604E+00  0.5113E+02
     47.090  0.1116E+01  0.5141E+02
     47.346  0.1397E+01  0.5177E+02
     47.602  0.1468E+01  0.5215E+02
     47.858  0.9933E+00  0.5240E+02
     48.114  0.7083E+00  0.5258E+02
     48.370  0.7475E+00  0.5277E+02
     48.626  0.9975E+00  0.5303E+02
     48.883  0.1532E+01  0.5342E+02
     49.139  0.1098E+01  0.5370E+02
     49.395  0.1157E+01  0.5400E+02
     49.651  0.1152E+01  0.5429E+02
     49.907  0.1197E+01  0.5460E+02
     50.163  0.1140E+01  0.5489E+02
     50.419  0.1061E+01  0.5516E+02
     50.675  0.1214E+01  0.5547E+02
     50.931  0.1389E+01  0.5583E+02
     51.188  0.1051E+01  0.5610E+02
     51.444  0.1071E+01  0.5637E+02
     51.700  0.1022E+01  0.5664E+02
     51.956  0.1367E+01  0.5699E+02
     52.212  0.1194E+01  0.5729E+02
     52.468  0.7990E+00  0.5750E+02
     52.724  0.1144E+01  0.5779E+02
     52.980  0.1170E+01  0.5809E+02
     53.237  0.1683E+01  0.5852E+02
     53.493  0.1393E+01  0.5888E+02
     53.749  0.8762E+00  0.5910E+02
     54.005  0.1063E+01  0.5937E+02
     54.261  0.1365E+01  0.5972E+02
     54.517  0.1371E+01  0.6007E+02
     54.773  0.1471E+01  0.6045E+02
     55.029  0.1564E+01  0.6085E+02
     55.285  0.1920E+01  0.6134E+02
     55.542  0.1402E+01  0.6170E+02
     55.798  0.1386E+01  0.6206E+02
     56.054  0.1185E+01  0.6236E+02
     56.310  0.1322E+01  0.6270E+02
     56.566  0.1096E+01  0.6298E+02
     56.822  0.1746E+01  0.6343E+02
     57.078  0.1987E+01  0.6394E+02
     57.334  0.1406E+01  0.6430E+02
     57.591  0.1490E+01  0.6468E+02
     57.847  0.1670E+01  0.6511E+02
     58.103  0.1980E+01  0.6561E+02
     58.359  0.1897E+01  0.6610E+02
     58.615  0.1737E+01  0.6654E+02
     58.871  0.1268E+01  0.6687E+02
     59.127  0.1599E+01  0.6728E+02
     59.383  0.1394E+01  0.6763E+02
     59.639  0.1151E+01  0.6793E+02
     59.896  0.9104E+00  0.6816E+02
     60.152  0.1581E+01  0.6857E+02
     60.408  0.1278E+01  0.6889E+02
     60.664  0.1921E+01  0.6939E+02
     60.920  0.1758E+01  0.6984E+02
     61.176  0.1660E+01  0.7026E+02
     61.432  0.1272E+01  0.7059E+02
     61.688  0.1974E+01  0.7109E+02
     61.945  0.1615E+01  0.7151E+02
     62.201  0.1764E+01  0.7196E+02
     62.457  0.1809E+01  0.7242E+02
     62.713  0.1792E+01  0.7288E+02
     62.969  0.1413E+01  0.7324E+02
     63.225  0.1689E+01  0.7368E+02
     63.481  0.2295E+01  0.7426E+02
     63.737  0.2311E+01  0.7485E+02
     63.993  0.1730E+01  0.7530E+02
     64.250  0.1745E+01  0.7574E+02
     64.506  0.1843E+01  0.7622E+02
     64.762  0.2103E+01  0.7676E+02
     65.018  0.2287E+01  0.7734E+02
     65.274  0.1970E+01  0.7785E+02
     65.530  0.1791E+01  0.7830E+02
     65.786  0.1488E+01  0.7869E+02
     66.042  0.1365E+01  0.7904E+02
     66.299  0.1554E+01  0.7943E+02
     66.555  0.9771E+00  0.7968E+02
     66.811  0.8372E+00  0.7990E+02
     67.067  0.2346E+00  0.7996E+02
     67.323  0.8046E-01  0.7998E+02
     67.579  0.2590E-01  0.7999E+02
     67.835  0.5787E-01  0.8000E+02
     68.091  0.8371E-03  0.8000E+02
     68.347 -0.4077E-03  0.8000E+02
     68.604 -0.6887E-06  0.8000E+02
     68.860 -0.3376E-10  0.8000E+02
     69.116 -0.6253E-16  0.8000E+02
     69.372  0.0000E+00  0.8000E+02
     69.628  0.0000E+00  0.8000E+02
     69.884  0.0000E+00  0.8000E+02
     70.140  0.0000E+00  0.8000E+02
     70.396  0.0000E+00  0.8000E+02
     70.653  0.0000E+00  0.8000E+02
     70.909  0.0000E+00  0.8000E+02
     71.165  0.0000E+00  0.8000E+02
