    2    2    1    1
  0.1051642E+02  0.2423200E-09  0.2423200E-09  0.4136080E-09  0.5000000E-15
  1.000000000000000E-004
  CAR 
 unknown system                          
     16     96     40
 
  0.0000000E+00  0.0000000E+00  0.0000000E+00  0.7513148E-03
    1       -2.178023   1.000000
    2        1.746340   1.000000
    3        4.627011   1.000000
    4        5.024261   1.000000
    5        5.024429   1.000000
    6        5.355873   1.000000
    7        5.356050   1.000000
    8        6.089657   1.004656
    9        6.089698   1.004660
   10        6.194950   1.021649
   11        7.226821  -0.000004
   12        7.226865  -0.000004
   13       13.937423   0.000000
   14       29.239528   0.000000
   15       30.624953   0.000000
   16       32.319398   0.000000
   17       33.785715   0.000000
   18       33.785776   0.000000
   19       34.659494   0.000000
   20       34.659737   0.000000
   21       37.035508   0.000000
   22       37.971049   0.000000
   23       37.971082   0.000000
   24       39.047038   0.000000
   25       41.473008   0.000000
   26       41.473023   0.000000
   27       42.429364   0.000000
   28       44.777515   0.000000
   29       44.777912   0.000000
   30       46.511064   0.000000
   31       46.511233   0.000000
   32       49.354032   0.000000
   33       57.532007   0.000000
   34       60.822066   0.000000
   35       60.823474   0.000000
   36       61.449558   0.000000
   37       62.243123   0.000000
   38       62.841619   0.000000
   39       62.842725   0.000000
   40       63.705874   0.000000
 
  0.9090909E-01  0.6074820E-18  0.0000000E+00  0.4507889E-02
    1       -1.863331   1.000000
    2        1.970866   1.000000
    3        4.556338   1.000000
    4        5.043099   1.000000
    5        5.202247   1.000000
    6        5.241445   1.000000
    7        5.260426   1.000000
    8        5.518174   1.000000
    9        5.983384   1.000479
   10        5.988272   1.000539
   11        7.266523  -0.000001
   12        8.429076  -0.000000
   13       13.963571   0.000000
   14       27.828095   0.000000
   15       30.377184   0.000000
   16       30.885195   0.000000
   17       31.152937   0.000000
   18       33.839491   0.000000
   19       34.171006   0.000000
   20       36.783912   0.000000
   21       37.407550   0.000000
   22       37.505611   0.000000
   23       38.274459   0.000000
   24       38.455627   0.000000
   25       42.245667   0.000000
   26       42.475377   0.000000
   27       42.618488   0.000000
   28       43.043712   0.000000
   29       46.447585   0.000000
   30       47.979594   0.000000
   31       49.001012   0.000000
   32       51.264413   0.000000
   33       57.063291   0.000000
   34       59.554277   0.000000
   35       59.695044   0.000000
   36       60.074455   0.000000
   37       61.004250   0.000000
   38       63.661991   0.000000
   39       63.940279   0.000000
   40       64.773484   0.000000
 
  0.1818182E+00 -0.6612108E-17  0.0000000E+00  0.4507889E-02
    1       -0.968133   1.000000
    2        2.504435   1.000000
    3        4.173950   1.000000
    4        4.276674   1.000000
    5        4.908603   1.000000
    6        5.450016   1.000000
    7        5.696313   1.000000
    8        5.706403   1.000000
    9        5.731546   1.000000
   10        5.967488   1.000322
   11        7.333296  -0.000000
   12       10.242189  -0.000000
   13       14.066411   0.000000
   14       24.046478   0.000000
   15       28.427908   0.000000
   16       29.209240   0.000000
   17       29.941295   0.000000
   18       31.561072   0.000000
   19       34.410099   0.000000
   20       35.966308   0.000000
   21       36.437391   0.000000
   22       36.563249   0.000000
   23       38.717791   0.000000
   24       39.941757   0.000000
   25       41.945701   0.000000
   26       43.384114   0.000000
   27       45.149208   0.000000
   28       47.355443   0.000000
   29       49.026047   0.000000
   30       51.736505   0.000000
   31       51.956496   0.000000
   32       54.819936   0.000000
   33       55.645549   0.000000
   34       56.492484   0.000000
   35       57.815230   0.000000
   36       59.689369   0.000000
   37       60.530067   0.000000
   38       63.383061   0.000000
   39       65.192976   0.000000
   40       66.382822   0.000000
 
  0.2727273E+00  0.2175095E-16  0.0000000E+00  0.4507889E-02
    1        0.324534   1.000000
    2        2.801289   1.000000
    3        3.360216   1.000000
    4        4.158864   1.000000
    5        4.756985   1.000000
    6        5.347801   1.000000
    7        5.444504   1.000000
    8        6.128193   1.008950
    9        6.397070   0.928859
   10        6.594946   0.209903
   11        7.380295  -0.000000
   12       12.273125   0.000000
   13       14.283026   0.000000
   14       20.151168   0.000000
   15       26.102423   0.000000
   16       26.389059   0.000000
   17       27.642279   0.000000
   18       31.069370   0.000000
   19       32.423589   0.000000
   20       35.916420   0.000000
   21       36.429199   0.000000
   22       36.684010   0.000000
   23       36.733242   0.000000
   24       40.636456   0.000000
   25       45.469479   0.000000
   26       47.363082   0.000000
   27       48.492249   0.000000
   28       50.062062   0.000000
   29       51.428670   0.000000
   30       52.389627   0.000000
   31       53.761546   0.000000
   32       54.794792   0.000000
   33       57.309642   0.000000
   34       57.962715   0.000000
   35       58.086200   0.000000
   36       59.027209   0.000000
   37       61.698502   0.000000
   38       63.024038   0.000000
   39       65.082825   0.000000
   40       65.778633   0.000000
 
  0.3636364E+00 -0.2514801E-16  0.0000000E+00  0.4507889E-02
    1        1.554669   1.000000
    2        2.586310   1.000000
    3        2.821831   1.000000
    4        4.328369   1.000000
    5        5.028993   1.000000
    6        5.044955   1.000000
    7        5.206026   1.000000
    8        7.097731  -0.000177
    9        7.221863  -0.000004
   10        7.224973  -0.000004
   11        7.401346  -0.000000
   12       14.063509   0.000000
   13       14.448478   0.000000
   14       17.475316   0.000000
   15       23.218717   0.000000
   16       24.328940   0.000000
   17       24.926347   0.000000
   18       30.085445   0.000000
   19       31.279864   0.000000
   20       34.503114   0.000000
   21       35.500595   0.000000
   22       37.563850   0.000000
   23       38.762647   0.000000
   24       41.214854   0.000000
   25       48.706231   0.000000
   26       49.142947   0.000000
   27       49.176601   0.000000
   28       52.472380   0.000000
   29       52.608457   0.000000
   30       53.728419   0.000000
   31       55.824027   0.000000
   32       56.402542   0.000000
   33       57.186667   0.000000
   34       58.631763   0.000000
   35       60.420384   0.000000
   36       62.265860   0.000000
   37       62.536802   0.000000
   38       63.698811   0.000000
   39       64.816617   0.000000
   40       65.331637   0.000000
 
  0.4545455E+00 -0.3743577E-16  0.0000000E+00  0.4507889E-02
    1        2.138687   1.000000
    2        2.348035   1.000000
    3        2.555746   1.000000
    4        4.775879   1.000000
    5        4.842143   1.000000
    6        5.073106   1.000000
    7        5.271490   1.000000
    8        7.406668  -0.000000
    9        7.523800  -0.000000
   10        7.654285  -0.000000
   11        8.761118  -0.000000
   12       12.045035   0.000000
   13       16.512036   0.000000
   14       17.662686   0.000000
   15       20.675764   0.000000
   16       22.353422   0.000000
   17       23.342058   0.000000
   18       29.460946   0.000000
   19       30.927243   0.000000
   20       33.443074   0.000000
   21       35.304393   0.000000
   22       38.238441   0.000000
   23       40.953284   0.000000
   24       41.532787   0.000000
   25       45.362629   0.000000
   26       49.676306   0.000000
   27       51.263623   0.000000
   28       54.754497   0.000000
   29       55.527996   0.000000
   30       56.028823   0.000000
   31       56.781538   0.000000
   32       58.596931   0.000000
   33       58.884931   0.000000
   34       60.430497   0.000000
   35       60.495609   0.000000
   36       61.045498   0.000000
   37       63.575519   0.000000
   38       63.812425   0.000000
   39       64.181844   0.000000
   40       64.782987   0.000000
 
  0.9090909E-01  0.9090909E-01  0.0000000E+00  0.4507889E-02
    1       -1.256316   1.000000
    2        2.364522   1.000000
    3        4.330340   1.000000
    4        4.453248   1.000000
    5        5.071589   1.000000
    6        5.186805   1.000000
    7        5.562310   1.000000
    8        5.619630   1.000000
    9        5.867896   1.000020
   10        5.979703   1.000437
   11        7.292029  -0.000000
   12        9.738193  -0.000000
   13       14.030921   0.000000
   14       25.777729   0.000000
   15       26.891243   0.000000
   16       31.103116   0.000000
   17       31.504109   0.000000
   18       32.399650   0.000000
   19       32.903693   0.000000
   20       34.890336   0.000000
   21       36.190108   0.000000
   22       39.201149   0.000000
   23       40.083729   0.000000
   24       40.521654   0.000000
   25       41.451729   0.000000
   26       41.546746   0.000000
   27       41.613899   0.000000
   28       47.836944   0.000000
   29       49.897460   0.000000
   30       49.901952   0.000000
   31       49.954330   0.000000
   32       54.156128   0.000000
   33       56.231126   0.000000
   34       57.446619   0.000000
   35       57.936321   0.000000
   36       59.611264   0.000000
   37       60.301390   0.000000
   38       63.848913   0.000000
   39       65.182731   0.000000
   40       66.172014   0.000000
 
  0.1818182E+00  0.9090909E-01  0.0000000E+00  0.9015778E-02
    1       -0.142828   1.000000
    2        2.878407   1.000000
    3        3.654799   1.000000
    4        3.997417   1.000000
    5        4.834178   1.000000
    6        5.247956   1.000000
    7        5.583096   1.000000
    8        5.759070   1.000000
    9        6.207497   1.024546
   10        6.516176   0.520844
   11        7.314752  -0.000000
   12       11.555630  -0.000000
   13       14.233367   0.000000
   14       22.130150   0.000000
   15       24.606863   0.000000
   16       28.160197   0.000000
   17       30.326203   0.000000
   18       30.396089   0.000000
   19       33.375096   0.000000
   20       34.677512   0.000000
   21       34.730971   0.000000
   22       39.363920   0.000000
   23       39.515254   0.000000
   24       39.915339   0.000000
   25       43.165039   0.000000
   26       44.294645   0.000000
   27       45.872105   0.000000
   28       50.154482   0.000000
   29       52.233421   0.000000
   30       52.857655   0.000000
   31       53.479317   0.000000
   32       55.367675   0.000000
   33       56.124631   0.000000
   34       56.555959   0.000000
   35       57.712647   0.000000
   36       57.888530   0.000000
   37       60.999582   0.000000
   38       64.053465   0.000000
   39       65.264940   0.000000
   40       66.338555   0.000000
 
  0.2727273E+00  0.9090909E-01  0.0000000E+00  0.9015778E-02
    1        1.191634   1.000000
    2        2.875403   1.000000
    3        3.056791   1.000000
    4        4.017844   1.000000
    5        4.886723   1.000000
    6        4.961867   1.000000
    7        5.427208   1.000000
    8        6.256057   1.034106
    9        6.917268  -0.008502
   10        7.325607  -0.000000
   11        7.363428  -0.000000
   12       13.629290   0.000000
   13       14.525595   0.000000
   14       18.581529   0.000000
   15       22.953722   0.000000
   16       24.882749   0.000000
   17       27.126567   0.000000
   18       29.169441   0.000000
   19       32.611881   0.000000
   20       33.576567   0.000000
   21       35.977255   0.000000
   22       39.223000   0.000000
   23       39.267491   0.000000
   24       41.573857   0.000000
   25       45.075333   0.000000
   26       47.959007   0.000000
   27       49.691469   0.000000
   28       50.700275   0.000000
   29       50.956573   0.000000
   30       53.960849   0.000000
   31       55.740835   0.000000
   32       56.078752   0.000000
   33       57.023231   0.000000
   34       57.916619   0.000000
   35       59.745680   0.000000
   36       61.667665   0.000000
   37       62.122423   0.000000
   38       63.765660   0.000000
   39       64.326086   0.000000
   40       66.237222   0.000000
 
  0.3636364E+00  0.9090909E-01  0.0000000E+00  0.9015778E-02
    1        2.128047   1.000000
    2        2.594069   1.000000
    3        2.697977   1.000000
    4        4.359503   1.000000
    5        4.816587   1.000000
    6        5.115366   1.000000
    7        5.197875   1.000000
    8        7.053148  -0.000549
    9        7.325908  -0.000000
   10        7.420580  -0.000000
   11        8.475200  -0.000000
   12       13.451462   0.000000
   13       15.819848   0.000000
   14       17.410475   0.000000
   15       21.703342   0.000000
   16       21.978458   0.000000
   17       24.005941   0.000000
   18       28.301128   0.000000
   19       31.658540   0.000000
   20       33.037673   0.000000
   21       36.676928   0.000000
   22       39.688537   0.000000
   23       40.699681   0.000000
   24       41.693015   0.000000
   25       47.275159   0.000000
   26       47.875215   0.000000
   27       50.144666   0.000000
   28       51.756450   0.000000
   29       53.054149   0.000000
   30       55.751096   0.000000
   31       55.756850   0.000000
   32       57.610817   0.000000
   33       58.937294   0.000000
   34       60.682039   0.000000
   35       61.077152   0.000000
   36       62.233084   0.000000
   37       62.975579   0.000000
   38       63.773042   0.000000
   39       65.122003   0.000000
   40       65.136554   0.000000
 
  0.4545455E+00  0.9090909E-01  0.0000000E+00  0.4507889E-02
    1        2.376826   1.000000
    2        2.456080   1.000000
    3        2.579307   1.000000
    4        4.672877   1.000000
    5        4.802629   1.000000
    6        4.961440   1.000000
    7        5.316313   1.000000
    8        7.323518  -0.000000
    9        7.499812  -0.000000
   10        7.510398  -0.000000
   11        9.650213  -0.000000
   12       11.693711  -0.000000
   13       17.307303   0.000000
   14       18.110692   0.000000
   15       20.258749   0.000000
   16       20.984867   0.000000
   17       22.532022   0.000000
   18       27.999114   0.000000
   19       31.274442   0.000000
   20       32.867445   0.000000
   21       36.750968   0.000000
   22       40.340278   0.000000
   23       40.969440   0.000000
   24       42.619599   0.000000
   25       44.905602   0.000000
   26       49.780813   0.000000
   27       50.039302   0.000000
   28       53.150331   0.000000
   29       54.474188   0.000000
   30       54.926873   0.000000
   31       57.938609   0.000000
   32       58.817559   0.000000
   33       59.144705   0.000000
   34       59.346428   0.000000
   35       60.837620   0.000000
   36       63.098429   0.000000
   37       64.381556   0.000000
   38       64.480115   0.000000
   39       64.891285   0.000000
   40       66.098378   0.000000
 
  0.1818182E+00  0.1818182E+00  0.0000000E+00  0.4507889E-02
    1        1.070624   1.000000
    2        3.194804   1.000000
    3        3.281841   1.000000
    4        3.581025   1.000000
    5        4.855761   1.000000
    6        4.884664   1.000000
    7        5.573182   1.000000
    8        5.816437   1.000004
    9        6.898089  -0.011387
   10        7.247497  -0.000002
   11        7.416227  -0.000000
   12       13.364964   0.000000
   13       14.678104   0.000000
   14       20.228729   0.000000
   15       20.911528   0.000000
   16       26.398516   0.000000
   17       27.646337   0.000000
   18       29.343025   0.000000
   19       30.090492   0.000000
   20       35.828010   0.000000
   21       36.435568   0.000000
   22       39.764920   0.000000
   23       40.411698   0.000000
   24       42.839097   0.000000
   25       43.358463   0.000000
   26       45.311883   0.000000
   27       46.846510   0.000000
   28       51.803781   0.000000
   29       52.232567   0.000000
   30       53.886263   0.000000
   31       54.268302   0.000000
   32       56.781400   0.000000
   33       56.816775   0.000000
   34       59.122449   0.000000
   35       59.557682   0.000000
   36       60.448526   0.000000
   37       60.512541   0.000000
   38       64.563448   0.000000
   39       64.646860   0.000000
   40       67.121388   0.000000
 
  0.2727273E+00  0.1818182E+00  0.0000000E+00  0.9015778E-02
    1        2.269705   1.000000
    2        2.887054   1.000000
    3        3.079927   1.000000
    4        3.705907   1.000000
    5        4.643204   1.000000
    6        5.135639   1.000000
    7        5.228940   1.000000
    8        6.315781   1.027673
    9        7.185913  -0.000014
   10        7.381560  -0.000000
   11        8.577318  -0.000000
   12       15.015961   0.000000
   13       15.475647   0.000000
   14       17.541148   0.000000
   15       19.396896   0.000000
   16       23.804436   0.000000
   17       26.017301   0.000000
   18       26.121755   0.000000
   19       28.765679   0.000000
   20       36.851037   0.000000
   21       37.761503   0.000000
   22       40.513951   0.000000
   23       42.535871   0.000000
   24       43.005866   0.000000
   25       44.934352   0.000000
   26       46.629574   0.000000
   27       48.107467   0.000000
   28       49.871578   0.000000
   29       52.985718   0.000000
   30       53.143574   0.000000
   31       55.044269   0.000000
   32       57.589501   0.000000
   33       59.104366   0.000000
   34       60.086695   0.000000
   35       62.165852   0.000000
   36       62.505183   0.000000
   37       63.352241   0.000000
   38       64.735660   0.000000
   39       65.279496   0.000000
   40       66.441040   0.000000
 
  0.3636364E+00  0.1818182E+00  0.0000000E+00  0.9015778E-02
    1        2.739501   1.000000
    2        2.779228   1.000000
    3        2.860348   1.000000
    4        4.117527   1.000000
    5        4.655624   1.000000
    6        4.878647   1.000000
    7        5.379469   1.000000
    8        6.929517  -0.006962
    9        7.151043  -0.000039
   10        7.429603  -0.000000
   11       10.085755  -0.000000
   12       13.012590   0.000000
   13       17.635731   0.000000
   14       17.916041   0.000000
   15       18.747551   0.000000
   16       21.218821   0.000000
   17       23.201885   0.000000
   18       25.549292   0.000000
   19       28.130495   0.000000
   20       36.671272   0.000000
   21       39.265109   0.000000
   22       41.188869   0.000000
   23       42.847955   0.000000
   24       43.344001   0.000000
   25       46.959672   0.000000
   26       47.025688   0.000000
   27       49.187766   0.000000
   28       49.300571   0.000000
   29       52.659172   0.000000
   30       54.049395   0.000000
   31       54.225373   0.000000
   32       58.051529   0.000000
   33       58.341877   0.000000
   34       59.735597   0.000000
   35       63.231990   0.000000
   36       64.313266   0.000000
   37       65.071338   0.000000
   38       65.582410   0.000000
   39       65.780445   0.000000
   40       66.153243   0.000000
 
  0.2727273E+00  0.2727273E+00  0.0000000E+00  0.4507889E-02
    1        2.849311   1.000000
    2        3.063376   1.000000
    3        3.411295   1.000000
    4        3.432454   1.000000
    5        4.507062   1.000000
    6        4.898026   1.000000
    7        5.426811   1.000000
    8        6.560062   0.338571
    9        7.062887  -0.000433
   10        7.408550  -0.000000
   11       10.189497  -0.000000
   12       15.068462   0.000000
   13       15.539299   0.000000
   14       17.655142   0.000000
   15       18.675816   0.000000
   16       23.145683   0.000000
   17       23.182147   0.000000
   18       24.823816   0.000000
   19       25.714371   0.000000
   20       39.180614   0.000000
   21       40.206514   0.000000
   22       42.407588   0.000000
   23       43.442674   0.000000
   24       45.161529   0.000000
   25       45.173075   0.000000
   26       45.286678   0.000000
   27       47.683306   0.000000
   28       50.161079   0.000000
   29       50.547319   0.000000
   30       53.260893   0.000000
   31       54.201230   0.000000
   32       56.479262   0.000000
   33       58.144867   0.000000
   34       59.970219   0.000000
   35       63.175589   0.000000
   36       64.446932   0.000000
   37       64.897281   0.000000
   38       66.336004   0.000000
   39       66.602709   0.000000
   40       66.667024   0.000000
 
  0.3636364E+00  0.2727273E+00  0.0000000E+00  0.4507889E-02
    1        2.857213   1.000000
    2        3.253402   1.000000
    3        3.259843   1.000000
    4        3.732227   1.000000
    5        4.565912   1.000000
    6        4.647490   1.000000
    7        5.567469   1.000000
    8        6.886823  -0.013356
    9        7.016598  -0.001280
   10        7.153239  -0.000037
   11       11.891109  -0.000000
   12       13.074442   0.000000
   13       15.163528   0.000000
   14       19.552982   0.000000
   15       19.656110   0.000000
   16       21.010749   0.000000
   17       22.976535   0.000000
   18       23.257124   0.000000
   19       25.116898   0.000000
   20       39.657283   0.000000
   21       42.207462   0.000000
   22       42.864469   0.000000
   23       43.773507   0.000000
   24       44.363477   0.000000
   25       46.119114   0.000000
   26       46.163146   0.000000
   27       48.638568   0.000000
   28       49.095880   0.000000
   29       49.308465   0.000000
   30       52.810356   0.000000
   31       54.491570   0.000000
   32       54.729766   0.000000
   33       58.063401   0.000000
   34       58.767712   0.000000
   35       64.615077   0.000000
   36       64.973641   0.000000
   37       65.924402   0.000000
   38       66.238994   0.000000
   39       66.815153   0.000000
   40       66.881788   0.000000
 
  0.0000000E+00  0.0000000E+00  0.9090909E-01  0.1502630E-02
    1       -2.096884   1.000000
    2        1.716412   1.000000
    3        4.603532   1.000000
    4        5.010862   1.000000
    5        5.011028   1.000000
    6        5.335693   1.000000
    7        5.335868   1.000000
    8        5.957551   1.000249
    9        6.134866   1.009921
   10        6.134909   1.009928
   11        7.221256  -0.000004
   12        7.221301  -0.000004
   13       14.339477   0.000000
   14       29.065681   0.000000
   15       30.186428   0.000000
   16       32.143808   0.000000
   17       33.845371   0.000000
   18       33.845426   0.000000
   19       34.681617   0.000000
   20       34.681853   0.000000
   21       37.493865   0.000000
   22       37.856101   0.000000
   23       37.856123   0.000000
   24       39.295772   0.000000
   25       41.074682   0.000000
   26       41.074699   0.000000
   27       42.724392   0.000000
   28       45.069457   0.000000
   29       45.069833   0.000000
   30       47.001384   0.000000
   31       47.001534   0.000000
   32       49.296046   0.000000
   33       56.997071   0.000000
   34       60.541418   0.000000
   35       60.542662   0.000000
   36       61.056472   0.000000
   37       61.056905   0.000000
   38       61.562970   0.000000
   39       62.873907   0.000000
   40       64.849764   0.000000
 
  0.9090909E-01  0.6074820E-18  0.9090909E-01  0.9015778E-02
    1       -1.783920   1.000000
    2        1.945755   1.000000
    3        4.552720   1.000000
    4        4.996216   1.000000
    5        5.036772   1.000000
    6        5.183549   1.000000
    7        5.345455   1.000000
    8        5.495188   1.000000
    9        6.036152   1.001610
   10        6.037883   1.001671
   11        7.254584  -0.000001
   12        8.255395  -0.000000
   13       14.399187   0.000000
   14       27.840511   0.000000
   15       30.049535   0.000000
   16       30.576378   0.000000
   17       31.223295   0.000000
   18       33.209641   0.000000
   19       34.672456   0.000000
   20       36.938946   0.000000
   21       37.016454   0.000000
   22       37.645316   0.000000
   23       38.245243   0.000000
   24       38.923331   0.000000
   25       42.138881   0.000000
   26       42.297223   0.000000
   27       43.124439   0.000000
   28       43.406504   0.000000
   29       46.288898   0.000000
   30       48.333134   0.000000
   31       49.351169   0.000000
   32       51.274112   0.000000
   33       55.966580   0.000000
   34       58.854511   0.000000
   35       59.497658   0.000000
   36       60.660740   0.000000
   37       61.194081   0.000000
   38       62.466892   0.000000
   39       63.765063   0.000000
   40       64.993507   0.000000
 
  0.1818182E+00 -0.6612108E-17  0.9090909E-01  0.9015778E-02
    1       -0.895571   1.000000
    2        2.494559   1.000000
    3        4.085525   1.000000
    4        4.293382   1.000000
    5        4.877532   1.000000
    6        5.347593   1.000000
    7        5.599110   1.000000
    8        5.833552   1.000007
    9        5.844038   1.000009
   10        5.976973   1.000409
   11        7.315719  -0.000000
   12        9.875769  -0.000000
   13       14.623488   0.000000
   14       24.095148   0.000000
   15       28.520259   0.000000
   16       28.801254   0.000000
   17       30.134636   0.000000
   18       30.974168   0.000000
   19       34.321963   0.000000
   20       35.798786   0.000000
   21       35.969350   0.000000
   22       36.924629   0.000000
   23       39.139048   0.000000
   24       40.691651   0.000000
   25       42.239126   0.000000
   26       43.381814   0.000000
   27       44.916413   0.000000
   28       47.374793   0.000000
   29       48.963334   0.000000
   30       51.728547   0.000000
   31       52.297308   0.000000
   32       53.920359   0.000000
   33       54.710958   0.000000
   34       57.125120   0.000000
   35       58.024964   0.000000
   36       59.402350   0.000000
   37       60.917548   0.000000
   38       63.399686   0.000000
   39       65.167354   0.000000
   40       65.544931   0.000000
 
  0.2727273E+00  0.2175095E-16  0.9090909E-01  0.9015778E-02
    1        0.377797   1.000000
    2        2.806206   1.000000
    3        3.327535   1.000000
    4        4.173206   1.000000
    5        4.703578   1.000000
    6        5.367681   1.000000
    7        5.464488   1.000000
    8        6.164476   1.015088
    9        6.408681   0.902287
   10        6.576239   0.276243
   11        7.359359  -0.000000
   12       11.565468  -0.000000
   13       15.128679   0.000000
   14       20.219064   0.000000
   15       25.850389   0.000000
   16       26.211898   0.000000
   17       28.090250   0.000000
   18       30.844433   0.000000
   19       32.477439   0.000000
   20       34.720797   0.000000
   21       35.372754   0.000000
   22       37.634106   0.000000
   23       37.705500   0.000000
   24       41.565374   0.000000
   25       45.573002   0.000000
   26       47.268382   0.000000
   27       48.148144   0.000000
   28       48.783866   0.000000
   29       51.951713   0.000000
   30       52.521534   0.000000
   31       54.053998   0.000000
   32       55.555271   0.000000
   33       56.741571   0.000000
   34       56.816709   0.000000
   35       58.291358   0.000000
   36       59.554120   0.000000
   37       61.936713   0.000000
   38       63.453372   0.000000
   39       64.489628   0.000000
   40       65.821533   0.000000
 
  0.3636364E+00 -0.2514801E-16  0.9090909E-01  0.9015778E-02
    1        1.554571   1.000000
    2        2.566465   1.000000
    3        2.891349   1.000000
    4        4.170374   1.000000
    5        5.041388   1.000000
    6        5.240231   1.000000
    7        5.241661   1.000000
    8        7.103479  -0.000152
    9        7.169275  -0.000023
   10        7.187986  -0.000013
   11        7.403351  -0.000000
   12       12.888041   0.000000
   13       15.576752   0.000000
   14       17.648703   0.000000
   15       22.717801   0.000000
   16       24.451337   0.000000
   17       25.479549   0.000000
   18       30.023662   0.000000
   19       31.300299   0.000000
   20       33.434142   0.000000
   21       36.482618   0.000000
   22       36.604531   0.000000
   23       38.915158   0.000000
   24       42.353109   0.000000
   25       46.911378   0.000000
   26       49.106603   0.000000
   27       50.629645   0.000000
   28       51.584738   0.000000
   29       52.768718   0.000000
   30       54.481709   0.000000
   31       55.300474   0.000000
   32       56.764659   0.000000
   33       57.154106   0.000000
   34       58.374030   0.000000
   35       60.591985   0.000000
   36       62.210106   0.000000
   37       63.031048   0.000000
   38       63.373176   0.000000
   39       65.004395   0.000000
   40       65.355574   0.000000
 
  0.4545455E+00 -0.3743577E-16  0.9090909E-01  0.9015778E-02
    1        2.050159   1.000000
    2        2.290088   1.000000
    3        2.768432   1.000000
    4        4.246139   1.000000
    5        5.111990   1.000000
    6        5.259925   1.000000
    7        5.461120   1.000000
    8        7.338281  -0.000000
    9        7.532316  -0.000000
   10        7.657133  -0.000000
   11        8.679560  -0.000000
   12       11.885178  -0.000000
   13       16.241750   0.000000
   14       17.774338   0.000000
   15       20.737236   0.000000
   16       22.836256   0.000000
   17       23.472475   0.000000
   18       29.442416   0.000000
   19       30.932689   0.000000
   20       32.598038   0.000000
   21       36.194782   0.000000