<?xml version="1.0" encoding="ISO-8859-1"?>
<modeling>
 <generator>
  <i name="program" type="string">vasp </i>
  <i name="version" type="string">6.2.0  </i>
  <i name="subversion" type="string">18Jan21 (build Mar 17 2021 09:06:54) complex                          serial </i>
  <i name="platform" type="string">LinuxIFC </i>
  <i name="date" type="string">2021 09 09 </i>
  <i name="time" type="string">12:10:01 </i>
 </generator>
 <incar>
  <i type="string" name="PREC">normal</i>
  <i type="int" name="ICHARG">     1</i>
  <i type="int" name="IBRION">     1</i>
  <i name="EDIFF">      0.00000100</i>
  <i type="int" name="NSW">     0</i>
  <i type="int" name="ISIF">     2</i>
  <i name="ENCUT">    280.00000000</i>
  <i type="int" name="NBANDS">    40</i>
  <i type="int" name="ISMEAR">     1</i>
  <i name="SIGMA">      0.20000000</i>
  <i type="logical" name="LCHARG"> T  </i>
  <i type="int" name="KPAR">     1</i>
  <i type="int" name="NCORE">     1</i>
  <i type="string" name="GGA">PE</i>
 </incar>
 <primitive_cell>
  <structure name="primitive_cell" >
   <crystal>
    <varray name="basis" >
     <v>       2.42320000       0.00000000       0.00000000 </v>
     <v>      -1.21160000       2.09855276       0.00000000 </v>
     <v>       0.00000000       0.00000000       4.13608000 </v>
    </varray>
    <i name="volume">     21.03284797 </i>
    <varray name="rec_basis" >
     <v>       0.41267745       0.23825944       0.00000000 </v>
     <v>       0.00000000       0.47651888       0.00000000 </v>
     <v>       0.00000000       0.00000000       0.24177482 </v>
    </varray>
   </crystal>
   <varray name="positions" >
    <v>       0.00000000       0.00000000       0.00000000 </v>
    <v>       0.33333333       0.66666667       0.50000000 </v>
   </varray>
  </structure>
  <varray name="primitive_index" >
   <v type="int" >        1 </v>
   <v type="int" >        2 </v>
  </varray>
 </primitive_cell>
 <kpoints>
  <generation param="Monkhorst-Pack">
   <v type="int" name="divisions">      11       11       11 </v>
   <v name="usershift">      0.00000000       0.00000000       0.00000000 </v>
   <v name="genvec1">      0.09090909      -0.00000000       0.00000000 </v>
   <v name="genvec2">      0.00000000       0.09090909       0.00000000 </v>
   <v name="genvec3">      0.00000000       0.00000000       0.09090909 </v>
   <v name="shift">      0.00000000       0.00000000       0.00000000 </v>
  </generation>
  <varray name="kpointlist" >
   <v>       0.00000000       0.00000000       0.00000000 </v>
   <v>       0.09090909       0.00000000       0.00000000 </v>
   <v>       0.18181818      -0.00000000       0.00000000 </v>
   <v>       0.27272727       0.00000000       0.00000000 </v>
   <v>       0.36363636      -0.00000000       0.00000000 </v>
   <v>       0.45454545      -0.00000000       0.00000000 </v>
   <v>       0.09090909       0.09090909       0.00000000 </v>
   <v>       0.18181818       0.09090909       0.00000000 </v>
   <v>       0.27272727       0.09090909       0.00000000 </v>
   <v>       0.36363636       0.09090909       0.00000000 </v>
   <v>       0.45454545       0.09090909       0.00000000 </v>
   <v>       0.18181818       0.18181818       0.00000000 </v>
   <v>       0.27272727       0.18181818       0.00000000 </v>
   <v>       0.36363636       0.18181818       0.00000000 </v>
   <v>       0.27272727       0.27272727       0.00000000 </v>
   <v>       0.36363636       0.27272727       0.00000000 </v>
   <v>       0.00000000       0.00000000       0.09090909 </v>
   <v>       0.09090909       0.00000000       0.09090909 </v>
   <v>       0.18181818      -0.00000000       0.09090909 </v>
   <v>       0.27272727       0.00000000       0.09090909 </v>
   <v>       0.36363636      -0.00000000       0.09090909 </v>
   <v>       0.45454545      -0.00000000       0.09090909 </v>
   <v>       0.09090909       0.09090909       0.09090909 </v>
   <v>       0.18181818       0.09090909       0.09090909 </v>
   <v>       0.27272727       0.09090909       0.09090909 </v>
   <v>       0.36363636       0.09090909       0.09090909 </v>
   <v>       0.45454545       0.09090909       0.09090909 </v>
   <v>       0.18181818       0.18181818       0.09090909 </v>
   <v>       0.27272727       0.18181818       0.09090909 </v>
   <v>       0.36363636       0.18181818       0.09090909 </v>
   <v>       0.27272727       0.27272727       0.09090909 </v>
   <v>       0.36363636       0.27272727       0.09090909 </v>
   <v>       0.00000000       0.00000000       0.18181818 </v>
   <v>       0.09090909       0.00000000       0.18181818 </v>
   <v>       0.18181818      -0.00000000       0.18181818 </v>
   <v>       0.27272727       0.00000000       0.18181818 </v>
   <v>       0.36363636      -0.00000000       0.18181818 </v>
   <v>       0.45454545      -0.00000000       0.18181818 </v>
   <v>       0.09090909       0.09090909       0.18181818 </v>
   <v>       0.18181818       0.09090909       0.18181818 </v>
   <v>       0.27272727       0.09090909       0.18181818 </v>
   <v>       0.36363636       0.09090909       0.18181818 </v>
   <v>       0.45454545       0.09090909       0.18181818 </v>
   <v>       0.18181818       0.18181818       0.18181818 </v>
   <v>       0.27272727       0.18181818       0.18181818 </v>
   <v>       0.36363636       0.18181818       0.18181818 </v>
   <v>       0.27272727       0.27272727       0.18181818 </v>
   <v>       0.36363636       0.27272727       0.18181818 </v>
   <v>       0.00000000       0.00000000       0.27272727 </v>
   <v>       0.09090909       0.00000000       0.27272727 </v>
   <v>       0.18181818      -0.00000000       0.27272727 </v>
   <v>       0.27272727       0.00000000       0.27272727 </v>
   <v>       0.36363636      -0.00000000       0.27272727 </v>
   <v>       0.45454545      -0.00000000       0.27272727 </v>
   <v>       0.09090909       0.09090909       0.27272727 </v>
   <v>       0.18181818       0.09090909       0.27272727 </v>
   <v>       0.27272727       0.09090909       0.27272727 </v>
   <v>       0.36363636       0.09090909       0.27272727 </v>
   <v>       0.45454545       0.09090909       0.27272727 </v>
   <v>       0.18181818       0.18181818       0.27272727 </v>
   <v>       0.27272727       0.18181818       0.27272727 </v>
   <v>       0.36363636       0.18181818       0.27272727 </v>
   <v>       0.27272727       0.27272727       0.27272727 </v>
   <v>       0.36363636       0.27272727       0.27272727 </v>
   <v>       0.00000000       0.00000000       0.36363636 </v>
   <v>       0.09090909       0.00000000       0.36363636 </v>
   <v>       0.18181818      -0.00000000       0.36363636 </v>
   <v>       0.27272727       0.00000000       0.36363636 </v>
   <v>       0.36363636      -0.00000000       0.36363636 </v>
   <v>       0.45454545      -0.00000000       0.36363636 </v>
   <v>       0.09090909       0.09090909       0.36363636 </v>
   <v>       0.18181818       0.09090909       0.36363636 </v>
   <v>       0.27272727       0.09090909       0.36363636 </v>
   <v>       0.36363636       0.09090909       0.36363636 </v>
   <v>       0.45454545       0.09090909       0.36363636 </v>
   <v>       0.18181818       0.18181818       0.36363636 </v>
   <v>       0.27272727       0.18181818       0.36363636 </v>
   <v>       0.36363636       0.18181818       0.36363636 </v>
   <v>       0.27272727       0.27272727       0.36363636 </v>
   <v>       0.36363636       0.27272727       0.36363636 </v>
   <v>       0.00000000       0.00000000       0.45454545 </v>
   <v>       0.09090909       0.00000000       0.45454545 </v>
   <v>       0.18181818      -0.00000000       0.45454545 </v>
   <v>       0.27272727       0.00000000       0.45454545 </v>
   <v>       0.36363636      -0.00000000       0.45454545 </v>
   <v>       0.45454545      -0.00000000       0.45454545 </v>
   <v>       0.09090909       0.09090909       0.45454545 </v>
   <v>       0.18181818       0.09090909       0.45454545 </v>
   <v>       0.27272727       0.09090909       0.45454545 </v>
   <v>       0.36363636       0.09090909       0.45454545 </v>
   <v>       0.45454545       0.09090909       0.45454545 </v>
   <v>       0.18181818       0.18181818       0.45454545 </v>
   <v>       0.27272727       0.18181818       0.45454545 </v>
   <v>       0.36363636       0.18181818       0.45454545 </v>
   <v>       0.27272727       0.27272727       0.45454545 </v>
   <v>       0.36363636       0.27272727       0.45454545 </v>
  </varray>
  <varray name="weights" >
   <v>       0.00075131 </v>
   <v>       0.00450789 </v>
   <v>       0.00450789 </v>
   <v>       0.00450789 </v>
   <v>       0.00450789 </v>
   <v>       0.00450789 </v>
   <v>       0.00450789 </v>
   <v>       0.00901578 </v>
   <v>       0.00901578 </v>
   <v>       0.00901578 </v>
   <v>       0.00450789 </v>
   <v>       0.00450789 </v>
   <v>       0.00901578 </v>
   <v>       0.00901578 </v>
   <v>       0.00450789 </v>
   <v>       0.00450789 </v>
   <v>       0.00150263 </v>
   <v>       0.00901578 </v>
   <v>       0.00901578 </v>
   <v>       0.00901578 </v>
   <v>       0.00901578 </v>
   <v>       0.00901578 </v>
   <v>       0.00901578 </v>
   <v>       0.01803156 </v>
   <v>       0.01803156 </v>
   <v>       0.01803156 </v>
   <v>       0.00901578 </v>
   <v>       0.00901578 </v>
   <v>       0.01803156 </v>
   <v>       0.01803156 </v>
   <v>       0.00901578 </v>
   <v>       0.00901578 </v>
   <v>       0.00150263 </v>
   <v>       0.00901578 </v>
   <v>       0.00901578 </v>
   <v>       0.00901578 </v>
   <v>       0.00901578 </v>
   <v>       0.00901578 </v>
   <v>       0.00901578 </v>
   <v>       0.01803156 </v>
   <v>       0.01803156 </v>
   <v>       0.01803156 </v>
   <v>       0.00901578 </v>
   <v>       0.00901578 </v>
   <v>       0.01803156 </v>
   <v>       0.01803156 </v>
   <v>       0.00901578 </v>
   <v>       0.00901578 </v>
   <v>       0.00150263 </v>
   <v>       0.00901578 </v>
   <v>       0.00901578 </v>
   <v>       0.00901578 </v>
   <v>       0.00901578 </v>
   <v>       0.00901578 </v>
   <v>       0.00901578 </v>
   <v>       0.01803156 </v>
   <v>       0.01803156 </v>
   <v>       0.01803156 </v>
   <v>       0.00901578 </v>
   <v>       0.00901578 </v>
   <v>       0.01803156 </v>
   <v>       0.01803156 </v>
   <v>       0.00901578 </v>
   <v>       0.00901578 </v>
   <v>       0.00150263 </v>
   <v>       0.00901578 </v>
   <v>       0.00901578 </v>
   <v>       0.00901578 </v>
   <v>       0.00901578 </v>
   <v>       0.00901578 </v>
   <v>       0.00901578 </v>
   <v>       0.01803156 </v>
   <v>       0.01803156 </v>
   <v>       0.01803156 </v>
   <v>       0.00901578 </v>
   <v>       0.00901578 </v>
   <v>       0.01803156 </v>
   <v>       0.01803156 </v>
   <v>       0.00901578 </v>
   <v>       0.00901578 </v>
   <v>       0.00150263 </v>
   <v>       0.00901578 </v>
   <v>       0.00901578 </v>
   <v>       0.00901578 </v>
   <v>       0.00901578 </v>
   <v>       0.00901578 </v>
   <v>       0.00901578 </v>
   <v>       0.01803156 </v>
   <v>       0.01803156 </v>
   <v>       0.01803156 </v>
   <v>       0.00901578 </v>
   <v>       0.00901578 </v>
   <v>       0.01803156 </v>
   <v>       0.01803156 </v>
   <v>       0.00901578 </v>
   <v>       0.00901578 </v>
  </varray>
 </kpoints>
 <parameters>
  <separator name="general" >
   <i type="string" name="SYSTEM">unknown system</i>
   <i type="logical" name="LCOMPAT"> F  </i>
  </separator>
  <separator name="electronic" >
   <i type="string" name="PREC">normal</i>
   <i name="ENMAX">    280.00000000</i>
   <i name="ENAUG">    511.36800000</i>
   <i name="EDIFF">      0.00000100</i>
   <i type="int" name="IALGO">    38</i>
   <i type="int" name="IWAVPR">     0</i>
   <i type="int" name="NBANDS">    40</i>
   <i type="int" name="NBANDSLOW">    -1</i>
   <i type="int" name="NBANDSHIGH">    -1</i>
   <i name="NELECT">     16.00000000</i>
   <i type="int" name="TURBO">     0</i>
   <i type="int" name="IRESTART">     0</i>
   <i type="int" name="NREBOOT">     0</i>
   <i type="int" name="NMIN">     0</i>
   <i name="EREF">      0.00000000</i>
   <separator name="electronic smearing" >
    <i type="int" name="ISMEAR">     1</i>
    <i name="SIGMA">      0.20000000</i>
    <i name="KSPACING">      0.50000000</i>
    <i type="logical" name="KGAMMA"> T  </i>
    <i type="logical" name="KBLOWUP"> T  </i>
   </separator>
   <separator name="electronic projectors" >
    <i type="logical" name="LREAL"> F  </i>
    <v name="ROPT">      0.00000000</v>
    <i type="int" name="LMAXPAW">  -100</i>
    <i type="int" name="LMAXMIX">     2</i>
    <i type="logical" name="NLSPLINE"> F  </i>
   </separator>
   <separator name="electronic startup" >
    <i type="int" name="ISTART">     0</i>
    <i type="int" name="ICHARG">     1</i>
    <i type="int" name="INIWAV">     1</i>
   </separator>
   <separator name="electronic spin" >
    <i type="int" name="ISPIN">     1</i>
    <i type="logical" name="LNONCOLLINEAR"> F  </i>
    <v name="MAGMOM">      1.00000000      1.00000000</v>
    <i name="NUPDOWN">     -1.00000000</i>
    <i type="logical" name="LSORBIT"> F  </i>
    <v name="SAXIS">      0.00000000      0.00000000      1.00000000</v>
    <i type="logical" name="LSPIRAL"> F  </i>
    <v name="QSPIRAL">      0.00000000      0.00000000      0.00000000</v>
    <i type="logical" name="LZEROZ"> F  </i>
   </separator>
   <separator name="electronic exchange-correlation" >
    <i type="logical" name="LASPH"> F  </i>
    <i type="logical" name="LMETAGGA"> F  </i>
   </separator>
   <separator name="electronic convergence" >
    <i type="int" name="NELM">    60</i>
    <i type="int" name="NELMDL">    -5</i>
    <i type="int" name="NELMIN">     2</i>
    <i name="ENINI">    280.00000000</i>
    <separator name="electronic convergence detail" >
     <i type="logical" name="LDIAG"> T  </i>
     <i type="logical" name="LSUBROT"> F  </i>
     <i name="WEIMIN">      0.00000000</i>
     <i name="EBREAK">      0.00000001</i>
     <i name="DEPER">      0.30000000</i>
     <i type="int" name="NRMM">     4</i>
     <i name="TIME">      0.40000000</i>
    </separator>
   </separator>
   <separator name="electronic mixer" >
    <i name="AMIX">      0.40000000</i>
    <i name="BMIX">      1.00000000</i>
    <i name="AMIN">      0.10000000</i>
    <i name="AMIX_MAG">      1.60000000</i>
    <i name="BMIX_MAG">      1.00000000</i>
    <separator name="electronic mixer details" >
     <i type="int" name="IMIX">     4</i>
     <i type="logical" name="MIXFIRST"> F  </i>
     <i type="int" name="MAXMIX">   -45</i>
     <i name="WC">    100.00000000</i>
     <i type="int" name="INIMIX">     1</i>
     <i type="int" name="MIXPRE">     1</i>
     <i type="int" name="MREMOVE">     5</i>
    </separator>
   </separator>
   <separator name="electronic dipolcorrection" >
    <i type="logical" name="LDIPOL"> F  </i>
    <i type="logical" name="LMONO"> F  </i>
    <i type="int" name="IDIPOL">     0</i>
    <i name="EPSILON">      1.00000000</i>
    <v name="DIPOL">   -100.00000000   -100.00000000   -100.00000000</v>
    <i name="EFIELD">      0.00000000</i>
   </separator>
  </separator>
  <separator name="grids" >
   <i type="int" name="NGX">    10</i>
   <i type="int" name="NGY">    10</i>
   <i type="int" name="NGZ">    18</i>
   <i type="int" name="NGXF">    20</i>
   <i type="int" name="NGYF">    20</i>
   <i type="int" name="NGZF">    36</i>
   <i type="logical" name="ADDGRID"> F  </i>
  </separator>
  <separator name="ionic" >
   <i type="int" name="NSW">     0</i>
   <i type="int" name="IBRION">    -1</i>
   <i type="int" name="MDALGO">     0</i>
   <i type="int" name="ISIF">     2</i>
   <i name="PSTRESS">      0.00000000</i>
   <i name="EDIFFG">      0.00001000</i>
   <i type="int" name="NFREE">     0</i>
   <i name="POTIM">      0.50000000</i>
   <i name="SMASS">     -3.00000000</i>
   <i name="SCALEE">      1.00000000</i>
  </separator>
  <separator name="ionic md" >
   <i name="TEBEG">      0.00010000</i>
   <i name="TEEND">      0.00010000</i>
   <i type="int" name="NBLOCK">     1</i>
   <i type="int" name="KBLOCK">     1</i>
   <i type="int" name="NPACO">   256</i>
   <i name="APACO">     16.00000000</i>
  </separator>
  <separator name="symmetry" >
   <i type="int" name="ISYM">     2</i>
   <i name="SYMPREC">      0.00001000</i>
  </separator>
  <separator name="dos" >
   <i type="int" name="LORBIT">     0</i>
   <v name="RWIGS">     -1.00000000</v>
   <i type="int" name="NEDOS">   301</i>
   <i name="EMIN">     10.00000000</i>
   <i name="EMAX">    -10.00000000</i>
   <i name="EFERMI">      0.00000000</i>
  </separator>
  <separator name="writing" >
   <i type="int" name="NWRITE">     2</i>
   <i type="logical" name="LWAVE"> T  </i>
   <i type="logical" name="LDOWNSAMPLE"> F  </i>
   <i type="logical" name="LCHARG"> T  </i>
   <i type="logical" name="LPARD"> F  </i>
   <i type="logical" name="LVTOT"> F  </i>
   <i type="logical" name="LVHAR"> F  </i>
   <i type="logical" name="LELF"> F  </i>
   <i type="logical" name="LOPTICS"> F  </i>
   <v name="STM">      0.00000000      0.00000000      0.00000000      0.00000000      0.00000000      0.00000000      0.00000000</v>
  </separator>
  <separator name="performance" >
   <i type="int" name="NPAR">     1</i>
   <i type="int" name="NSIM">     4</i>
   <i type="int" name="NBLK">    -1</i>
   <i type="logical" name="LPLANE"> T  </i>
   <i type="logical" name="LSCALAPACK"> F  </i>
   <i type="logical" name="LSCAAWARE"> F  </i>
   <i type="logical" name="LSCALU"> F  </i>
   <i type="logical" name="LASYNC"> F  </i>
   <i type="logical" name="LORBITALREAL"> F  </i>
  </separator>
  <separator name="miscellaneous" >
   <i type="int" name="IDIOT">     3</i>
   <i type="int" name="PHON_NSTRUCT">    -1</i>
   <i type="logical" name="LMUSIC"> F  </i>
   <v name="POMASS">     55.84700000</v>
   <v name="DARWINR">      0.00000000</v>
   <v name="DARWINV">      1.00000000</v>
   <i type="logical" name="LCORR"> T  </i>
  </separator>
  <i type="logical" name="GGA_COMPAT"> T  </i>
  <i type="logical" name="LBERRY"> F  </i>
  <i type="int" name="ICORELEVEL">     0</i>
  <i type="logical" name="LDAU"> F  </i>
  <i type="int" name="I_CONSTRAINED_M">     0</i>
  <separator name="electronic exchange-correlation" >
   <i type="string" name="GGA">PE</i>
   <i type="int" name="VOSKOWN">     0</i>
   <i type="logical" name="LHFCALC"> F  </i>
   <i type="string" name="PRECFOCK"></i>
   <i type="logical" name="LSYMGRAD"> F  </i>
   <i type="logical" name="LHFONE"> F  </i>
   <i type="logical" name="LRHFCALC"> F  </i>
   <i type="logical" name="LTHOMAS"> F  </i>
   <i type="logical" name="LMODELHF"> F  </i>
   <i type="logical" name="LFOCKACE"> F  </i>
   <i name="ENCUT4O">     -1.00000000</i>
   <i type="int" name="EXXOEP">     0</i>
   <i type="int" name="FOURORBIT">     0</i>
   <i name="AEXX">      0.00000000</i>
   <i name="HFALPHA">      0.00000000</i>
   <i name="MCALPHA">      0.00000000</i>
   <i name="ALDAX">      1.00000000</i>
   <i name="AGGAX">      1.00000000</i>
   <i name="ALDAC">      1.00000000</i>
   <i name="AGGAC">      1.00000000</i>
   <i type="int" name="NKREDX">     1</i>
   <i type="int" name="NKREDY">     1</i>
   <i type="int" name="NKREDZ">     1</i>
   <i type="logical" name="SHIFTRED"> F  </i>
   <i type="logical" name="ODDONLY"> F  </i>
   <i type="logical" name="EVENONLY"> F  </i>
   <i type="int" name="LMAXFOCK">     0</i>
   <i type="int" name="NMAXFOCKAE">     0</i>
   <i type="logical" name="LFOCKAEDFT"> F  </i>
   <i name="HFSCREEN">      0.00000000</i>
   <i name="HFSCREENC">      0.00000000</i>
   <i type="int" name="NBANDSGWLOW">     0</i>
  </separator>
  <separator name="vdW DFT" >
   <i type="logical" name="LUSE_VDW"> F  </i>
   <i name="Zab_VDW">     -0.84910000</i>
   <i name="PARAM1">      0.12340000</i>
   <i name="PARAM2">      1.00000000</i>
   <i name="PARAM3">      0.00000000</i>
  </separator>
  <separator name="model GW" >
   <i type="int" name="MODEL_GW">     0</i>
   <i name="MODEL_EPS0">      6.30985439</i>
   <i name="MODEL_ALPHA">      1.00000000</i>
  </separator>
  <separator name="linear response parameters" >
   <i type="logical" name="LEPSILON"> F  </i>
   <i type="logical" name="LRPA"> F  </i>
   <i type="logical" name="LNABLA"> F  </i>
   <i type="logical" name="LVEL"> F  </i>
   <i type="int" name="KINTER">     0</i>
   <i name="CSHIFT">      0.10000000</i>
   <i name="OMEGAMAX">     -1.00000000</i>
   <i name="DEG_THRESHOLD">      0.00200000</i>
   <i name="RTIME">     -0.10000000</i>
   <i name="WPLASMAI">      0.00000000</i>
   <v name="DFIELD">      0.00000000      0.00000000      0.00000000</v>
   <v name="WPLASMA">      0.00000000      0.00000000      0.00000000      0.00000000      0.00000000      0.00000000      0.00000000      0.00000000      0.00000000</v>
  </separator>
  <separator name="orbital magnetization" >
   <i type="logical" name="NUCIND"> F  </i>
   <v name="MAGPOS">      0.00000000      0.00000000      0.00000000</v>
   <i type="logical" name="LNICSALL"> T  </i>
   <i type="logical" name="ORBITALMAG"> F  </i>
   <i type="logical" name="LMAGBLOCH"> F  </i>
   <i type="logical" name="LCHIMAG"> F  </i>
   <i type="logical" name="LGAUGE"> T  </i>
   <i type="int" name="MAGATOM">     0</i>
   <v name="MAGDIPOL">      0.00000000      0.00000000      0.00000000</v>
   <v name="AVECCONST">      0.00000000      0.00000000      0.00000000</v>
  </separator>
  <separator name="response functions" >
   <i type="logical" name="LFINITE_TEMPERATURE"> F  </i>
   <i type="logical" name="LADDER"> F  </i>
   <i type="logical" name="LRPAFORCE"> F  </i>
   <i type="logical" name="LFXC"> F  </i>
   <i type="logical" name="LHARTREE"> T  </i>
   <i type="int" name="IBSE">     0</i>
   <v type="int" name="KPOINT">    -1     0     0     0</v>
   <i type="logical" name="LTCTC"> F  </i>
   <i type="logical" name="LTCTE"> F  </i>
   <i type="logical" name="LTETE"> F  </i>
   <i type="logical" name="LTRIPLET"> F  </i>
   <i type="logical" name="LFXCEPS"> F  </i>
   <i type="logical" name="LFXHEG"> F  </i>
   <i type="int" name="NATURALO">     2</i>
   <i type="logical" name="LHOLEGF"> F  </i>
   <i type="logical" name="L2ORDER"> F  </i>
   <i type="logical" name="LDMP1"> F  </i>
   <i type="logical" name="LMP2LT"> F  </i>
   <i type="logical" name="LSMP2LT"> F  </i>
   <i type="logical" name="LGWLF"> F  </i>
   <i name="ENCUTGW">     -2.00000000</i>
   <i name="ENCUTGWSOFT">     -2.00000000</i>
   <i name="ENCUTLF">     -1.00000000</i>
   <i type="logical" name="LESF_SPLINES"> F  </i>
   <i type="int" name="LMAXMP2">    -1</i>
   <i name="SCISSOR">      0.00000000</i>
   <i type="int" name="NOMEGA">     0</i>
   <i type="int" name="NOMEGAR">     0</i>
   <i type="int" name="NBANDSGW">    -1</i>
   <i type="int" name="NBANDSO">    -1</i>
   <i type="int" name="NBANDSV">    -1</i>
   <i type="int" name="NELM">     1</i>
   <i type="int" name="NELMHF">     1</i>
   <i type="int" name="DIM">     3</i>
   <i type="int" name="IESPILON">     4</i>
   <i type="int" name="ANTIRES">     0</i>
   <i name="OMEGAMAX">    -30.00000000</i>
   <i name="OMEGAMIN">    -30.00000000</i>
   <i name="OMEGATL">   -200.00000000</i>
   <i type="int" name="OMEGAGRID">     0</i>
   <i name="CSHIFT">     -0.10000000</i>
   <i type="logical" name="LSELFENERGY"> F  </i>
   <i type="logical" name="LSPECTRAL"> F  </i>
   <i type="logical" name="LSPECTRALGW"> F  </i>
   <i type="logical" name="LSINGLES"> F  </i>
   <i type="logical" name="LFERMIGW"> F  </i>
   <i type="logical" name="ODDONLYGW"> F  </i>
   <i type="logical" name="EVENONLYGW"> F  </i>
   <i type="int" name="NKREDLFX">     1</i>
   <i type="int" name="NKREDLFY">     1</i>
   <i type="int" name="NKREDLFZ">     1</i>
   <i type="int" name="MAXMEM">  2800</i>
   <i type="int" name="TELESCOPE">     0</i>
   <i type="int" name="NTAUPAR">    -1</i>
   <i type="int" name="NOMEGAPAR">    -1</i>
   <i name="DAMP_NEWTON">      0.80000001</i>
   <i name="LAMBDA">      1.00000000</i>
  </separator>
  <separator name="External order field" >
   <i name="OFIELD_KAPPA">      0.00000000</i>
   <v name="OFIELD_K">      0.00000000      0.00000000      0.00000000</v>
   <i name="OFIELD_Q6_NEAR">      0.00000000</i>
   <i name="OFIELD_Q6_FAR">      0.00000000</i>
   <i name="OFIELD_A">      0.00000000</i>
  </separator>
 </parameters>
 <atominfo>
  <atoms>       2 </atoms>
  <types>       1 </types>
  <array name="atoms" >
   <dimension dim="1">ion</dimension>
   <field type="string">element</field>
   <field type="int">atomtype</field>
   <set>
    <rc><c>Fe</c><c>   1</c></rc>
    <rc><c>Fe</c><c>   1</c></rc>
   </set>
  </array>
  <array name="atomtypes" >
   <dimension dim="1">type</dimension>
   <field type="int">atomspertype</field>
   <field type="string">element</field>
   <field>mass</field>
   <field>valence</field>
   <field type="string">pseudopotential</field>
   <set>
    <rc><c>   2</c><c>Fe</c><c>     55.84700000</c><c>      8.00000000</c><c>  PAW_PBE Fe 06Sep2000                  </c></rc>
   </set>
  </array>
 </atominfo>
 <structure name="initialpos" >
  <crystal>
   <varray name="basis" >
    <v>       2.42320000       0.00000000       0.00000000 </v>
    <v>      -1.21160000       2.09855276       0.00000000 </v>
    <v>       0.00000000       0.00000000       4.13608000 </v>
   </varray>
   <i name="volume">     21.03284797 </i>
   <varray name="rec_basis" >
    <v>       0.41267745       0.23825944       0.00000000 </v>
    <v>       0.00000000       0.47651888       0.00000000 </v>
    <v>       0.00000000       0.00000000       0.24177482 </v>
   </varray>
  </crystal>
  <varray name="positions" >
   <v>       0.00000000       0.00000000       0.00000000 </v>
   <v>       0.33333333       0.66666667       0.50000000 </v>
  </varray>
 </structure>
 <calculation>
  <scstep>
   <time name="dav">    0.81    0.83</time>
   <time name="total">    0.82    0.84</time>
   <energy>
    <i name="alphaZ">    131.43969111 </i>
    <i name="ewald">  -1214.55978835 </i>
    <i name="hartreedc">   -211.79156783 </i>
    <i name="XCdc">      8.29002147 </i>
    <i name="pawpsdc">   1109.69170683 </i>
    <i name="pawaedc">  -1125.09647265 </i>
    <i name="eentropy">     -0.00646938 </i>
    <i name="bandstr">    174.05142498 </i>
    <i name="atom">   1188.57490811 </i>
    <i name="e_fr_energy">     60.59345428 </i>
    <i name="e_wo_entrp">     60.59992366 </i>
    <i name="e_0_energy">     60.59561074 </i>
   </energy>
  </scstep>
  <scstep>
   <time name="dav">    0.69    0.69</time>
   <time name="total">    0.69    0.69</time>
   <energy>
    <i name="e_fr_energy">    -14.79850916 </i>
    <i name="e_wo_entrp">    -14.80283567 </i>
    <i name="e_0_energy">    -14.79995133 </i>
   </energy>
  </scstep>
  <scstep>
   <time name="dav">    0.80    0.80</time>
   <time name="total">    0.80    0.80</time>
   <energy>
    <i name="e_fr_energy">    -19.37391241 </i>
    <i name="e_wo_entrp">    -19.37303367 </i>
    <i name="e_0_energy">    -19.37361950 </i>
   </energy>
  </scstep>
  <scstep>
   <time name="dav">    0.76    0.76</time>
   <time name="total">    0.77    0.77</time>
   <energy>
    <i name="e_fr_energy">    -19.39756846 </i>
    <i name="e_wo_entrp">    -19.39675139 </i>
    <i name="e_0_energy">    -19.39729611 </i>
   </energy>
  </scstep>
  <scstep>
   <time name="dav">    0.76    0.76</time>
   <time name="total">    0.79    0.79</time>
   <energy>
    <i name="e_fr_energy">    -19.39760225 </i>
    <i name="e_wo_entrp">    -19.39678533 </i>
    <i name="e_0_energy">    -19.39732994 </i>
   </energy>
  </scstep>
  <scstep>
   <time name="dav">    0.91    0.91</time>
   <time name="total">    0.94    0.94</time>
   <energy>
    <i name="e_fr_energy">    -16.46657436 </i>
    <i name="e_wo_entrp">    -16.46832848 </i>
    <i name="e_0_energy">    -16.46715906 </i>
   </energy>
  </scstep>
  <scstep>
   <time name="dav">    0.84    0.84</time>
   <time name="total">    0.87    0.87</time>
   <energy>
    <i name="e_fr_energy">    -16.22922545 </i>
    <i name="e_wo_entrp">    -16.23088856 </i>
    <i name="e_0_energy">    -16.22977982 </i>
   </energy>
  </scstep>
  <scstep>
   <time name="dav">    0.83    0.83</time>
   <time name="total">    0.86    0.86</time>
   <energy>
    <i name="e_fr_energy">    -16.20419313 </i>
    <i name="e_wo_entrp">    -16.20593410 </i>
    <i name="e_0_energy">    -16.20477346 </i>
   </energy>
  </scstep>
  <scstep>
   <time name="dav">    0.92    0.92</time>
   <time name="total">    0.95    0.95</time>
   <energy>
    <i name="e_fr_energy">    -16.19273704 </i>
    <i name="e_wo_entrp">    -16.19448682 </i>
    <i name="e_0_energy">    -16.19332030 </i>
   </energy>
  </scstep>
  <scstep>
   <time name="dav">    0.76    0.76</time>
   <time name="total">    0.79    0.79</time>
   <energy>
    <i name="e_fr_energy">    -16.19276218 </i>
    <i name="e_wo_entrp">    -16.19450696 </i>
    <i name="e_0_energy">    -16.19334377 </i>
   </energy>
  </scstep>
  <scstep>
   <time name="dav">    0.75    0.75</time>
   <time name="total">    0.78    0.78</time>
   <energy>
    <i name="e_fr_energy">    -16.19275656 </i>
    <i name="e_wo_entrp">    -16.19450113 </i>
    <i name="e_0_energy">    -16.19333808 </i>
   </energy>
  </scstep>
  <scstep>
   <time name="dav">    0.57    0.57</time>
   <time name="total">    0.58    0.58</time>
   <energy>
    <i name="alphaZ">    131.43969111 </i>
    <i name="ewald">  -1214.55978835 </i>
    <i name="hartreedc">   -177.23579408 </i>
    <i name="XCdc">      6.68361060 </i>
    <i name="pawpsdc">   1437.88490112 </i>
    <i name="pawaedc">  -1455.03260736 </i>
    <i name="eentropy">      0.00174488 </i>
    <i name="bandstr">     66.05057751 </i>
    <i name="atom">   1188.57490811 </i>
    <i name="e_fr_energy">    -16.19275646 </i>
    <i name="e_wo_entrp">    -16.19450134 </i>
    <i name="e_0_energy">    -16.19333809 </i>
   </energy>
  </scstep>
  <structure>
   <crystal>
    <varray name="basis" >
     <v>       2.42320000       0.00000000       0.00000000 </v>
     <v>      -1.21160000       2.09855276       0.00000000 </v>
     <v>       0.00000000       0.00000000       4.13608000 </v>
    </varray>
    <i name="volume">     21.03284797 </i>
    <varray name="rec_basis" >
     <v>       0.41267745       0.23825944       0.00000000 </v>
     <v>       0.00000000       0.47651888       0.00000000 </v>
     <v>       0.00000000       0.00000000       0.24177482 </v>
    </varray>
   </crystal>
   <varray name="positions" >
    <v>       0.00000000       0.00000000       0.00000000 </v>
    <v>       0.33333333       0.66666667       0.50000000 </v>
   </varray>
  </structure>
  <varray name="forces" >
   <v>      -0.00000000      -0.00000000      -0.00000000 </v>
   <v>       0.00000000       0.00000000       0.00000000 </v>
  </varray>
  <varray name="stress" >
   <v>       5.29352268      -0.00000000      -0.00000000 </v>
   <v>      -0.00000000       5.29352268      -0.00000000 </v>
   <v>      -0.00000000      -0.00000000    -302.91979473 </v>
  </varray>
  <energy>
   <i name="e_fr_energy">    -16.19275646 </i>
   <i name="e_wo_entrp">    -16.19450134 </i>
   <i name="e_0_energy">    -16.19333809 </i>
  </energy>
  <time name="totalsc">   10.00   10.02</time>
  <eigenvalues>
   <array>
    <dimension dim="1">band</dimension>
    <dimension dim="2">kpoint</dimension>
    <dimension dim="3">spin</dimension>
    <field>eigene</field>
    <field>occ</field>
    <set>
     <set comment="spin 1">
      <set comment="kpoint 1">
       <r>   -2.1780    1.0000 </r>
       <r>    1.7463    1.0000 </r>
       <r>    4.6270    1.0000 </r>
       <r>    5.0243    1.0000 </r>
       <r>    5.0244    1.0000 </r>
       <r>    5.3559    1.0000 </r>
       <r>    5.3560    1.0000 </r>
       <r>    6.0897    1.0047 </r>
       <r>    6.0897    1.0047 </r>
       <r>    6.1949    1.0216 </r>
       <r>    7.2268   -0.0000 </r>
       <r>    7.2269   -0.0000 </r>
       <r>   13.9374    0.0000 </r>
       <r>   29.2395    0.0000 </r>
       <r>   30.6250    0.0000 </r>
       <r>   32.3194    0.0000 </r>
       <r>   33.7857    0.0000 </r>
       <r>   33.7858    0.0000 </r>
       <r>   34.6595    0.0000 </r>
       <r>   34.6597    0.0000 </r>
       <r>   37.0355    0.0000 </r>
       <r>   37.9710    0.0000 </r>
       <r>   37.9711    0.0000 </r>
       <r>   39.0470    0.0000 </r>
       <r>   41.4730    0.0000 </r>
       <r>   41.4730    0.0000 </r>
       <r>   42.4294    0.0000 </r>
       <r>   44.7775    0.0000 </r>
       <r>   44.7779    0.0000 </r>
       <r>   46.5111    0.0000 </r>
       <r>   46.5112    0.0000 </r>
       <r>   49.3540    0.0000 </r>
       <r>   57.5320    0.0000 </r>
       <r>   60.8221    0.0000 </r>
       <r>   60.8235    0.0000 </r>
       <r>   61.4496    0.0000 </r>
       <r>   62.2431    0.0000 </r>
       <r>   62.8416    0.0000 </r>
       <r>   62.8427    0.0000 </r>
       <r>   63.7059    0.0000 </r>
      </set>
      <set comment="kpoint 2">
       <r>   -1.8633    1.0000 </r>
       <r>    1.9709    1.0000 </r>
       <r>    4.5563    1.0000 </r>
       <r>    5.0431    1.0000 </r>
       <r>    5.2022    1.0000 </r>
       <r>    5.2414    1.0000 </r>
       <r>    5.2604    1.0000 </r>
       <r>    5.5182    1.0000 </r>
       <r>    5.9834    1.0005 </r>
       <r>    5.9883    1.0005 </r>
       <r>    7.2665   -0.0000 </r>
       <r>    8.4291   -0.0000 </r>
       <r>   13.9636    0.0000 </r>
       <r>   27.8281    0.0000 </r>
       <r>   30.3772    0.0000 </r>
       <r>   30.8852    0.0000 </r>
       <r>   31.1529    0.0000 </r>
       <r>   33.8395    0.0000 </r>
       <r>   34.1710    0.0000 </r>
       <r>   36.7839    0.0000 </r>
       <r>   37.4076    0.0000 </r>
       <r>   37.5056    0.0000 </r>
       <r>   38.2745    0.0000 </r>
       <r>   38.4556    0.0000 </r>
       <r>   42.2457    0.0000 </r>
       <r>   42.4754    0.0000 </r>
       <r>   42.6185    0.0000 </r>
       <r>   43.0437    0.0000 </r>
       <r>   46.4476    0.0000 </r>
       <r>   47.9796    0.0000 </r>
       <r>   49.0010    0.0000 </r>
       <r>   51.2644    0.0000 </r>
       <r>   57.0633    0.0000 </r>
       <r>   59.5543    0.0000 </r>
       <r>   59.6950    0.0000 </r>
       <r>   60.0745    0.0000 </r>
       <r>   61.0043    0.0000 </r>
       <r>   63.6620    0.0000 </r>
       <r>   63.9403    0.0000 </r>
       <r>   64.7735    0.0000 </r>
      </set>
      <set comment="kpoint 3">
       <r>   -0.9681    1.0000 </r>
       <r>    2.5044    1.0000 </r>
       <r>    4.1740    1.0000 </r>
       <r>    4.2767    1.0000 </r>
       <r>    4.9086    1.0000 </r>
       <r>    5.4500    1.0000 </r>
       <r>    5.6963    1.0000 </r>
       <r>    5.7064    1.0000 </r>
       <r>    5.7315    1.0000 </r>
       <r>    5.9675    1.0003 </r>
       <r>    7.3333   -0.0000 </r>
       <r>   10.2422   -0.0000 </r>
       <r>   14.0664    0.0000 </r>
       <r>   24.0465    0.0000 </r>
       <r>   28.4279    0.0000 </r>
       <r>   29.2092    0.0000 </r>
       <r>   29.9413    0.0000 </r>
       <r>   31.5611    0.0000 </r>
       <r>   34.4101    0.0000 </r>
       <r>   35.9663    0.0000 </r>
       <r>   36.4374    0.0000 </r>
       <r>   36.5632    0.0000 </r>
       <r>   38.7178    0.0000 </r>
       <r>   39.9418    0.0000 </r>
       <r>   41.9457    0.0000 </r>
       <r>   43.3841    0.0000 </r>
       <r>   45.1492    0.0000 </r>
       <r>   47.3554    0.0000 </r>
       <r>   49.0260    0.0000 </r>
       <r>   51.7365    0.0000 </r>
       <r>   51.9565    0.0000 </r>
       <r>   54.8199    0.0000 </r>
       <r>   55.6455    0.0000 </r>
       <r>   56.4925    0.0000 </r>
       <r>   57.8152    0.0000 </r>
       <r>   59.6894    0.0000 </r>
       <r>   60.5301    0.0000 </r>
       <r>   63.3831    0.0000 </r>
       <r>   65.1930    0.0000 </r>
       <r>   66.3828    0.0000 </r>
      </set>
      <set comment="kpoint 4">
       <r>    0.3245    1.0000 </r>
       <r>    2.8013    1.0000 </r>
       <r>    3.3602    1.0000 </r>
       <r>    4.1589    1.0000 </r>
       <r>    4.7570    1.0000 </r>
       <r>    5.3478    1.0000 </r>
       <r>    5.4445    1.0000 </r>
       <r>    6.1282    1.0089 </r>
       <r>    6.3971    0.9289 </r>
       <r>    6.5949    0.2099 </r>
       <r>    7.3803   -0.0000 </r>
       <r>   12.2731    0.0000 </r>
       <r>   14.2830    0.0000 </r>
       <r>   20.1512    0.0000 </r>
       <r>   26.1024    0.0000 </r>
       <r>   26.3891    0.0000 </r>
       <r>   27.6423    0.0000 </r>
       <r>   31.0694    0.0000 </r>
       <r>   32.4236    0.0000 </r>
       <r>   35.9164    0.0000 </r>
       <r>   36.4292    0.0000 </r>
       <r>   36.6840    0.0000 </r>
       <r>   36.7332    0.0000 </r>
       <r>   40.6365    0.0000 </r>
       <r>   45.4695    0.0000 </r>
       <r>   47.3631    0.0000 </r>
       <r>   48.4922    0.0000 </r>
       <r>   50.0621    0.0000 </r>
       <r>   51.4287    0.0000 </r>
       <r>   52.3896    0.0000 </r>
       <r>   53.7615    0.0000 </r>
       <r>   54.7948    0.0000 </r>
       <r>   57.3096    0.0000 </r>
       <r>   57.9627    0.0000 </r>
       <r>   58.0862    0.0000 </r>
       <r>   59.0272    0.0000 </r>
       <r>   61.6985    0.0000 </r>
       <r>   63.0240    0.0000 </r>
       <r>   65.0828    0.0000 </r>
       <r>   65.7786    0.0000 </r>
      </set>
      <set comment="kpoint 5">
       <r>    1.5547    1.0000 </r>
       <r>    2.5863    1.0000 </r>
       <r>    2.8218    1.0000 </r>
       <r>    4.3284    1.0000 </r>
       <r>    5.0290    1.0000 </r>
       <r>    5.0450    1.0000 </r>
       <r>    5.2060    1.0000 </r>
       <r>    7.0977   -0.0002 </r>
       <r>    7.2219   -0.0000 </r>
       <r>    7.2250   -0.0000 </r>
       <r>    7.4013   -0.0000 </r>
       <r>   14.0635    0.0000 </r>
       <r>   14.4485    0.0000 </r>
       <r>   17.4753    0.0000 </r>
       <r>   23.2187    0.0000 </r>
       <r>   24.3289    0.0000 </r>
       <r>   24.9263    0.0000 </r>
       <r>   30.0854    0.0000 </r>
       <r>   31.2799    0.0000 </r>
       <r>   34.5031    0.0000 </r>
       <r>   35.5006    0.0000 </r>
       <r>   37.5638    0.0000 </r>
       <r>   38.7626    0.0000 </r>
       <r>   41.2149    0.0000 </r>
       <r>   48.7062    0.0000 </r>
       <r>   49.1429    0.0000 </r>
       <r>   49.1766    0.0000 </r>
       <r>   52.4724    0.0000 </r>
       <r>   52.6085    0.0000 </r>
       <r>   53.7284    0.0000 </r>
       <r>   55.8240    0.0000 </r>
       <r>   56.4025    0.0000 </r>
       <r>   57.1867    0.0000 </r>
       <r>   58.6318    0.0000 </r>
       <r>   60.4204    0.0000 </r>
       <r>   62.2659    0.0000 </r>
       <r>   62.5368    0.0000 </r>
       <r>   63.6988    0.0000 </r>
       <r>   64.8166    0.0000 </r>
       <r>   65.3316    0.0000 </r>
      </set>
      <set comment="kpoint 6">
       <r>    2.1387    1.0000 </r>
       <r>    2.3480    1.0000 </r>
       <r>    2.5557    1.0000 </r>
       <r>    4.7759    1.0000 </r>
       <r>    4.8421    1.0000 </r>
       <r>    5.0731    1.0000 </r>
       <r>    5.2715    1.0000 </r>
       <r>    7.4067   -0.0000 </r>
       <r>    7.5238   -0.0000 </r>
       <r>    7.6543   -0.0000 </r>
       <r>    8.7611   -0.0000 </r>
       <r>   12.0450    0.0000 </r>
       <r>   16.5120    0.0000 </r>
       <r>   17.6627    0.0000 </r>
       <r>   20.6758    0.0000 </r>
       <r>   22.3534    0.0000 </r>
       <r>   23.3421    0.0000 </r>
       <r>   29.4609    0.0000 </r>
       <r>   30.9272    0.0000 </r>
       <r>   33.4431    0.0000 </r>
       <r>   35.3044    0.0000 </r>
       <r>   38.2384    0.0000 </r>
       <r>   40.9533    0.0000 </r>
       <r>   41.5328    0.0000 </r>
       <r>   45.3626    0.0000 </r>
       <r>   49.6763    0.0000 </r>
       <r>   51.2636    0.0000 </r>
       <r>   54.7545    0.0000 </r>
       <r>   55.5280    0.0000 </r>
       <r>   56.0288    0.0000 </r>
       <r>   56.7815    0.0000 </r>
       <r>   58.5969    0.0000 </r>
       <r>   58.8849    0.0000 </r>
       <r>   60.4305    0.0000 </r>
       <r>   60.4956    0.0000 </r>
       <r>   61.0455    0.0000 </r>
       <r>   63.5755    0.0000 </r>
       <r>   63.8124    0.0000 </r>
       <r>   64.1818    0.0000 </r>
       <r>   64.7830    0.0000 </r>
      </set>
      <set comment="kpoint 7">
       <r>   -1.2563    1.0000 </r>
       <r>    2.3645    1.0000 </r>
       <r>    4.3303    1.0000 </r>
       <r>    4.4532    1.0000 </r>
       <r>    5.0716    1.0000 </r>
       <r>    5.1868    1.0000 </r>
       <r>    5.5623    1.0000 </r>
       <r>    5.6196    1.0000 </r>
       <r>    5.8679    1.0000 </r>
       <r>    5.9797    1.0004 </r>
       <r>    7.2920   -0.0000 </r>
       <r>    9.7382   -0.0000 </r>
       <r>   14.0309    0.0000 </r>
       <r>   25.7777    0.0000 </r>
       <r>   26.8912    0.0000 </r>
       <r>   31.1031    0.0000 </r>
       <r>   31.5041    0.0000 </r>
       <r>   32.3996    0.0000 </r>
       <r>   32.9037    0.0000 </r>
       <r>   34.8903    0.0000 </r>
       <r>   36.1901    0.0000 </r>
       <r>   39.2011    0.0000 </r>
       <r>   40.0837    0.0000 </r>
       <r>   40.5217    0.0000 </r>
       <r>   41.4517    0.0000 </r>
       <r>   41.5467    0.0000 </r>
       <r>   41.6139    0.0000 </r>
       <r>   47.8369    0.0000 </r>
       <r>   49.8975    0.0000 </r>
       <r>   49.9020    0.0000 </r>
       <r>   49.9543    0.0000 </r>
       <r>   54.1561    0.0000 </r>
       <r>   56.2311    0.0000 </r>
       <r>   57.4466    0.0000 </r>
       <r>   57.9363    0.0000 </r>
       <r>   59.6113    0.0000 </r>
       <r>   60.3014    0.0000 </r>
       <r>   63.8489    0.0000 </r>
       <r>   65.1827    0.0000 </r>
       <r>   66.1720    0.0000 </r>
      </set>
      <set comment="kpoint 8">
       <r>   -0.1428    1.0000 </r>
       <r>    2.8784    1.0000 </r>
       <r>    3.6548    1.0000 </r>
       <r>    3.9974    1.0000 </r>
       <r>    4.8342    1.0000 </r>
       <r>    5.2480    1.0000 </r>
       <r>    5.5831    1.0000 </r>
       <r>    5.7591    1.0000 </r>
       <r>    6.2075    1.0245 </r>
       <r>    6.5162    0.5208 </r>
       <r>    7.3148   -0.0000 </r>
       <r>   11.5556   -0.0000 </r>
       <r>   14.2334    0.0000 </r>
       <r>   22.1301    0.0000 </r>
       <r>   24.6069    0.0000 </r>
       <r>   28.1602    0.0000 </r>
       <r>   30.3262    0.0000 </r>
       <r>   30.3961    0.0000 </r>
       <r>   33.3751    0.0000 </r>
       <r>   34.6775    0.0000 </r>
       <r>   34.7310    0.0000 </r>
       <r>   39.3639    0.0000 </r>
       <r>   39.5153    0.0000 </r>
       <r>   39.9153    0.0000 </r>
       <r>   43.1650    0.0000 </r>
       <r>   44.2946    0.0000 </r>
       <r>   45.8721    0.0000 </r>
       <r>   50.1545    0.0000 </r>
       <r>   52.2334    0.0000 </r>
       <r>   52.8577    0.0000 </r>
       <r>   53.4793    0.0000 </r>
       <r>   55.3677    0.0000 </r>
       <r>   56.1246    0.0000 </r>
       <r>   56.5560    0.0000 </r>
       <r>   57.7126    0.0000 </r>
       <r>   57.8885    0.0000 </r>
       <r>   60.9996    0.0000 </r>
       <r>   64.0535    0.0000 </r>
       <r>   65.2649    0.0000 </r>
       <r>   66.3386    0.0000 </r>
      </set>
      <set comment="kpoint 9">
       <r>    1.1916    1.0000 </r>
       <r>    2.8754    1.0000 </r>
       <r>    3.0568    1.0000 </r>
       <r>    4.0178    1.0000 </r>
       <r>    4.8867    1.0000 </r>
       <r>    4.9619    1.0000 </r>
       <r>    5.4272    1.0000 </r>
       <r>    6.2561    1.0341 </r>
       <r>    6.9173   -0.0085 </r>
       <r>    7.3256   -0.0000 </r>
       <r>    7.3634   -0.0000 </r>
       <r>   13.6293    0.0000 </r>
       <r>   14.5256    0.0000 </r>
       <r>   18.5815    0.0000 </r>
       <r>   22.9537    0.0000 </r>
       <r>   24.8827    0.0000 </r>
       <r>   27.1266    0.0000 </r>
       <r>   29.1694    0.0000 </r>
       <r>   32.6119    0.0000 </r>
       <r>   33.5766    0.0000 </r>
       <r>   35.9773    0.0000 </r>
       <r>   39.2230    0.0000 </r>
       <r>   39.2675    0.0000 </r>
       <r>   41.5739    0.0000 </r>
       <r>   45.0753    0.0000 </r>
       <r>   47.9590    0.0000 </r>
       <r>   49.6915    0.0000 </r>
       <r>   50.7003    0.0000 </r>
       <r>   50.9566    0.0000 </r>
       <r>   53.9608    0.0000 </r>
       <r>   55.7408    0.0000 </r>
       <r>   56.0788    0.0000 </r>
       <r>   57.0232    0.0000 </r>
       <r>   57.9166    0.0000 </r>
       <r>   59.7457    0.0000 </r>
       <r>   61.6677    0.0000 </r>
       <r>   62.1224    0.0000 </r>
       <r>   63.7657    0.0000 </r>
       <r>   64.3261    0.0000 </r>
       <r>   66.2372    0.0000 </r>
      </set>
      <set comment="kpoint 10">
       <r>    2.1280    1.0000 </r>
       <r>    2.5941    1.0000 </r>
       <r>    2.6980    1.0000 </r>
       <r>    4.3595    1.0000 </r>
       <r>    4.8166    1.0000 </r>
       <r>    5.1154    1.0000 </r>
       <r>    5.1979    1.0000 </r>
       <r>    7.0531   -0.0005 </r>
       <r>    7.3259   -0.0000 </r>
       <r>    7.4206   -0.0000 </r>
       <r>    8.4752   -0.0000 </r>
       <r>   13.4515    0.0000 </r>
       <r>   15.8198    0.0000 </r>
       <r>   17.4105    0.0000 </r>
       <r>   21.7033    0.0000 </r>
       <r>   21.9785    0.0000 </r>
       <r>   24.0059    0.0000 </r>
       <r>   28.3011    0.0000 </r>
       <r>   31.6585    0.0000 </r>
       <r>   33.0377    0.0000 </r>
       <r>   36.6769    0.0000 </r>
       <r>   39.6885    0.0000 </r>
       <r>   40.6997    0.0000 </r>
       <r>   41.6930    0.0000 </r>
       <r>   47.2752    0.0000 </r>
       <r>   47.8752    0.0000 </r>
       <r>   50.1447    0.0000 </r>
       <r>   51.7564    0.0000 </r>
       <r>   53.0541    0.0000 </r>
       <r>   55.7511    0.0000 </r>
       <r>   55.7568    0.0000 </r>
       <r>   57.6108    0.0000 </r>
       <r>   58.9373    0.0000 </r>
       <r>   60.6820    0.0000 </r>
       <r>   61.0772    0.0000 </r>
       <r>   62.2331    0.0000 </r>
       <r>   62.9756    0.0000 </r>
       <r>   63.7730    0.0000 </r>
       <r>   65.1220    0.0000 </r>
       <r>   65.1366    0.0000 </r>
      </set>
      <set comment="kpoint 11">
       <r>    2.3768    1.0000 </r>
       <r>    2.4561    1.0000 </r>
       <r>    2.5793    1.0000 </r>
       <r>    4.6729    1.0000 </r>
       <r>    4.8026    1.0000 </r>
       <r>    4.9614    1.0000 </r>
       <r>    5.3163    1.0000 </r>
       <r>    7.3235   -0.0000 </r>
       <r>    7.4998   -0.0000 </r>
       <r>    7.5104   -0.0000 </r>
       <r>    9.6502   -0.0000 </r>
       <r>   11.6937   -0.0000 </r>
       <r>   17.3073    0.0000 </r>
       <r>   18.1107    0.0000 </r>
       <r>   20.2587    0.0000 </r>
       <r>   20.9849    0.0000 </r>
       <r>   22.5320    0.0000 </r>
       <r>   27.9991    0.0000 </r>
       <r>   31.2744    0.0000 </r>
       <r>   32.8674    0.0000 </r>
       <r>   36.7510    0.0000 </r>
       <r>   40.3403    0.0000 </r>
       <r>   40.9694    0.0000 </r>
       <r>   42.6196    0.0000 </r>
       <r>   44.9056    0.0000 </r>
       <r>   49.7808    0.0000 </r>
       <r>   50.0393    0.0000 </r>
       <r>   53.1503    0.0000 </r>
       <r>   54.4742    0.0000 </r>
       <r>   54.9269    0.0000 </r>
       <r>   57.9386    0.0000 </r>
       <r>   58.8176    0.0000 </r>
       <r>   59.1447    0.0000 </r>
       <r>   59.3464    0.0000 </r>
       <r>   60.8376    0.0000 </r>
       <r>   63.0984    0.0000 </r>
       <r>   64.3816    0.0000 </r>
       <r>   64.4801    0.0000 </r>
       <r>   64.8913    0.0000 </r>
       <r>   66.0984    0.0000 </r>
      </set>
      <set comment="kpoint 12">
       <r>    1.0706    1.0000 </r>
       <r>    3.1948    1.0000 </r>
       <r>    3.2818    1.0000 </r>
       <r>    3.5810    1.0000 </r>
       <r>    4.8558    1.0000 </r>
       <r>    4.8847    1.0000 </r>
       <r>    5.5732    1.0000 </r>
       <r>    5.8164    1.0000 </r>
       <r>    6.8981   -0.0114 </r>
       <r>    7.2475   -0.0000 </r>
       <r>    7.4162   -0.0000 </r>
       <r>   13.3650    0.0000 </r>
       <r>   14.6781    0.0000 </r>
       <r>   20.2287    0.0000 </r>
       <r>   20.9115    0.0000 </r>
       <r>   26.3985    0.0000 </r>
       <r>   27.6463    0.0000 </r>
       <r>   29.3430    0.0000 </r>
       <r>   30.0905    0.0000 </r>
       <r>   35.8280    0.0000 </r>
       <r>   36.4356    0.0000 </r>
       <r>   39.7649    0.0000 </r>
       <r>   40.4117    0.0000 </r>
       <r>   42.8391    0.0000 </r>
       <r>   43.3585    0.0000 </r>
       <r>   45.3119    0.0000 </r>
       <r>   46.8465    0.0000 </r>
       <r>   51.8038    0.0000 </r>
       <r>   52.2326    0.0000 </r>
       <r>   53.8863    0.0000 </r>
       <r>   54.2683    0.0000 </r>
       <r>   56.7814    0.0000 </r>
       <r>   56.8168    0.0000 </r>
       <r>   59.1224    0.0000 </r>
       <r>   59.5577    0.0000 </r>
       <r>   60.4485    0.0000 </r>
       <r>   60.5125    0.0000 </r>
       <r>   64.5634    0.0000 </r>
       <r>   64.6469    0.0000 </r>
       <r>   67.1214    0.0000 </r>
      </set>
      <set comment="kpoint 13">
       <r>    2.2697    1.0000 </r>
       <r>    2.8871    1.0000 </r>
       <r>    3.0799    1.0000 </r>
       <r>    3.7059    1.0000 </r>
       <r>    4.6432    1.0000 </r>
       <r>    5.1356    1.0000 </r>
       <r>    5.2289    1.0000 </r>
       <r>    6.3158    1.0277 </r>
       <r>    7.1859   -0.0000 </r>
       <r>    7.3816   -0.0000 </r>
       <r>    8.5773   -0.0000 </r>
       <r>   15.0160    0.0000 </r>
       <r>   15.4756    0.0000 </r>
       <r>   17.5411    0.0000 </r>
       <r>   19.3969    0.0000 </r>
       <r>   23.8044    0.0000 </r>
       <r>   26.0173    0.0000 </r>
       <r>   26.1218    0.0000 </r>
       <r>   28.7657    0.0000 </r>
       <r>   36.8510    0.0000 </r>
       <r>   37.7615    0.0000 </r>
       <r>   40.5140    0.0000 </r>
       <r>   42.5359    0.0000 </r>
       <r>   43.0059    0.0000 </r>
       <r>   44.9344    0.0000 </r>
       <r>   46.6296    0.0000 </r>
       <r>   48.1075    0.0000 </r>
       <r>   49.8716    0.0000 </r>
       <r>   52.9857    0.0000 </r>
       <r>   53.1436    0.0000 </r>
       <r>   55.0443    0.0000 </r>
       <r>   57.5895    0.0000 </r>
       <r>   59.1044    0.0000 </r>
       <r>   60.0867    0.0000 </r>
       <r>   62.1659    0.0000 </r>
       <r>   62.5052    0.0000 </r>
       <r>   63.3522    0.0000 </r>
       <r>   64.7357    0.0000 </r>
       <r>   65.2795    0.0000 </r>
       <r>   66.4410    0.0000 </r>
      </set>
      <set comment="kpoint 14">
       <r>    2.7395    1.0000 </r>
       <r>    2.7792    1.0000 </r>
       <r>    2.8603    1.0000 </r>
       <r>    4.1175    1.0000 </r>
       <r>    4.6556    1.0000 </r>
       <r>    4.8786    1.0000 </r>
       <r>    5.3795    1.0000 </r>
       <r>    6.9295   -0.0070 </r>
       <r>    7.1510   -0.0000 </r>
       <r>    7.4296   -0.0000 </r>
       <r>   10.0858   -0.0000 </r>
       <r>   13.0126    0.0000 </r>
       <r>   17.6357    0.0000 </r>
       <r>   17.9160    0.0000 </r>
       <r>   18.7476    0.0000 </r>
       <r>   21.2188    0.0000 </r>
       <r>   23.2019    0.0000 </r>
       <r>   25.5493    0.0000 </r>
       <r>   28.1305    0.0000 </r>
       <r>   36.6713    0.0000 </r>
       <r>   39.2651    0.0000 </r>
       <r>   41.1889    0.0000 </r>
       <r>   42.8480    0.0000 </r>
       <r>   43.3440    0.0000 </r>
       <r>   46.9597    0.0000 </r>
       <r>   47.0257    0.0000 </r>
       <r>   49.1878    0.0000 </r>
       <r>   49.3006    0.0000 </r>
       <r>   52.6592    0.0000 </r>
       <r>   54.0494    0.0000 </r>
       <r>   54.2254    0.0000 </r>
       <r>   58.0515    0.0000 </r>
       <r>   58.3419    0.0000 </r>
       <r>   59.7356    0.0000 </r>
       <r>   63.2320    0.0000 </r>
       <r>   64.3133    0.0000 </r>
       <r>   65.0713    0.0000 </r>
       <r>   65.5824    0.0000 </r>
       <r>   65.7804    0.0000 </r>
       <r>   66.1532    0.0000 </r>
      </set>
      <set comment="kpoint 15">
       <r>    2.8493    1.0000 </r>
       <r>    3.0634    1.0000 </r>
       <r>    3.4113    1.0000 </r>
       <r>    3.4325    1.0000 </r>
       <r>    4.5071    1.0000 </r>
       <r>    4.8980    1.0000 </r>
       <r>    5.4268    1.0000 </r>
       <r>    6.5601    0.3386 </r>
       <r>    7.0629   -0.0004 </r>
       <r>    7.4085   -0.0000 </r>
       <r>   10.1895   -0.0000 </r>
       <r>   15.0685    0.0000 </r>
       <r>   15.5393    0.0000 </r>
       <r>   17.6551    0.0000 </r>
       <r>   18.6758    0.0000 </r>
       <r>   23.1457    0.0000 </r>
       <r>   23.1821    0.0000 </r>
       <r>   24.8238    0.0000 </r>
       <r>   25.7144    0.0000 </r>
       <r>   39.1806    0.0000 </r>
       <r>   40.2065    0.0000 </r>
       <r>   42.4076    0.0000 </r>
       <r>   43.4427    0.0000 </r>
       <r>   45.1615    0.0000 </r>
       <r>   45.1731    0.0000 </r>
       <r>   45.2867    0.0000 </r>
       <r>   47.6833    0.0000 </r>
       <r>   50.1611    0.0000 </r>
       <r>   50.5473    0.0000 </r>
       <r>   53.2609    0.0000 </r>
       <r>   54.2012    0.0000 </r>
       <r>   56.4793    0.0000 </r>
       <r>   58.1449    0.0000 </r>
       <r>   59.9702    0.0000 </r>
       <r>   63.1756    0.0000 </r>
       <r>   64.4469    0.0000 </r>
       <r>   64.8973    0.0000 </r>
       <r>   66.3360    0.0000 </r>
       <r>   66.6027    0.0000 </r>
       <r>   66.6670    0.0000 </r>
      </set>
      <set comment="kpoint 16">
       <r>    2.8572    1.0000 </r>
       <r>    3.2534    1.0000 </r>
       <r>    3.2598    1.0000 </r>
       <r>    3.7322    1.0000 </r>
       <r>    4.5659    1.0000 </r>
       <r>    4.6475    1.0000 </r>
       <r>    5.5675    1.0000 </r>
       <r>    6.8868   -0.0134 </r>
       <r>    7.0166   -0.0013 </r>
       <r>    7.1532   -0.0000 </r>
       <r>   11.8911   -0.0000 </r>
       <r>   13.0744    0.0000 </r>
       <r>   15.1635    0.0000 </r>
       <r>   19.5530    0.0000 </r>
       <r>   19.6561    0.0000 </r>
       <r>   21.0107    0.0000 </r>
       <r>   22.9765    0.0000 </r>
       <r>   23.2571    0.0000 </r>
       <r>   25.1169    0.0000 </r>
       <r>   39.6573    0.0000 </r>
       <r>   42.2075    0.0000 </r>
       <r>   42.8645    0.0000 </r>
       <r>   43.7735    0.0000 </r>
       <r>   44.3635    0.0000 </r>
       <r>   46.1191    0.0000 </r>
       <r>   46.1631    0.0000 </r>
       <r>   48.6386    0.0000 </r>
       <r>   49.0959    0.0000 </r>
       <r>   49.3085    0.0000 </r>
       <r>   52.8104    0.0000 </r>
       <r>   54.4916    0.0000 </r>
       <r>   54.7298    0.0000 </r>
       <r>   58.0634    0.0000 </r>
       <r>   58.7677    0.0000 </r>
       <r>   64.6151    0.0000 </r>
       <r>   64.9736    0.0000 </r>
       <r>   65.9244    0.0000 </r>
       <r>   66.2390    0.0000 </r>
       <r>   66.8152    0.0000 </r>
       <r>   66.8818    0.0000 </r>
      </set>
      <set comment="kpoint 17">
       <r>   -2.0969    1.0000 </r>
       <r>    1.7164    1.0000 </r>
       <r>    4.6035    1.0000 </r>
       <r>    5.0109    1.0000 </r>
       <r>    5.0110    1.0000 </r>
       <r>    5.3357    1.0000 </r>
       <r>    5.3359    1.0000 </r>
       <r>    5.9576    1.0002 </r>
       <r>    6.1349    1.0099 </r>
       <r>    6.1349    1.0099 </r>
       <r>    7.2213   -0.0000 </r>
       <r>    7.2213   -0.0000 </r>
       <r>   14.3395    0.0000 </r>
       <r>   29.0657    0.0000 </r>
       <r>   30.1864    0.0000 </r>
       <r>   32.1438    0.0000 </r>
       <r>   33.8454    0.0000 </r>
       <r>   33.8454    0.0000 </r>
       <r>   34.6816    0.0000 </r>
       <r>   34.6819    0.0000 </r>
       <r>   37.4939    0.0000 </r>
       <r>   37.8561    0.0000 </r>
       <r>   37.8561    0.0000 </r>
       <r>   39.2958    0.0000 </r>
       <r>   41.0747    0.0000 </r>
       <r>   41.0747    0.0000 </r>
       <r>   42.7244    0.0000 </r>
       <r>   45.0695    0.0000 </r>
       <r>   45.0698    0.0000 </r>
       <r>   47.0014    0.0000 </r>
       <r>   47.0015    0.0000 </r>
       <r>   49.2960    0.0000 </r>
       <r>   56.9971    0.0000 </r>
       <r>   60.5414    0.0000 </r>
       <r>   60.5427    0.0000 </r>
       <r>   61.0565    0.0000 </r>
       <r>   61.0569    0.0000 </r>
       <r>   61.5630    0.0000 </r>
       <r>   62.8739    0.0000 </r>
       <r>   64.8498    0.0000 </r>
      </set>
      <set comment="kpoint 18">
       <r>   -1.7839    1.0000 </r>
       <r>    1.9458    1.0000 </r>
       <r>    4.5527    1.0000 </r>
       <r>    4.9962    1.0000 </r>
       <r>    5.0368    1.0000 </r>
       <r>    5.1835    1.0000 </r>
       <r>    5.3455    1.0000 </r>
       <r>    5.4952    1.0000 </r>
       <r>    6.0362    1.0016 </r>
       <r>    6.0379    1.0017 </r>
       <r>    7.2546   -0.0000 </r>
       <r>    8.2554   -0.0000 </r>
       <r>   14.3992    0.0000 </r>
       <r>   27.8405    0.0000 </r>
       <r>   30.0495    0.0000 </r>
       <r>   30.5764    0.0000 </r>
       <r>   31.2233    0.0000 </r>
       <r>   33.2096    0.0000 </r>
       <r>   34.6725    0.0000 </r>
       <r>   36.9389    0.0000 </r>
       <r>   37.0165    0.0000 </r>
       <r>   37.6453    0.0000 </r>
       <r>   38.2452    0.0000 </r>
       <r>   38.9233    0.0000 </r>
       <r>   42.1389    0.0000 </r>
       <r>   42.2972    0.0000 </r>
       <r>   43.1244    0.0000 </r>
       <r>   43.4065    0.0000 </r>
       <r>   46.2889    0.0000 </r>
       <r>   48.3331    0.0000 </r>
       <r>   49.3512    0.0000 </r>
       <r>   51.2741    0.0000 </r>
       <r>   55.9666    0.0000 </r>
       <r>   58.8545    0.0000 </r>
       <r>   59.4977    0.0000 </r>
       <r>   60.6607    0.0000 </r>
       <r>   61.1941    0.0000 </r>
       <r>   62.4669    0.0000 </r>
       <r>   63.7651    0.0000 </r>
       <r>   64.9935    0.0000 </r>
      </set>
      <set comment="kpoint 19">
       <r>   -0.8956    1.0000 </r>
       <r>    2.4946    1.0000 </r>
       <r>    4.0855    1.0000 </r>
       <r>    4.2934    1.0000 </r>
       <r>    4.8775    1.0000 </r>
       <r>    5.3476    1.0000 </r>
       <r>    5.5991    1.0000 </r>
       <r>    5.8336    1.0000 </r>
       <r>    5.8440    1.0000 </r>
       <r>    5.9770    1.0004 </r>
       <r>    7.3157   -0.0000 </r>
       <r>    9.8758   -0.0000 </r>
       <r>   14.6235    0.0000 </r>
       <r>   24.0951    0.0000 </r>
       <r>   28.5203    0.0000 </r>
       <r>   28.8013    0.0000 </r>
       <r>   30.1346    0.0000 </r>
       <r>   30.9742    0.0000 </r>
       <r>   34.3220    0.0000 </r>
       <r>   35.7988    0.0000 </r>
       <r>   35.9694    0.0000 </r>
       <r>   36.9246    0.0000 </r>
       <r>   39.1390    0.0000 </r>
       <r>   40.6917    0.0000 </r>
       <r>   42.2391    0.0000 </r>
       <r>   43.3818    0.0000 </r>
       <r>   44.9164    0.0000 </r>
       <r>   47.3748    0.0000 </r>
       <r>   48.9633    0.0000 </r>
       <r>   51.7285    0.0000 </r>
       <r>   52.2973    0.0000 </r>
       <r>   53.9204    0.0000 </r>
       <r>   54.7110    0.0000 </r>
       <r>   57.1251    0.0000 </r>
       <r>   58.0250    0.0000 </r>
       <r>   59.4024    0.0000 </r>
       <r>   60.9175    0.0000 </r>
       <r>   63.3997    0.0000 </r>
       <r>   65.1674    0.0000 </r>
       <r>   65.5449    0.0000 </r>
      </set>
      <set comment="kpoint 20">
       <r>    0.3778    1.0000 </r>
       <r>    2.8062    1.0000 </r>
       <r>    3.3275    1.0000 </r>
       <r>    4.1732    1.0000 </r>
       <r>    4.7036    1.0000 </r>
       <r>    5.3677    1.0000 </r>
       <r>    5.4645    1.0000 </r>
       <r>    6.1645    1.0151 </r>
       <r>    6.4087    0.9023 </r>
       <r>    6.5762    0.2762 </r>
       <r>    7.3594   -0.0000 </r>
       <r>   11.5655   -0.0000 </r>
       <r>   15.1287    0.0000 </r>
       <r>   20.2191    0.0000 </r>
       <r>   25.8504    0.0000 </r>
       <r>   26.2119    0.0000 </r>
       <r>   28.0902    0.0000 </r>
       <r>   30.8444    0.0000 </r>
       <r>   32.4774    0.0000 </r>
       <r>   34.7208    0.0000 </r>
       <r>   35.3728    0.0000 </r>
       <r>   37.6341    0.0000 </r>
       <r>   37.7055    0.0000 </r>
       <r>   41.5654    0.0000 </r>
       <r>   45.5730    0.0000 </r>
       <r>   47.2684    0.0000 </r>
       <r>   48.1481    0.0000 </r>
       <r>   48.7839    0.0000 </r>
       <r>   51.9517    0.0000 </r>
       <r>   52.5215    0.0000 </r>
       <r>   54.0540    0.0000 </r>
       <r>   55.5553    0.0000 </r>
       <r>   56.7416    0.0000 </r>
       <r>   56.8167    0.0000 </r>
       <r>   58.2914    0.0000 </r>
       <r>   59.5541    0.0000 </r>
       <r>   61.9367    0.0000 </r>
       <r>   63.4534    0.0000 </r>
       <r>   64.4896    0.0000 </r>
       <r>   65.8215    0.0000 </r>
      </set>
      <set comment="kpoint 21">
       <r>    1.5546    1.0000 </r>
       <r>    2.5665    1.0000 </r>
       <r>    2.8913    1.0000 </r>
       <r>    4.1704    1.0000 </r>
       <r>    5.0414    1.0000 </r>
       <r>    5.2402    1.0000 </r>
       <r>    5.2417    1.0000 </r>
       <r>    7.1035   -0.0002 </r>
       <r>    7.1693   -0.0000 </r>
       <r>    7.1880   -0.0000 </r>
       <r>    7.4034   -0.0000 </r>
       <r>   12.8880    0.0000 </r>
       <r>   15.5768    0.0000 </r>
       <r>   17.6487    0.0000 </r>
       <r>   22.7178    0.0000 </r>
       <r>   24.4513    0.0000 </r>
       <r>   25.4795    0.0000 </r>
       <r>   30.0237    0.0000 </r>
       <r>   31.3003    0.0000 </r>
       <r>   33.4341    0.0000 </r>
       <r>   36.4826    0.0000 </r>
       <r>   36.6045    0.0000 </r>
       <r>   38.9152    0.0000 </r>
       <r>   42.3531    0.0000 </r>
       <r>   46.9114    0.0000 </r>
       <r>   49.1066    0.0000 </r>
       <r>   50.6296    0.0000 </r>
       <r>   51.5847    0.0000 </r>
       <r>   52.7687    0.0000 </r>
       <r>   54.4817    0.0000 </r>
       <r>   55.3005    0.0000 </r>
       <r>   56.7647    0.0000 </r>
       <r>   57.1541    0.0000 </r>
       <r>   58.3740    0.0000 </r>
       <r>   60.5920    0.0000 </r>
       <r>   62.2101    0.0000 </r>
       <r>   63.0310    0.0000 </r>
       <r>   63.3732    0.0000 </r>
       <r>   65.0044    0.0000 </r>
       <r>   65.3556    0.0000 </r>
      </set>
      <set comment="kpoint 22">
       <r>    2.0502    1.0000 </r>
       <r>    2.2901    1.0000 </r>
       <r>    2.7684    1.0000 </r>
       <r>    4.2461    1.0000 </r>
       <r>    5.1120    1.0000 </r>
       <r>    5.2599    1.0000 </r>
       <r>    5.4611    1.0000 </r>
       <r>    7.3383   -0.0000 </r>
       <r>    7.5323   -0.0000 </r>
       <r>    7.6571   -0.0000 </r>
       <r>    8.6796   -0.0000 </r>
       <r>   11.8852   -0.0000 </r>
       <r>   16.2417    0.0000 </r>
       <r>   17.7743    0.0000 </r>
       <r>   20.7372    0.0000 </r>
       <r>   22.8363    0.0000 </r>
       <r>   23.4725    0.0000 </r>
       <r>   29.4424    0.0000 </r>
       <r>   30.9327    0.0000 </r>
       <r>   32.5980    0.0000 </r>
       <r>   36.1948    0.0000 </r>
       <r>   37.9340    0.0000 </r>
       <r>   39.2440    0.0000 </r>
       <r>   43.1451    0.0000 </r>
       <r>   45.1759    0.0000 </r>
       <r>   50.6370    0.0000 </r>
       <r>   50.7563    0.0000 </r>
       <r>   54.5174    0.0000 </r>
       <r>   54.5795    0.0000 </r>
       <r>   56.0099    0.0000 </r>
       <r>   57.4449    0.0000 </r>
       <r>   58.5568    0.0000 </r>
       <r>   58.6442    0.0000 </r>
       <r>   60.7633    0.0000 </r>
       <r>   60.8827    0.0000 </r>
       <r>   61.4359    0.0000 </r>
       <r>   63.5273    0.0000 </r>
       <r>   63.8818    0.0000 </r>
       <r>   64.4949    0.0000 </r>
       <r>   64.6804    0.0000 </r>
      </set>
      <set comment="kpoint 23">
       <r>   -1.1811    1.0000 </r>
       <r>    2.3498    1.0000 </r>
       <r>    4.3432    1.0000 </r>
       <r>    4.3433    1.0000 </r>
       <r>    5.0706    1.0000 </r>
       <r>    5.1051    1.0000 </r>
       <r>    5.5212    1.0000 </r>
       <r>    5.6955    1.0000 </r>
       <r>    5.8937    1.0000 </r>
       <r>    6.0362    1.0016 </r>
       <r>    7.2793   -0.0000 </r>
       <r>    9.4329   -0.0000 </r>
       <r>   14.5448    0.0000 </r>
       <r>   25.8239    0.0000 </r>
       <r>   26.9552    0.0000 </r>
       <r>   30.4161    0.0000 </r>
       <r>   30.9780    0.0000 </r>
       <r>   32.6408    0.0000 </r>
       <r>   33.4230    0.0000 </r>
       <r>   34.1504    0.0000 </r>
       <r>   36.7102    0.0000 </r>
       <r>   39.2713    0.0000 </r>
       <r>   40.2072    0.0000 </r>
       <r>   40.5491    0.0000 </r>
       <r>   40.9461    0.0000 </r>
       <r>   41.8962    0.0000 </r>
       <r>   42.5572    0.0000 </r>
       <r>   47.6491    0.0000 </r>
       <r>   49.4470    0.0000 </r>
       <r>   50.1633    0.0000 </r>
       <r>   50.5192    0.0000 </r>
       <r>   54.0919    0.0000 </r>
       <r>   54.5993    0.0000 </r>
       <r>   57.1237    0.0000 </r>
       <r>   58.8736    0.0000 </r>
       <r>   60.1691    0.0000 </r>
       <r>   60.1844    0.0000 </r>
       <r>   63.3605    0.0000 </r>
       <r>   65.0403    0.0000 </r>
       <r>   65.4198    0.0000 </r>
      </set>
      <set comment="kpoint 24">
       <r>   -0.0795    1.0000 </r>
       <r>    2.8848    1.0000 </r>
       <r>    3.5897    1.0000 </r>
       <r>    4.0185    1.0000 </r>
       <r>    4.8075    1.0000 </r>
       <r>    5.1828    1.0000 </r>
       <r>    5.6491    1.0000 </r>
       <r>    5.7568    1.0000 </r>
       <r>    6.2630    1.0349 </r>
       <r>    6.4979    0.5976 </r>
       <r>    7.2996   -0.0000 </r>
       <r>   11.0025   -0.0000 </r>
       <r>   14.9451    0.0000 </r>
       <r>   22.1956    0.0000 </r>
       <r>   24.6749    0.0000 </r>
       <r>   27.7302    0.0000 </r>
       <r>   29.9046    0.0000 </r>
       <r>   30.8255    0.0000 </r>
       <r>   33.4253    0.0000 </r>
       <r>   33.7993    0.0000 </r>
       <r>   35.2340    0.0000 </r>
       <r>   38.6550    0.0000 </r>
       <r>   40.2859    0.0000 </r>
       <r>   40.6970    0.0000 </r>
       <r>   43.2770    0.0000 </r>
       <r>   44.1430    0.0000 </r>
       <r>   46.1338    0.0000 </r>
       <r>   49.7284    0.0000 </r>
       <r>   51.6848    0.0000 </r>
       <r>   53.0399    0.0000 </r>
       <r>   53.3556    0.0000 </r>
       <r>   55.1421    0.0000 </r>
       <r>   55.4434    0.0000 </r>
       <r>   57.1012    0.0000 </r>
       <r>   57.6443    0.0000 </r>
       <r>   58.9127    0.0000 </r>
       <r>   61.0638    0.0000 </r>
       <r>   63.9638    0.0000 </r>
       <r>   64.9697    0.0000 </r>
       <r>   65.4567    0.0000 </r>
      </set>
      <set comment="kpoint 25">
       <r>    1.2227    1.0000 </r>
       <r>    2.8773    1.0000 </r>
       <r>    3.0567    1.0000 </r>
       <r>    4.0151    1.0000 </r>
       <r>    4.7818    1.0000 </r>
       <r>    5.1030    1.0000 </r>
       <r>    5.4238    1.0000 </r>
       <r>    6.2668    1.0351 </r>
       <r>    6.9411   -0.0057 </r>
       <r>    7.1895   -0.0000 </r>
       <r>    7.4478   -0.0000 </r>
       <r>   12.5901    0.0000 </r>
       <r>   15.6642    0.0000 </r>
       <r>   18.6597    0.0000 </r>
       <r>   23.0181    0.0000 </r>
       <r>   24.4499    0.0000 </r>
       <r>   27.6027    0.0000 </r>
       <r>   28.8778    0.0000 </r>
       <r>   32.9463    0.0000 </r>
       <r>   33.4850    0.0000 </r>
       <r>   35.1067    0.0000 </r>
       <r>   38.4826    0.0000 </r>
       <r>   40.4264    0.0000 </r>
       <r>   42.3576    0.0000 </r>
       <r>   45.0061    0.0000 </r>
       <r>   47.1218    0.0000 </r>
       <r>   49.0425    0.0000 </r>
       <r>   50.7837    0.0000 </r>
       <r>   51.9773    0.0000 </r>
       <r>   53.5606    0.0000 </r>
       <r>   55.9019    0.0000 </r>
       <r>   56.2439    0.0000 </r>
       <r>   56.8614    0.0000 </r>
       <r>   58.1529    0.0000 </r>
       <r>   60.0299    0.0000 </r>
       <r>   61.0854    0.0000 </r>
       <r>   62.5780    0.0000 </r>
       <r>   63.5868    0.0000 </r>
       <r>   64.3028    0.0000 </r>
       <r>   65.7425    0.0000 </r>
      </set>
      <set comment="kpoint 26">
       <r>    2.0717    1.0000 </r>
       <r>    2.5532    1.0000 </r>
       <r>    2.8543    1.0000 </r>
       <r>    4.1218    1.0000 </r>
       <r>    4.9733    1.0000 </r>
       <r>    5.1808    1.0000 </r>
       <r>    5.2815    1.0000 </r>
       <r>    7.0386   -0.0008 </r>
       <r>    7.2625   -0.0000 </r>
       <r>    7.4364   -0.0000 </r>
       <r>    8.4605   -0.0000 </r>
       <r>   13.0424    0.0000 </r>
       <r>   15.8386    0.0000 </r>
       <r>   17.8241    0.0000 </r>
       <r>   21.4093    0.0000 </r>
       <r>   22.0619    0.0000 </r>
       <r>   24.5282    0.0000 </r>
       <r>   28.0151    0.0000 </r>
       <r>   31.9381    0.0000 </r>
       <r>   33.0331    0.0000 </r>
       <r>   36.1088    0.0000 </r>
       <r>   38.6627    0.0000 </r>
       <r>   40.9833    0.0000 </r>
       <r>   42.9473    0.0000 </r>
       <r>   46.1661    0.0000 </r>
       <r>   48.2377    0.0000 </r>
       <r>   50.1636    0.0000 </r>
       <r>   51.9446    0.0000 </r>
       <r>   53.7408    0.0000 </r>
       <r>   55.4722    0.0000 </r>
       <r>   55.7618    0.0000 </r>
       <r>   57.4371    0.0000 </r>
       <r>   58.9618    0.0000 </r>
       <r>   60.6584    0.0000 </r>
       <r>   61.3733    0.0000 </r>
       <r>   62.1359    0.0000 </r>
       <r>   63.1103    0.0000 </r>
       <r>   63.5546    0.0000 </r>
       <r>   64.8564    0.0000 </r>
       <r>   65.7602    0.0000 </r>
      </set>
      <set comment="kpoint 27">
       <r>    2.2441    1.0000 </r>
       <r>    2.3933    1.0000 </r>
       <r>    2.8506    1.0000 </r>
       <r>    4.2070    1.0000 </r>
       <r>    4.9379    1.0000 </r>
       <r>    5.3031    1.0000 </r>
       <r>    5.3754    1.0000 </r>
       <r>    7.2556   -0.0000 </r>
       <r>    7.4954   -0.0000 </r>
       <r>    7.5188   -0.0000 </r>
       <r>    9.5950   -0.0000 </r>
       <r>   11.6260   -0.0000 </r>
       <r>   17.0918    0.0000 </r>
       <r>   17.6804    0.0000 </r>
       <r>   20.8434    0.0000 </r>
       <r>   21.1956    0.0000 </r>
       <r>   22.8284    0.0000 </r>
       <r>   27.7139    0.0000 </r>
       <r>   31.5404    0.0000 </r>
       <r>   32.8777    0.0000 </r>
       <r>   36.4445    0.0000 </r>
       <r>   39.1764    0.0000 </r>
       <r>   40.6251    0.0000 </r>
       <r>   44.3450    0.0000 </r>
       <r>   44.5515    0.0000 </r>
       <r>   49.1917    0.0000 </r>
       <r>   50.5777    0.0000 </r>
       <r>   53.3720    0.0000 </r>
       <r>   54.5796    0.0000 </r>
       <r>   55.2951    0.0000 </r>
       <r>   57.5439    0.0000 </r>
       <r>   58.3337    0.0000 </r>
       <r>   59.3150    0.0000 </r>
       <r>   59.5448    0.0000 </r>
       <r>   60.6670    0.0000 </r>
       <r>   63.4794    0.0000 </r>
       <r>   64.2910    0.0000 </r>
       <r>   64.8716    0.0000 </r>
       <r>   65.0138    0.0000 </r>
       <r>   66.0252    0.0000 </r>
      </set>
      <set comment="kpoint 28">
       <r>    1.1132    1.0000 </r>
       <r>    3.1451    1.0000 </r>
       <r>    3.3203    1.0000 </r>
       <r>    3.6004    1.0000 </r>
       <r>    4.8317    1.0000 </r>
       <r>    4.8836    1.0000 </r>
       <r>    5.5396    1.0000 </r>
       <r>    5.8699    1.0000 </r>
       <r>    6.9358   -0.0063 </r>
       <r>    7.1300   -0.0001 </r>
       <r>    7.4870   -0.0000 </r>
       <r>   12.4644    0.0000 </r>
       <r>   15.7020    0.0000 </r>
       <r>   20.2992    0.0000 </r>
       <r>   20.9928    0.0000 </r>
       <r>   25.9913    0.0000 </r>
       <r>   27.1473    0.0000 </r>
       <r>   29.8636    0.0000 </r>
       <r>   30.5541    0.0000 </r>
       <r>   34.6415    0.0000 </r>
       <r>   36.7938    0.0000 </r>
       <r>   39.7303    0.0000 </r>
       <r>   41.2677    0.0000 </r>
       <r>   42.7201    0.0000 </r>
       <r>   42.7757    0.0000 </r>
       <r>   45.9906    0.0000 </r>
       <r>   46.8416    0.0000 </r>
       <r>   50.8936    0.0000 </r>
       <r>   52.0132    0.0000 </r>
       <r>   53.1933    0.0000 </r>
       <r>   55.9880    0.0000 </r>
       <r>   56.8953    0.0000 </r>
       <r>   57.0533    0.0000 </r>
       <r>   58.5564    0.0000 </r>
       <r>   59.1565    0.0000 </r>
       <r>   60.9642    0.0000 </r>
       <r>   60.9994    0.0000 </r>
       <r>   64.4417    0.0000 </r>
       <r>   64.5924    0.0000 </r>
       <r>   65.4496    0.0000 </r>
      </set>
      <set comment="kpoint 29">
       <r>    2.2609    1.0000 </r>
       <r>    2.8880    1.0000 </r>
       <r>    3.1080    1.0000 </r>
       <r>    3.7197    1.0000 </r>
       <r>    4.6655    1.0000 </r>
       <r>    5.0978    1.0000 </r>
       <r>    5.2575    1.0000 </r>
       <r>    6.3341    1.0170 </r>
       <r>    7.1131   -0.0001 </r>
       <r>    7.4115   -0.0000 </r>
       <r>    8.5982   -0.0000 </r>
       <r>   13.9046    0.0000 </r>
       <r>   16.4593    0.0000 </r>
       <r>   17.8074    0.0000 </r>
       <r>   19.4795    0.0000 </r>
       <r>   23.3366    0.0000 </r>
       <r>   25.6486    0.0000 </r>
       <r>   26.6159    0.0000 </r>
       <r>   29.3184    0.0000 </r>
       <r>   36.0597    0.0000 </r>
       <r>   37.4719    0.0000 </r>
       <r>   40.7140    0.0000 </r>
       <r>   42.5406    0.0000 </r>
       <r>   43.2924    0.0000 </r>
       <r>   44.9649    0.0000 </r>
       <r>   45.9058    0.0000 </r>
       <r>   48.7789    0.0000 </r>
       <r>   49.7814    0.0000 </r>
       <r>   52.2422    0.0000 </r>
       <r>   54.2316    0.0000 </r>
       <r>   55.5425    0.0000 </r>
       <r>   57.6263    0.0000 </r>
       <r>   59.0686    0.0000 </r>
       <r>   60.0214    0.0000 </r>
       <r>   62.1306    0.0000 </r>
       <r>   62.4091    0.0000 </r>
       <r>   63.3100    0.0000 </r>
       <r>   64.5914    0.0000 </r>
       <r>   65.1457    0.0000 </r>
       <r>   66.3145    0.0000 </r>
      </set>
      <set comment="kpoint 30">
       <r>    2.5660    1.0000 </r>
       <r>    2.8412    1.0000 </r>
       <r>    3.0464    1.0000 </r>
       <r>    3.9653    1.0000 </r>
       <r>    4.6958    1.0000 </r>
       <r>    4.9294    1.0000 </r>
       <r>    5.4369    1.0000 </r>
       <r>    6.9319   -0.0067 </r>
       <r>    7.0778   -0.0003 </r>
       <r>    7.4488   -0.0000 </r>
       <r>   10.1052   -0.0000 </r>
       <r>   12.9384    0.0000 </r>
       <r>   16.9460    0.0000 </r>
       <r>   18.4715    0.0000 </r>
       <r>   18.7049    0.0000 </r>
       <r>   21.3030    0.0000 </r>
       <r>   23.7283    0.0000 </r>
       <r>   25.0696    0.0000 </r>
       <r>   28.7211    0.0000 </r>
       <r>   36.5436    0.0000 </r>
       <r>   38.3880    0.0000 </r>
       <r>   40.0718    0.0000 </r>
       <r>   43.4761    0.0000 </r>
       <r>   44.2358    0.0000 </r>
       <r>   46.2608    0.0000 </r>
       <r>   46.9851    0.0000 </r>
       <r>   48.6618    0.0000 </r>
       <r>   50.7259    0.0000 </r>
       <r>   53.1439    0.0000 </r>
       <r>   53.9400    0.0000 </r>
       <r>   54.4249    0.0000 </r>
       <r>   57.9115    0.0000 </r>
       <r>   58.2615    0.0000 </r>
       <r>   60.0684    0.0000 </r>
       <r>   62.9379    0.0000 </r>
       <r>   64.0478    0.0000 </r>
       <r>   64.8685    0.0000 </r>
       <r>   65.0697    0.0000 </r>
       <r>   66.1339    0.0000 </r>
       <r>   66.4272    0.0000 </r>
      </set>
      <set comment="kpoint 31">
       <r>    2.8410    1.0000 </r>
       <r>    3.0667    1.0000 </r>
       <r>    3.3915    1.0000 </r>
       <r>    3.4860    1.0000 </r>
       <r>    4.5530    1.0000 </r>
       <r>    4.8382    1.0000 </r>
       <r>    5.4383    1.0000 </r>
       <r>    6.5862    0.2399 </r>
       <r>    6.9865   -0.0024 </r>
       <r>    7.4331   -0.0000 </r>
       <r>   10.2315   -0.0000 </r>
       <r>   14.7912    0.0000 </r>
       <r>   15.6172    0.0000 </r>
       <r>   17.3824    0.0000 </r>
       <r>   19.2496    0.0000 </r>
       <r>   22.6451    0.0000 </r>
       <r>   22.7590    0.0000 </r>
       <r>   25.5305    0.0000 </r>
       <r>   26.3196    0.0000 </r>
       <r>   37.9085    0.0000 </r>
       <r>   40.4978    0.0000 </r>
       <r>   42.1574    0.0000 </r>
       <r>   42.7196    0.0000 </r>
       <r>   44.5139    0.0000 </r>
       <r>   45.1423    0.0000 </r>
       <r>   46.8683    0.0000 </r>
       <r>   48.3206    0.0000 </r>
       <r>   50.1363    0.0000 </r>
       <r>   50.5066    0.0000 </r>
       <r>   53.3986    0.0000 </r>
       <r>   54.7556    0.0000 </r>
       <r>   56.7667    0.0000 </r>
       <r>   57.7864    0.0000 </r>
       <r>   60.3006    0.0000 </r>
       <r>   63.1672    0.0000 </r>
       <r>   64.4027    0.0000 </r>
       <r>   64.7743    0.0000 </r>
       <r>   66.1810    0.0000 </r>
       <r>   66.6039    0.0000 </r>
       <r>   66.6237    0.0000 </r>
      </set>
      <set comment="kpoint 32">
       <r>    2.8547    1.0000 </r>
       <r>    3.2827    1.0000 </r>
       <r>    3.2973    1.0000 </r>
       <r>    3.6947    1.0000 </r>
       <r>    4.5469    1.0000 </r>
       <r>    4.6493    1.0000 </r>
       <r>    5.5754    1.0000 </r>
       <r>    6.9080   -0.0098 </r>
       <r>    6.9371   -0.0061 </r>
       <r>    7.1773   -0.0000 </r>
       <r>   11.9674   -0.0000 </r>
       <r>   13.0761    0.0000 </r>
       <r>   15.1874    0.0000 </r>
       <r>   19.0251    0.0000 </r>
       <r>   19.2516    0.0000 </r>
       <r>   21.3973    0.0000 </r>
       <r>   22.8199    0.0000 </r>
       <r>   23.7508    0.0000 </r>
       <r>   25.7612    0.0000 </r>
       <r>   38.8716    0.0000 </r>
       <r>   40.9936    0.0000 </r>
       <r>   42.1248    0.0000 </r>
       <r>   43.4509    0.0000 </r>
       <r>   45.3074    0.0000 </r>
       <r>   46.2885    0.0000 </r>
       <r>   47.3352    0.0000 </r>
       <r>   48.7293    0.0000 </r>
       <r>   49.0405    0.0000 </r>
       <r>   50.1120    0.0000 </r>
       <r>   52.5760    0.0000 </r>
       <r>   54.2036    0.0000 </r>
       <r>   55.0951    0.0000 </r>
       <r>   58.3221    0.0000 </r>
       <r>   58.9987    0.0000 </r>
       <r>   64.5268    0.0000 </r>
       <r>   64.9297    0.0000 </r>
       <r>   65.9315    0.0000 </r>
       <r>   66.0747    0.0000 </r>
       <r>   66.8935    0.0000 </r>
       <r>   66.9602    0.0000 </r>
      </set>
      <set comment="kpoint 33">
       <r>   -1.8566    1.0000 </r>
       <r>    1.6053    1.0000 </r>
       <r>    4.5373    1.0000 </r>
       <r>    4.9837    1.0000 </r>
       <r>    4.9838    1.0000 </r>
       <r>    5.2809    1.0000 </r>
       <r>    5.2811    1.0000 </r>
       <r>    5.4049    1.0000 </r>
       <r>    6.2546    1.0339 </r>
       <r>    6.2547    1.0339 </r>
       <r>    7.1963   -0.0000 </r>
       <r>    7.1963   -0.0000 </r>
       <r>   15.4037    0.0000 </r>
       <r>   28.0993    0.0000 </r>
       <r>   29.6911    0.0000 </r>
       <r>   31.7020    0.0000 </r>
       <r>   34.0214    0.0000 </r>
       <r>   34.0215    0.0000 </r>
       <r>   34.7572    0.0000 </r>
       <r>   34.7574    0.0000 </r>
       <r>   37.5869    0.0000 </r>
[...]
       <r>   20.6860    0.0000 </r>
       <r>   21.4352    0.0000 </r>
       <r>   26.4392    0.0000 </r>
       <r>   27.5623    0.0000 </r>
       <r>   31.7432    0.0000 </r>
       <r>   32.8103    0.0000 </r>
       <r>   34.8353    0.0000 </r>
       <r>   36.2629    0.0000 </r>
       <r>   40.6245    0.0000 </r>
       <r>   40.9236    0.0000 </r>
       <r>   49.7692    0.0000 </r>
       <r>   50.4007    0.0000 </r>
       <r>   51.4991    0.0000 </r>
       <r>   53.1980    0.0000 </r>
       <r>   54.5394    0.0000 </r>
       <r>   55.1353    0.0000 </r>
       <r>   56.9607    0.0000 </r>
       <r>   58.6229    0.0000 </r>
       <r>   60.3907    0.0000 </r>
       <r>   60.7878    0.0000 </r>
       <r>   62.4517    0.0000 </r>
       <r>   62.5276    0.0000 </r>
       <r>   63.4668    0.0000 </r>
       <r>   63.8286    0.0000 </r>
       <r>   64.5406    0.0000 </r>
       <r>   65.0733    0.0000 </r>
      </set>
      <set comment="kpoint 95">
       <r>    2.8397    1.0000 </r>
       <r>    2.8751    1.0000 </r>
       <r>    3.7864    1.0000 </r>
       <r>    4.0026    1.0000 </r>
       <r>    4.3364    1.0000 </r>
       <r>    4.5430    1.0000 </r>
       <r>    5.7089    1.0000 </r>
       <r>    5.9053    1.0001 </r>
       <r>    7.2995   -0.0000 </r>
       <r>    7.4655   -0.0000 </r>
       <r>   11.1725   -0.0000 </r>
       <r>   11.7039   -0.0000 </r>
       <r>   17.1886    0.0000 </r>
       <r>   17.6077    0.0000 </r>
       <r>   18.9191    0.0000 </r>
       <r>   19.3004    0.0000 </r>
       <r>   26.5712    0.0000 </r>
       <r>   28.2084    0.0000 </r>
       <r>   31.8497    0.0000 </r>
       <r>   33.2533    0.0000 </r>
       <r>   34.7177    0.0000 </r>
       <r>   35.8102    0.0000 </r>
       <r>   42.5631    0.0000 </r>
       <r>   42.9537    0.0000 </r>
       <r>   46.7039    0.0000 </r>
       <r>   46.8303    0.0000 </r>
       <r>   53.8580    0.0000 </r>
       <r>   54.5913    0.0000 </r>
       <r>   54.7359    0.0000 </r>
       <r>   56.3072    0.0000 </r>
       <r>   57.6213    0.0000 </r>
       <r>   57.9540    0.0000 </r>
       <r>   58.7716    0.0000 </r>
       <r>   59.2807    0.0000 </r>
       <r>   61.5313    0.0000 </r>
       <r>   62.3717    0.0000 </r>
       <r>   63.3491    0.0000 </r>
       <r>   63.4616    0.0000 </r>
       <r>   64.4922    0.0000 </r>
       <r>   64.8381    0.0000 </r>
      </set>
      <set comment="kpoint 96">
       <r>    3.0286    1.0000 </r>
       <r>    3.1501    1.0000 </r>
       <r>    3.7083    1.0000 </r>
       <r>    3.7844    1.0000 </r>
       <r>    4.3694    1.0000 </r>
       <r>    4.4769    1.0000 </r>
       <r>    5.7800    1.0000 </r>
       <r>    5.9312    1.0001 </r>
       <r>    7.2703   -0.0000 </r>
       <r>    7.3326   -0.0000 </r>
       <r>   12.9309    0.0000 </r>
       <r>   13.0474    0.0000 </r>
       <r>   15.5800    0.0000 </r>
       <r>   15.9158    0.0000 </r>
       <r>   18.2810    0.0000 </r>
       <r>   18.7344    0.0000 </r>
       <r>   28.2241    0.0000 </r>
       <r>   28.9278    0.0000 </r>
       <r>   30.9957    0.0000 </r>
       <r>   31.3861    0.0000 </r>
       <r>   34.4717    0.0000 </r>
       <r>   35.3052    0.0000 </r>
       <r>   43.7125    0.0000 </r>
       <r>   44.3489    0.0000 </r>
       <r>   48.2797    0.0000 </r>
       <r>   48.6858    0.0000 </r>
       <r>   50.8785    0.0000 </r>
       <r>   51.2565    0.0000 </r>
       <r>   55.5611    0.0000 </r>
       <r>   57.2333    0.0000 </r>
       <r>   58.0571    0.0000 </r>
       <r>   59.3638    0.0000 </r>
       <r>   59.7114    0.0000 </r>
       <r>   60.0232    0.0000 </r>
       <r>   60.5249    0.0000 </r>
       <r>   61.5680    0.0000 </r>
       <r>   63.0997    0.0000 </r>
       <r>   64.1821    0.0000 </r>
       <r>   66.0674    0.0000 </r>
       <r>   66.0910    0.0000 </r>
      </set>
     </set>
    </set>
   </array>
  </eigenvalues>
  <separator name="orbital magnetization" >
   <v name="MAGDIPOLOUT">      0.00000000      0.00000000      0.00000000</v>
  </separator>
  <dos>
   <i name="efermi">      6.52110359 </i>
   <total>
    <array>
     <dimension dim="1">gridpoints</dimension>
     <dimension dim="2">spin</dimension>
     <field>energy</field>
     <field>total</field>
     <field>integrated</field>
     <set>
      <set comment="spin 1">
       <r>    -5.6705     0.0000     0.0000 </r>
       <r>    -5.4144     0.0000     0.0000 </r>
       <r>    -5.1583     0.0000     0.0000 </r>
       <r>    -4.9022     0.0000     0.0000 </r>
       <r>    -4.6461     0.0000     0.0000 </r>
       <r>    -4.3899     0.0000     0.0000 </r>
       <r>    -4.1338     0.0000     0.0000 </r>
       <r>    -3.8777    -0.0000    -0.0000 </r>
       <r>    -3.6216    -0.0000    -0.0000 </r>
       <r>    -3.3655    -0.0000    -0.0000 </r>
       <r>    -3.1094    -0.0000    -0.0000 </r>
       <r>    -2.8532    -0.0000    -0.0000 </r>
       <r>    -2.5971    -0.0000    -0.0000 </r>
       <r>    -2.3410    -0.0004    -0.0001 </r>
       <r>    -2.0849     0.0084     0.0020 </r>
       <r>    -1.8288     0.0599     0.0174 </r>
       <r>    -1.5727     0.0982     0.0425 </r>
       <r>    -1.3165     0.0656     0.0593 </r>
       <r>    -1.0604     0.1633     0.1011 </r>
       <r>    -0.8043     0.1804     0.1473 </r>
       <r>    -0.5482     0.1833     0.1943 </r>
       <r>    -0.2921     0.0852     0.2161 </r>
       <r>    -0.0359     0.2935     0.2913 </r>
       <r>     0.2202     0.2832     0.3638 </r>
       <r>     0.4763     0.2978     0.4401 </r>
       <r>     0.7324     0.2928     0.5151 </r>
       <r>     0.9885     0.2033     0.5671 </r>
       <r>     1.2446     0.5535     0.7089 </r>
       <r>     1.5008     0.6453     0.8741 </r>
       <r>     1.7569     0.7830     1.0747 </r>
       <r>     2.0130     1.4927     1.4570 </r>
       <r>     2.2691     2.0058     1.9707 </r>
       <r>     2.5252     2.7062     2.6638 </r>
       <r>     2.7813     2.3183     3.2576 </r>
       <r>     3.0375     3.1290     4.0590 </r>
       <r>     3.2936     2.2361     4.6317 </r>
       <r>     3.5497     3.2621     5.4672 </r>
       <r>     3.8058     3.3733     6.3311 </r>
       <r>     4.0619     3.1706     7.1432 </r>
       <r>     4.3181     2.2389     7.7166 </r>
       <r>     4.5742     2.9891     8.4822 </r>
       <r>     4.8303     4.3062     9.5851 </r>
       <r>     5.0864     4.2111    10.6636 </r>
       <r>     5.3425     4.4138    11.7940 </r>
       <r>     5.5986     4.4650    12.9376 </r>
       <r>     5.8548     3.6911    13.8830 </r>
       <r>     6.1109     3.0216    14.6569 </r>
       <r>     6.3670     3.3303    15.5098 </r>
       <r>     6.6231     2.9067    16.2543 </r>
       <r>     6.8792     2.7876    16.9682 </r>
       <r>     7.1353     5.0415    18.2595 </r>
       <r>     7.3915     5.7055    19.7207 </r>
       <r>     7.6476     4.8484    20.9625 </r>
       <r>     7.9037     1.0839    21.2401 </r>
       <r>     8.1598     0.0794    21.2604 </r>
       <r>     8.4159     0.8275    21.4724 </r>
       <r>     8.6721     1.0564    21.7429 </r>
       <r>     8.9282     0.5236    21.8770 </r>
       <r>     9.1843     0.4575    21.9942 </r>
       <r>     9.4404     0.6462    22.1597 </r>
       <r>     9.6965     0.3805    22.2572 </r>
       <r>     9.9526     0.2134    22.3118 </r>
       <r>    10.2088     0.8501    22.5295 </r>
       <r>    10.4649     0.7034    22.7097 </r>
       <r>    10.7210     0.3980    22.8116 </r>
       <r>    10.9771     0.2662    22.8798 </r>
       <r>    11.2332     0.4487    22.9947 </r>
       <r>    11.4894     0.4803    23.1177 </r>
       <r>    11.7455     0.4964    23.2449 </r>
       <r>    12.0016     0.2563    23.3105 </r>
       <r>    12.2577     0.3140    23.3909 </r>
       <r>    12.5138     0.3326    23.4761 </r>
       <r>    12.7699     0.4316    23.5866 </r>
       <r>    13.0261     0.5297    23.7223 </r>
       <r>    13.2822     0.4956    23.8492 </r>
       <r>    13.5383     0.0959    23.8738 </r>
       <r>    13.7944     0.0802    23.8943 </r>
       <r>    14.0505     0.2354    23.9546 </r>
       <r>    14.3066     0.2063    24.0074 </r>
       <r>    14.5628     0.2325    24.0670 </r>
       <r>    14.8189     0.1948    24.1169 </r>
       <r>    15.0750     0.2515    24.1813 </r>
       <r>    15.3311     0.2872    24.2549 </r>
       <r>    15.5872     0.3938    24.3557 </r>
       <r>    15.8434     0.9491    24.5988 </r>
       <r>    16.0995     0.9691    24.8470 </r>
       <r>    16.3556     0.6656    25.0175 </r>
       <r>    16.6117     0.7818    25.2177 </r>
       <r>    16.8678     0.3189    25.2994 </r>
       <r>    17.1239     0.6626    25.4691 </r>
       <r>    17.3801     0.7929    25.6722 </r>
       <r>    17.6362     0.8512    25.8902 </r>
       <r>    17.8923     0.7985    26.0947 </r>
       <r>    18.1484     0.5972    26.2477 </r>
       <r>    18.4045     0.6107    26.4041 </r>
       <r>    18.6606     0.8669    26.6261 </r>
       <r>    18.9168     0.8426    26.8419 </r>
       <r>    19.1729     0.5489    26.9825 </r>
       <r>    19.4290     0.8056    27.1888 </r>
       <r>    19.6851     0.5489    27.3294 </r>
       <r>    19.9412     0.6970    27.5079 </r>
       <r>    20.1974     0.6072    27.6634 </r>
       <r>    20.4535     0.3244    27.7465 </r>
       <r>    20.7096     0.6503    27.9131 </r>
       <r>    20.9657     0.5482    28.0535 </r>
       <r>    21.2218     0.5525    28.1950 </r>
       <r>    21.4779     0.9009    28.4257 </r>
       <r>    21.7341     0.4560    28.5425 </r>
       <r>    21.9902     0.6704    28.7142 </r>
       <r>    22.2463     0.9550    28.9588 </r>
       <r>    22.5024     0.8344    29.1725 </r>
       <r>    22.7585     0.8248    29.3837 </r>
       <r>    23.0146     0.9637    29.6305 </r>
       <r>    23.2708     0.8248    29.8418 </r>
       <r>    23.5269     0.8392    30.0567 </r>
       <r>    23.7830     0.8114    30.2645 </r>
       <r>    24.0391     1.1884    30.5689 </r>
       <r>    24.2952     0.4500    30.6841 </r>
       <r>    24.5514     0.8023    30.8896 </r>
       <r>    24.8075     1.1157    31.1754 </r>
       <r>    25.0636     1.4915    31.5574 </r>
       <r>    25.3197     0.7949    31.7609 </r>
       <r>    25.5758     0.6906    31.9378 </r>
       <r>    25.8319     0.6163    32.0956 </r>
       <r>    26.0881     0.7258    32.2815 </r>
       <r>    26.3442     1.3891    32.6373 </r>
       <r>    26.6003     0.9982    32.8930 </r>
       <r>    26.8564     0.7713    33.0905 </r>
       <r>    27.1125     0.8397    33.3056 </r>
       <r>    27.3686     0.8297    33.5181 </r>
       <r>    27.6248     0.8799    33.7434 </r>
       <r>    27.8809     0.9589    33.9890 </r>
       <r>    28.1370     0.7009    34.1686 </r>
       <r>    28.3931     0.6633    34.3384 </r>
       <r>    28.6492     0.6068    34.4939 </r>
       <r>    28.9054     1.0083    34.7521 </r>
       <r>    29.1615     0.6523    34.9192 </r>
       <r>    29.4176     0.7626    35.1145 </r>
       <r>    29.6737     0.6398    35.2783 </r>
       <r>    29.9298     0.8283    35.4905 </r>
       <r>    30.1859     0.8469    35.7074 </r>
       <r>    30.4421     0.6613    35.8768 </r>
       <r>    30.6982     0.6220    36.0361 </r>
       <r>    30.9543     0.7629    36.2315 </r>
       <r>    31.2104     1.0230    36.4935 </r>
       <r>    31.4665     1.0654    36.7664 </r>
       <r>    31.7227     0.6074    36.9220 </r>
       <r>    31.9788     0.8880    37.1494 </r>
       <r>    32.2349     0.7792    37.3490 </r>
       <r>    32.4910     0.7886    37.5509 </r>
       <r>    32.7471     1.0622    37.8230 </r>
       <r>    33.0032     0.9064    38.0551 </r>
       <r>    33.2594     0.8326    38.2683 </r>
       <r>    33.5155     1.0133    38.5279 </r>
       <r>    33.7716     0.9398    38.7686 </r>
       <r>    34.0277     0.8348    38.9824 </r>
       <r>    34.2838     0.7403    39.1720 </r>
       <r>    34.5399     1.1227    39.4595 </r>
       <r>    34.7961     1.3669    39.8096 </r>
       <r>    35.0522     1.0381    40.0755 </r>
       <r>    35.3083     0.7686    40.2723 </r>
       <r>    35.5644     0.6419    40.4367 </r>
       <r>    35.8205     0.5898    40.5878 </r>
       <r>    36.0767     0.9669    40.8354 </r>
       <r>    36.3328     0.7167    41.0190 </r>
       <r>    36.5889     0.8288    41.2312 </r>
       <r>    36.8450     0.7005    41.4106 </r>
       <r>    37.1011     1.0303    41.6745 </r>
       <r>    37.3572     0.8726    41.8980 </r>
       <r>    37.6134     0.9041    42.1296 </r>
       <r>    37.8695     1.1347    42.4202 </r>
       <r>    38.1256     0.9721    42.6691 </r>
       <r>    38.3817     0.7124    42.8516 </r>
       <r>    38.6378     1.0620    43.1236 </r>
       <r>    38.8939     0.9824    43.3752 </r>
       <r>    39.1501     0.8666    43.5972 </r>
       <r>    39.4062     0.8829    43.8233 </r>
       <r>    39.6623     0.5358    43.9605 </r>
       <r>    39.9184     0.7455    44.1515 </r>
       <r>    40.1745     0.9564    44.3964 </r>
       <r>    40.4307     1.0120    44.6556 </r>
       <r>    40.6868     1.0414    44.9223 </r>
       <r>    40.9429     1.4459    45.2926 </r>
       <r>    41.1990     1.1058    45.5758 </r>
       <r>    41.4551     0.6461    45.7413 </r>
       <r>    41.7112     1.2944    46.0728 </r>
       <r>    41.9674     0.9508    46.3164 </r>
       <r>    42.2235     0.8266    46.5281 </r>
       <r>    42.4796     1.2636    46.8517 </r>
       <r>    42.7357     1.5339    47.2446 </r>
       <r>    42.9918     0.9407    47.4855 </r>
       <r>    43.2479     0.7999    47.6904 </r>
       <r>    43.5041     1.7337    48.1344 </r>
       <r>    43.7602     0.9126    48.3681 </r>
       <r>    44.0163     0.7416    48.5581 </r>
       <r>    44.2724     0.9551    48.8027 </r>
       <r>    44.5285     0.9236    49.0392 </r>
       <r>    44.7847     0.4876    49.1641 </r>
       <r>    45.0408     0.6771    49.3375 </r>
       <r>    45.2969     1.2449    49.6564 </r>
       <r>    45.5530     0.6543    49.8239 </r>
       <r>    45.8091     0.4806    49.9470 </r>
       <r>    46.0652     1.2505    50.2673 </r>
       <r>    46.3214     1.5636    50.6678 </r>
       <r>    46.5775     0.8279    50.8798 </r>
       <r>    46.8336     0.9604    51.1258 </r>
       <r>    47.0897     1.1160    51.4116 </r>
       <r>    47.3458     1.3969    51.7694 </r>
       <r>    47.6019     1.4681    52.1454 </r>
       <r>    47.8581     0.9933    52.3998 </r>
       <r>    48.1142     0.7083    52.5812 </r>
       <r>    48.3703     0.7475    52.7727 </r>
       <r>    48.6264     0.9975    53.0281 </r>
       <r>    48.8825     1.5321    53.4205 </r>
       <r>    49.1387     1.0984    53.7019 </r>
       <r>    49.3948     1.1567    53.9981 </r>
       <r>    49.6509     1.1521    54.2932 </r>
       <r>    49.9070     1.1968    54.5997 </r>
       <r>    50.1631     1.1395    54.8916 </r>
       <r>    50.4192     1.0609    55.1633 </r>
       <r>    50.6754     1.2141    55.4742 </r>
       <r>    50.9315     1.3894    55.8301 </r>
       <r>    51.1876     1.0510    56.0992 </r>
       <r>    51.4437     1.0710    56.3735 </r>
       <r>    51.6998     1.0220    56.6353 </r>
       <r>    51.9560     1.3672    56.9855 </r>
       <r>    52.2121     1.1942    57.2913 </r>
       <r>    52.4682     0.7990    57.4959 </r>
       <r>    52.7243     1.1439    57.7889 </r>
       <r>    52.9804     1.1698    58.0885 </r>
       <r>    53.2365     1.6831    58.5196 </r>
       <r>    53.4927     1.3929    58.8763 </r>
       <r>    53.7488     0.8762    59.1007 </r>
       <r>    54.0049     1.0632    59.3730 </r>
       <r>    54.2610     1.3652    59.7227 </r>
       <r>    54.5171     1.3707    60.0737 </r>
       <r>    54.7732     1.4708    60.4504 </r>
       <r>    55.0294     1.5637    60.8509 </r>
       <r>    55.2855     1.9204    61.3428 </r>
       <r>    55.5416     1.4024    61.7020 </r>
       <r>    55.7977     1.3863    62.0570 </r>
       <r>    56.0538     1.1849    62.3605 </r>
       <r>    56.3100     1.3218    62.6990 </r>
       <r>    56.5661     1.0958    62.9797 </r>
       <r>    56.8222     1.7459    63.4269 </r>
       <r>    57.0783     1.9866    63.9357 </r>
       <r>    57.3344     1.4062    64.2958 </r>
       <r>    57.5905     1.4901    64.6775 </r>
       <r>    57.8467     1.6695    65.1051 </r>
       <r>    58.1028     1.9801    65.6122 </r>
       <r>    58.3589     1.8972    66.0981 </r>
       <r>    58.6150     1.7367    66.5429 </r>
       <r>    58.8711     1.2680    66.8677 </r>
       <r>    59.1272     1.5991    67.2772 </r>
       <r>    59.3834     1.3939    67.6342 </r>
       <r>    59.6395     1.1509    67.9290 </r>
       <r>    59.8956     0.9104    68.1622 </r>
       <r>    60.1517     1.5811    68.5671 </r>
       <r>    60.4078     1.2779    68.8944 </r>
       <r>    60.6640     1.9210    69.3864 </r>
       <r>    60.9201     1.7578    69.8366 </r>
       <r>    61.1762     1.6602    70.2618 </r>
       <r>    61.4323     1.2716    70.5875 </r>
       <r>    61.6884     1.9738    71.0930 </r>
       <r>    61.9445     1.6152    71.5067 </r>
       <r>    62.2007     1.7641    71.9585 </r>
       <r>    62.4568     1.8085    72.4217 </r>
       <r>    62.7129     1.7916    72.8806 </r>
       <r>    62.9690     1.4131    73.2425 </r>
       <r>    63.2251     1.6888    73.6750 </r>
       <r>    63.4812     2.2947    74.2627 </r>
       <r>    63.7374     2.3114    74.8547 </r>
       <r>    63.9935     1.7301    75.2978 </r>
       <r>    64.2496     1.7453    75.7448 </r>
       <r>    64.5057     1.8435    76.2170 </r>
       <r>    64.7618     2.1026    76.7555 </r>
       <r>    65.0180     2.2867    77.3411 </r>
       <r>    65.2741     1.9700    77.8457 </r>
       <r>    65.5302     1.7912    78.3045 </r>
       <r>    65.7863     1.4876    78.6854 </r>
       <r>    66.0424     1.3652    79.0351 </r>
       <r>    66.2985     1.5539    79.4331 </r>
       <r>    66.5547     0.9771    79.6833 </r>
       <r>    66.8108     0.8372    79.8978 </r>
       <r>    67.0669     0.2346    79.9578 </r>
       <r>    67.3230     0.0805    79.9784 </r>
       <r>    67.5791     0.0259    79.9851 </r>
       <r>    67.8353     0.0579    79.9999 </r>
       <r>    68.0914     0.0008    80.0001 </r>
       <r>    68.3475    -0.0004    80.0000 </r>
       <r>    68.6036    -0.0000    80.0000 </r>
       <r>    68.8597    -0.0000    80.0000 </r>
       <r>    69.1158    -0.0000    80.0000 </r>
       <r>    69.3720     0.0000    80.0000 </r>
       <r>    69.6281     0.0000    80.0000 </r>
       <r>    69.8842     0.0000    80.0000 </r>
       <r>    70.1403     0.0000    80.0000 </r>
       <r>    70.3964     0.0000    80.0000 </r>
       <r>    70.6525     0.0000    80.0000 </r>
       <r>    70.9087     0.0000    80.0000 </r>
       <r>    71.1648     0.0000    80.0000 </r>
      </set>
     </set>
    </array>
   </total>
  </dos>
 </calculation>
 <structure name="finalpos" >
  <crystal>
   <varray name="basis" >
    <v>       2.42320000       0.00000000       0.00000000 </v>
    <v>      -1.21160000       2.09855276       0.00000000 </v>
    <v>       0.00000000       0.00000000       4.13608000 </v>
   </varray>
   <i name="volume">     21.03284797 </i>
   <varray name="rec_basis" >
    <v>       0.41267745       0.23825944       0.00000000 </v>
    <v>       0.00000000       0.47651888       0.00000000 </v>
    <v>       0.00000000       0.00000000       0.24177482 </v>
   </varray>
  </crystal>
  <varray name="positions" >
   <v>       0.00000000       0.00000000       0.00000000 </v>
   <v>       0.33333333       0.66666667       0.50000000 </v>
  </varray>
 </structure>
</modeling>
