       N       E                     dE             d eps       ncg     rms          rms(c)
DAV:   1     0.586376316019E+02    0.58638E+02   -0.22953E+03  9776   0.339E+02
DAV:   2    -0.139580553354E+02   -0.72596E+02   -0.62095E+02  7928   0.983E+01
DAV:   3    -0.177125449881E+02   -0.37545E+01   -0.36242E+01  9528   0.231E+01
DAV:   4    -0.177230663662E+02   -0.10521E-01   -0.10518E-01  8496   0.127E+00
DAV:   5    -0.177230714816E+02   -0.51155E-05   -0.51148E-05  9392   0.269E-02    0.222E+01
DAV:   6    -0.153187876107E+02    0.24043E+01   -0.10758E+00 11240   0.195E+01    0.249E+00
DAV:   7    -0.152099998859E+02    0.10879E+00   -0.34697E-02  9040   0.197E+00    0.201E+00
DAV:   8    -0.151641704648E+02    0.45829E-01   -0.24629E-03 10672   0.295E-01    0.392E-01
DAV:   9    -0.151626762485E+02    0.14942E-02   -0.39487E-04  9880   0.114E-01    0.104E-01
DAV:  10    -0.151625103645E+02    0.16588E-03   -0.11342E-05  9304   0.167E-02    0.192E-02
DAV:  11    -0.151624845403E+02    0.25824E-04   -0.63927E-07  8648   0.448E-03    0.103E-03
DAV:  12    -0.151624850239E+02   -0.48357E-06   -0.46779E-08  5480   0.961E-04
   1 F= -.15162485E+02 E0= -.15162269E+02  d E =-.648559E-03
