 vasp.6.2.0 18Jan21 (build Mar 17 2021 09:06:54) complex                        
  
 executed on             LinuxIFC date 2021.09.09  11:55:33
 serial version


--------------------------------------------------------------------------------------------------------


 INCAR:
   ENCUT = 280.000000
   SIGMA = 0.200000
   EDIFF = 1.00e-06
   GGA = PE
   PREC = normal
   IBRION = 1
   ICHARG = 1
   ISIF = 2
   ISMEAR = 1
   KPAR = 1
   NBANDS = 40
   NSW = 0
   NCORE = 1
   LCHARG = .TRUE.

 POTCAR:    PAW_PBE Fe 06Sep2000                  
 POTCAR:    PAW_PBE Fe 06Sep2000                  
   SHA256 =  cd5a22d9368cc8b5cc476bea79732366149640da08ac9009b0e1b7fc627eea28 Fe/POTCAR             
   COPYR  = (c) Copyright 06Sep2000 Georg Kresse                                                    
   COPYR  = This file is part of the software VASP. Any use, copying, and all other rights are regul
   COPYR  = If you do not have a valid VASP license, you may not use, copy or distribute this file. 
   VRHFIN =Fe:  d7 s1                                                                               
   LEXCH  = PE                                                                                      
   EATOM  =   594.3153 eV,   43.6809 Ry                                                             
                                                                                                    
   TITEL  = PAW_PBE Fe 06Sep2000                                                                    
   LULTRA =        F    use ultrasoft PP ?                                                          
   IUNSCR =        1    unscreen: 0-lin 1-nonlin 2-no                                               
   RPACOR =    2.000    partial core radius                                                         
   POMASS =   55.847; ZVAL   =    8.000    mass and valenz                                          
   RCORE  =    2.300    outmost cutoff radius                                                       
   RWIGS  =    2.460; RWIGS  =    1.302    wigner-seitz radius (au A)                               
   ENMAX  =  267.882; ENMIN  =  200.911 eV                                                          
   RCLOC  =    1.701    cutoff for local pot                                                        
   LCOR   =        T    correct aug charges                                                         
   LPAW   =        T    paw PP                                                                      
   EAUG   =  511.368                                                                                
   DEXC   =    0.000                                                                                
   RMAX   =    2.356    core radius for proj-oper                                                   
   RAUG   =    1.300    factor for augmentation sphere                                              
   RDEP   =    2.442    radius for radial grids                                                     
   RDEPT  =    1.890    core radius for aug-charge                                                  
                                                                                                    
   Atomic configuration                                                                             
    9 entries                                                                                       
     n  l   j            E        occ.                                                              
     1  0  0.50     -6993.8440   2.0000                                                             
     2  0  0.50      -814.6047   2.0000                                                             
     2  1  1.50      -693.3689   6.0000                                                             
     3  0  0.50       -89.4732   2.0000                                                             
     3  1  1.50       -55.6373   6.0000                                                             
     3  2  2.50        -3.8151   7.0000                                                             
     4  0  0.50        -4.2551   1.0000                                                             
     4  1  1.50        -3.4015   0.0000                                                             
     4  3  2.50        -1.3606   0.0000                                                             
   Description                                                                                      
     l       E           TYP  RCUT    TYP  RCUT                                                     
     2     -3.8151135     23  2.300                                                                 
     2     -5.1756961     23  2.300                                                                 
     0     -4.2550963     23  2.300                                                                 
     0      7.2035603     23  2.300                                                                 
     1     -2.7211652     23  2.300                                                                 
     1     18.4316424     23  2.300                                                                 
  local pseudopotential read in
  partial core-charges read in
  partial kinetic energy density read in
  atomic valenz-charges read in
  non local Contribution for L=           2  read in
    real space projection operators read in
  non local Contribution for L=           2  read in
    real space projection operators read in
  non local Contribution for L=           0  read in
    real space projection operators read in
  non local Contribution for L=           0  read in
    real space projection operators read in
  non local Contribution for L=           1  read in
    real space projection operators read in
  non local Contribution for L=           1  read in
    real space projection operators read in
    PAW grid and wavefunctions read in
 
   number of l-projection  operators is LMAX  =           6
   number of lm-projection operators is LMMAX =          18
 
  PAW_PBE Fe 06Sep2000                  :
 energy of atom  1       EATOM= -594.3153
 kinetic energy error for atom=    0.0278 (will be added to EATOM!!)
 
 
 POSCAR: Fe
  positions in cartesian coordinates
  No initial velocities read in
 exchange correlation table for  LEXCH =        8
   RHO(1)=    0.500       N(1)  =     2000
   RHO(2)=  100.500       N(2)  =     4000
 


--------------------------------------------------------------------------------------------------------


 ion  position               nearest neighbor table
   1  0.000  0.000  0.000-   2 2.29   2 2.29   2 2.29   2 2.29   2 2.29   2 2.29
   2  0.333  0.667  0.500-   1 2.29   1 2.29   1 2.29   1 2.29   1 2.29   1 2.29
 
  LATTYP: Found a hexagonal cell.
 ALAT       =     2.2368000000
 C/A-ratio  =     1.6892703863
  
  Lattice vectors:
  
 A1 = (   2.2368000000,   0.0000000000,   0.0000000000)
 A2 = (  -1.1184000000,   1.9371256232,   0.0000000000)
 A3 = (   0.0000000000,   0.0000000000,   3.7785600000)


Analysis of symmetry for initial positions (statically):
=====================================================================
 Subroutine PRICEL returns:
 Original cell was already a primitive cell.
 

 Routine SETGRP: Setting up the symmetry group for a 
 hexagonal supercell.


 Subroutine GETGRP returns: Found 24 space group operations
 (whereof 12 operations were pure point group operations)
 out of a pool of 24 trial point group operations.


The static configuration has the point symmetry D_3h.
 The point group associated with its full space group is D_6h.


Analysis of symmetry for dynamics (positions and initial velocities):
=====================================================================
 Subroutine PRICEL returns:
 Original cell was already a primitive cell.
 

 Routine SETGRP: Setting up the symmetry group for a 
 hexagonal supercell.


 Subroutine GETGRP returns: Found 24 space group operations
 (whereof 12 operations were pure point group operations)
 out of a pool of 24 trial point group operations.


The dynamic configuration has the point symmetry D_3h.
 The point group associated with its full space group is D_6h.


 Subroutine INISYM returns: Found 24 space group operations
 (whereof 12 operations are pure point group operations),
 and found     1 'primitive' translations


----------------------------------------------------------------------------------------

                                     Primitive cell                                     

  volume of cell :      16.3724

  direct lattice vectors                    reciprocal lattice vectors
     2.236800000  0.000000000  0.000000000     0.447067239  0.258114391  0.000000000
    -1.118400000  1.937125623  0.000000000     0.000000000  0.516228781  0.000000000
     0.000000000  0.000000000  3.778560000     0.000000000  0.000000000  0.264651084

  length of vectors
     2.236800000  2.236800000  3.778560000     0.516228781  0.516228781  0.264651084

  position of ions in fractional coordinates (direct lattice)
     0.000000000  0.000000000  0.000000000
     0.333333333  0.666666667  0.500000000

  ion indices of the primitive-cell ions
   primitive index   ion index
                 1           1
                 2           2

----------------------------------------------------------------------------------------

 
 
 KPOINTS: KPOINTS created by Atomic Simulation Env

Automatic generation of k-mesh.
 Grid dimensions read from file:
 generate k-points for:   11   11   11

 Generating k-lattice:

  Cartesian coordinates                     Fractional coordinates (reciprocal lattice)
     0.040642476  0.023464945  0.000000000     0.090909091 -0.000000000  0.000000000
     0.000000000  0.046929889  0.000000000     0.000000000  0.090909091  0.000000000
     0.000000000  0.000000000  0.024059189     0.000000000  0.000000000  0.090909091

  Length of vectors
     0.046929889  0.046929889  0.024059189

  Shift w.r.t. Gamma in fractional coordinates (k-lattice)
     0.000000000  0.000000000  0.000000000

 
 Subroutine IBZKPT returns following result:
 ===========================================
 
 Found     96 irreducible k-points:
 
 Following reciprocal coordinates:
            Coordinates               Weight
  0.000000  0.000000  0.000000      1.000000
  0.090909  0.000000  0.000000      6.000000
  0.181818  0.000000  0.000000      6.000000
  0.272727  0.000000  0.000000      6.000000
  0.363636  0.000000  0.000000      6.000000
  0.454545  0.000000  0.000000      6.000000
  0.090909  0.090909  0.000000      6.000000
  0.181818  0.090909  0.000000     12.000000
  0.272727  0.090909  0.000000     12.000000
  0.363636  0.090909  0.000000     12.000000
  0.454545  0.090909  0.000000      6.000000
  0.181818  0.181818  0.000000      6.000000
  0.272727  0.181818  0.000000     12.000000
  0.363636  0.181818  0.000000     12.000000
  0.272727  0.272727  0.000000      6.000000
  0.363636  0.272727  0.000000      6.000000
  0.000000  0.000000  0.090909      2.000000
  0.090909  0.000000  0.090909     12.000000
  0.181818  0.000000  0.090909     12.000000
  0.272727  0.000000  0.090909     12.000000
  0.363636  0.000000  0.090909     12.000000
  0.454545  0.000000  0.090909     12.000000
  0.090909  0.090909  0.090909     12.000000
  0.181818  0.090909  0.090909     24.000000
  0.272727  0.090909  0.090909     24.000000
  0.363636  0.090909  0.090909     24.000000
  0.454545  0.090909  0.090909     12.000000
  0.181818  0.181818  0.090909     12.000000
  0.272727  0.181818  0.090909     24.000000
  0.363636  0.181818  0.090909     24.000000
  0.272727  0.272727  0.090909     12.000000
  0.363636  0.272727  0.090909     12.000000
  0.000000  0.000000  0.181818      2.000000
  0.090909  0.000000  0.181818     12.000000
  0.181818  0.000000  0.181818     12.000000
  0.272727  0.000000  0.181818     12.000000
  0.363636  0.000000  0.181818     12.000000
  0.454545  0.000000  0.181818     12.000000
  0.090909  0.090909  0.181818     12.000000
  0.181818  0.090909  0.181818     24.000000
  0.272727  0.090909  0.181818     24.000000
  0.363636  0.090909  0.181818     24.000000
  0.454545  0.090909  0.181818     12.000000
  0.181818  0.181818  0.181818     12.000000
  0.272727  0.181818  0.181818     24.000000
  0.363636  0.181818  0.181818     24.000000
  0.272727  0.272727  0.181818     12.000000
  0.363636  0.272727  0.181818     12.000000
  0.000000  0.000000  0.272727      2.000000
  0.090909  0.000000  0.272727     12.000000
  0.181818  0.000000  0.272727     12.000000
  0.272727  0.000000  0.272727     12.000000
  0.363636  0.000000  0.272727     12.000000
  0.454545  0.000000  0.272727     12.000000
  0.090909  0.090909  0.272727     12.000000
  0.181818  0.090909  0.272727     24.000000
  0.272727  0.090909  0.272727     24.000000
  0.363636  0.090909  0.272727     24.000000
  0.454545  0.090909  0.272727     12.000000
  0.181818  0.181818  0.272727     12.000000
  0.272727  0.181818  0.272727     24.000000
  0.363636  0.181818  0.272727     24.000000
  0.272727  0.272727  0.272727     12.000000
  0.363636  0.272727  0.272727     12.000000
  0.000000  0.000000  0.363636      2.000000
  0.090909  0.000000  0.363636     12.000000
  0.181818  0.000000  0.363636     12.000000
  0.272727  0.000000  0.363636     12.000000
  0.363636  0.000000  0.363636     12.000000
  0.454545  0.000000  0.363636     12.000000
  0.090909  0.090909  0.363636     12.000000
  0.181818  0.090909  0.363636     24.000000
  0.272727  0.090909  0.363636     24.000000
  0.363636  0.090909  0.363636     24.000000
  0.454545  0.090909  0.363636     12.000000
  0.181818  0.181818  0.363636     12.000000
  0.272727  0.181818  0.363636     24.000000
  0.363636  0.181818  0.363636     24.000000
  0.272727  0.272727  0.363636     12.000000
  0.363636  0.272727  0.363636     12.000000
  0.000000  0.000000  0.454545      2.000000
  0.090909  0.000000  0.454545     12.000000
  0.181818  0.000000  0.454545     12.000000
  0.272727  0.000000  0.454545     12.000000
  0.363636  0.000000  0.454545     12.000000
  0.454545  0.000000  0.454545     12.000000
  0.090909  0.090909  0.454545     12.000000
  0.181818  0.090909  0.454545     24.000000
  0.272727  0.090909  0.454545     24.000000
  0.363636  0.090909  0.454545     24.000000
  0.454545  0.090909  0.454545     12.000000
  0.181818  0.181818  0.454545     12.000000
  0.272727  0.181818  0.454545     24.000000
  0.363636  0.181818  0.454545     24.000000
  0.272727  0.272727  0.454545     12.000000
  0.363636  0.272727  0.454545     12.000000
 
 Following cartesian coordinates:
            Coordinates               Weight
  0.000000  0.000000  0.000000      1.000000
  0.040642  0.023465  0.000000      6.000000
  0.081285  0.046930  0.000000      6.000000
  0.121927  0.070395  0.000000      6.000000
  0.162570  0.093860  0.000000      6.000000
  0.203212  0.117325  0.000000      6.000000
  0.040642  0.070395  0.000000      6.000000
  0.081285  0.093860  0.000000     12.000000
  0.121927  0.117325  0.000000     12.000000
  0.162570  0.140790  0.000000     12.000000
  0.203212  0.164255  0.000000      6.000000
  0.081285  0.140790  0.000000      6.000000
  0.121927  0.164255  0.000000     12.000000
  0.162570  0.187720  0.000000     12.000000
  0.121927  0.211185  0.000000      6.000000
  0.162570  0.234649  0.000000      6.000000
  0.000000  0.000000  0.024059      2.000000
  0.040642  0.023465  0.024059     12.000000
  0.081285  0.046930  0.024059     12.000000
  0.121927  0.070395  0.024059     12.000000
  0.162570  0.093860  0.024059     12.000000
  0.203212  0.117325  0.024059     12.000000
  0.040642  0.070395  0.024059     12.000000
  0.081285  0.093860  0.024059     24.000000
  0.121927  0.117325  0.024059     24.000000
  0.162570  0.140790  0.024059     24.000000
  0.203212  0.164255  0.024059     12.000000
  0.081285  0.140790  0.024059     12.000000
  0.121927  0.164255  0.024059     24.000000
  0.162570  0.187720  0.024059     24.000000
  0.121927  0.211185  0.024059     12.000000
  0.162570  0.234649  0.024059     12.000000
  0.000000  0.000000  0.048118      2.000000
  0.040642  0.023465  0.048118     12.000000
  0.081285  0.046930  0.048118     12.000000
  0.121927  0.070395  0.048118     12.000000
  0.162570  0.093860  0.048118     12.000000
  0.203212  0.117325  0.048118     12.000000
  0.040642  0.070395  0.048118     12.000000
  0.081285  0.093860  0.048118     24.000000
  0.121927  0.117325  0.048118     24.000000
  0.162570  0.140790  0.048118     24.000000
  0.203212  0.164255  0.048118     12.000000
  0.081285  0.140790  0.048118     12.000000
  0.121927  0.164255  0.048118     24.000000
  0.162570  0.187720  0.048118     24.000000
  0.121927  0.211185  0.048118     12.000000
  0.162570  0.234649  0.048118     12.000000
  0.000000  0.000000  0.072178      2.000000
  0.040642  0.023465  0.072178     12.000000
  0.081285  0.046930  0.072178     12.000000
  0.121927  0.070395  0.072178     12.000000
  0.162570  0.093860  0.072178     12.000000
  0.203212  0.117325  0.072178     12.000000
  0.040642  0.070395  0.072178     12.000000
  0.081285  0.093860  0.072178     24.000000
  0.121927  0.117325  0.072178     24.000000
  0.162570  0.140790  0.072178     24.000000
  0.203212  0.164255  0.072178     12.000000
  0.081285  0.140790  0.072178     12.000000
  0.121927  0.164255  0.072178     24.000000
  0.162570  0.187720  0.072178     24.000000
  0.121927  0.211185  0.072178     12.000000
  0.162570  0.234649  0.072178     12.000000
  0.000000  0.000000  0.096237      2.000000
  0.040642  0.023465  0.096237     12.000000
  0.081285  0.046930  0.096237     12.000000
  0.121927  0.070395  0.096237     12.000000
  0.162570  0.093860  0.096237     12.000000
  0.203212  0.117325  0.096237     12.000000
  0.040642  0.070395  0.096237     12.000000
  0.081285  0.093860  0.096237     24.000000
  0.121927  0.117325  0.096237     24.000000
  0.162570  0.140790  0.096237     24.000000
  0.203212  0.164255  0.096237     12.000000
  0.081285  0.140790  0.096237     12.000000
  0.121927  0.164255  0.096237     24.000000
  0.162570  0.187720  0.096237     24.000000
  0.121927  0.211185  0.096237     12.000000
  0.162570  0.234649  0.096237     12.000000
  0.000000  0.000000  0.120296      2.000000
  0.040642  0.023465  0.120296     12.000000
  0.081285  0.046930  0.120296     12.000000
  0.121927  0.070395  0.120296     12.000000
  0.162570  0.093860  0.120296     12.000000
  0.203212  0.117325  0.120296     12.000000
  0.040642  0.070395  0.120296     12.000000
  0.081285  0.093860  0.120296     24.000000
  0.121927  0.117325  0.120296     24.000000
  0.162570  0.140790  0.120296     24.000000
  0.203212  0.164255  0.120296     12.000000
  0.081285  0.140790  0.120296     12.000000
  0.121927  0.164255  0.120296     24.000000
  0.162570  0.187720  0.120296     24.000000
  0.121927  0.211185  0.120296     12.000000
  0.162570  0.234649  0.120296     12.000000
 


--------------------------------------------------------------------------------------------------------




 Dimension of arrays:
   k-points           NKPTS =     96   k-points in BZ     NKDIM =     96   number of bands    NBANDS=     40
   number of dos      NEDOS =    301   number of ions     NIONS =      2
   non local maximal  LDIM  =      6   non local SUM 2l+1 LMDIM =     18
   total plane-waves  NPLWV =   1600
   max r-space proj   IRMAX =      1   max aug-charges    IRDMAX=   3680
   dimension x,y,z NGX =    10 NGY =   10 NGZ =   16
   dimension x,y,z NGXF=    20 NGYF=   20 NGZF=   32
   support grid    NGXF=    20 NGYF=   20 NGZF=   32
   ions per type =               2
   NGX,Y,Z   is equivalent  to a cutoff of   7.43,  7.43,  7.04 a.u.
   NGXF,Y,Z  is equivalent  to a cutoff of  14.86, 14.86, 14.08 a.u.

 SYSTEM =  unknown system                          
 POSCAR =  Fe                                      

 Startparameter for this run:
   NWRITE =      2    write-flag & timer
   PREC   = normal    normal or accurate (medium, high low for compatibility)
   ISTART =      0    job   : 0-new  1-cont  2-samecut
   ICHARG =      1    charge: 1-file 2-atom 10-const
   ISPIN  =      1    spin polarized calculation?
   LNONCOLLINEAR =      F non collinear calculations
   LSORBIT =      F    spin-orbit coupling
   INIWAV =      1    electr: 0-lowe 1-rand  2-diag
   LASPH  =      F    aspherical Exc in radial PAW
   METAGGA=      F    non-selfconsistent MetaGGA calc.

 Electronic Relaxation 1
   ENCUT  =  280.0 eV  20.58 Ry    4.54 a.u.   3.05  3.05  5.16*2*pi/ulx,y,z
   ENINI  =  280.0     initial cutoff
   ENAUG  =  511.4 eV  augmentation charge cutoff
   NELM   =     60;   NELMIN=  2; NELMDL= -5     # of ELM steps 
   EDIFF  = 0.1E-05   stopping-criterion for ELM
   LREAL  =      F    real-space projection
   NLSPLINE    = F    spline interpolate recip. space projectors
   LCOMPAT=      F    compatible to vasp.4.4
   GGA_COMPAT  = T    GGA compatible to vasp.4.4-vasp.4.6
   LMAXPAW     = -100 max onsite density
   LMAXMIX     =    2 max onsite mixed and CHGCAR
   VOSKOWN=      0    Vosko Wilk Nusair interpolation
   ROPT   =    0.00000
 Ionic relaxation
   EDIFFG = 0.1E-04   stopping-criterion for IOM
   NSW    =      0    number of steps for IOM
   NBLOCK =      1;   KBLOCK =      1    inner block; outer block 
   IBRION =     -1    ionic relax: 0-MD 1-quasi-New 2-CG
   NFREE  =      0    steps in history (QN), initial steepest desc. (CG)
   ISIF   =      2    stress and relaxation
   IWAVPR =      0    prediction:  0-non 1-charg 2-wave 3-comb
   ISYM   =      2    0-nonsym 1-usesym 2-fastsym
   LCORR  =      T    Harris-Foulkes like correction to forces

   POTIM  = 0.5000    time-step for ionic-motion
   TEIN   =    0.0    initial temperature
   TEBEG  =    0.0;   TEEND  =   0.0 temperature during run
   SMASS  =  -3.00    Nose mass-parameter (am)
   estimated Nose-frequenzy (Omega)   =  0.10E-29 period in steps = 0.13E+47 mass=  -0.114E-27a.u.
   SCALEE = 1.0000    scale energy and forces
   NPACO  =    256;   APACO  = 16.0  distance and # of slots for P.C.
   PSTRESS=    0.0 pullay stress

  Mass of Ions in am
   POMASS =  55.85
  Ionic Valenz
   ZVAL   =   8.00
  Atomic Wigner-Seitz radii
   RWIGS  =  -1.00
  virtual crystal weights 
   VCA    =   1.00
   NELECT =      16.0000    total number of electrons
   NUPDOWN=      -1.0000    fix difference up-down

 DOS related values:
   EMIN   =  10.00;   EMAX   =-10.00  energy-range for DOS
   EFERMI =   0.00
   ISMEAR =     1;   SIGMA  =   0.20  broadening in eV -4-tet -1-fermi 0-gaus

 Electronic relaxation 2 (details)
   IALGO  =     38    algorithm
   LDIAG  =      T    sub-space diagonalisation (order eigenvalues)
   LSUBROT=      F    optimize rotation matrix (better conditioning)
   TURBO    =      0    0=normal 1=particle mesh
   IRESTART =      0    0=no restart 2=restart with 2 vectors
   NREBOOT  =      0    no. of reboots
   NMIN     =      0    reboot dimension
   EREF     =   0.00    reference energy to select bands
   IMIX   =      4    mixing-type and parameters
     AMIX     =   0.40;   BMIX     =  1.00
     AMIX_MAG =   1.60;   BMIX_MAG =  1.00
     AMIN     =   0.10
     WC   =   100.;   INIMIX=   1;  MIXPRE=   1;  MAXMIX= -45

 Intra band minimization:
   WEIMIN = 0.0000     energy-eigenvalue tresh-hold
   EBREAK =  0.62E-08  absolut break condition
   DEPER  =   0.30     relativ break condition  

   TIME   =   0.40     timestep for ELM

  volume/ion in A,a.u.               =       8.19        55.24
  Fermi-wavevector in a.u.,A,eV,Ry     =   1.624592  3.070034 35.909861  2.639300
  Thomas-Fermi vector in A             =   2.717854
 
 Write flags
   LWAVE        =      T    write WAVECAR
   LDOWNSAMPLE  =      F    k-point downsampling of WAVECAR
   LCHARG       =      T    write CHGCAR
   LVTOT        =      F    write LOCPOT, total local potential
   LVHAR        =      F    write LOCPOT, Hartree potential only
   LELF         =      F    write electronic localiz. function (ELF)
   LORBIT       =      0    0 simple, 1 ext, 2 COOP (PROOUT), +10 PAW based schemes


 Dipole corrections
   LMONO  =      F    monopole corrections only (constant potential shift)
   LDIPOL =      F    correct potential (dipole corrections)
   IDIPOL =      0    1-x, 2-y, 3-z, 4-all directions 
   EPSILON=  1.0000000 bulk dielectric constant

 Exchange correlation treatment:
   GGA     =    PE    GGA type
   LEXCH   =     8    internal setting for exchange type
   VOSKOWN=      0    Vosko Wilk Nusair interpolation
   LHFCALC =     F    Hartree Fock is set to
   LHFONE  =     F    Hartree Fock one center treatment
   AEXX    =    0.0000 exact exchange contribution

 Linear response parameters
   LEPSILON=     F    determine dielectric tensor
   LRPA    =     F    only Hartree local field effects (RPA)
   LNABLA  =     F    use nabla operator in PAW spheres
   LVEL    =     F    velocity operator in full k-point grid
   LINTERFAST=   F  fast interpolation
   KINTER  =     0    interpolate to denser k-point grid
   CSHIFT  =0.1000    complex shift for real part using Kramers Kronig
   OMEGAMAX=  -1.0    maximum frequency
   DEG_THRESHOLD= 0.2000000E-02 threshold for treating states as degnerate
   RTIME   =   -0.100 relaxation time in fs
  (WPLASMAI=    0.000 imaginary part of plasma frequency in eV, 0.658/RTIME)
   DFIELD  = 0.0000000 0.0000000 0.0000000 field for delta impulse in time
 
 Orbital magnetization related:
   ORBITALMAG=     F  switch on orbital magnetization
   LCHIMAG   =     F  perturbation theory with respect to B field
   DQ        =  0.001000  dq finite difference perturbation B field
   LLRAUG    =     F  two centre corrections for induced B field



--------------------------------------------------------------------------------------------------------


 Static calculation
 charge density and potential will be updated during run
 non-spin polarized calculation
 Variant of blocked Davidson
 Davidson routine will perform the subspace rotation
 perform sub-space diagonalisation
    after iterative eigenvector-optimisation
 modified Broyden-mixing scheme, WC =      100.0
 initial mixing is a Kerker type mixing with AMIX =  0.4000 and BMIX =      1.0000
 Hartree-type preconditioning will be used
 using additional bands           32
 reciprocal scheme for non local part
 use partial core corrections
 calculate Harris-corrections to forces 
   (improved forces if not selfconsistent)
 use gradient corrections 
 use of overlap-Matrix (Vanderbilt PP)
 Methfessel and Paxton  Order N= 1 SIGMA  =   0.20


--------------------------------------------------------------------------------------------------------


  energy-cutoff  :      280.00
  volume of cell :       16.37
      direct lattice vectors                 reciprocal lattice vectors
     2.236800000  0.000000000  0.000000000     0.447067239  0.258114391  0.000000000
    -1.118400000  1.937125623  0.000000000     0.000000000  0.516228781  0.000000000
     0.000000000  0.000000000  3.778560000     0.000000000  0.000000000  0.264651084

  length of vectors
     2.236800000  2.236800000  3.778560000     0.516228781  0.516228781  0.264651084


 
 k-points in units of 2pi/SCALE and weight: KPOINTS created by Atomic Simulation Env
   0.00000000  0.00000000  0.00000000       0.001
   0.04064248  0.02346494  0.00000000       0.005
   0.08128495  0.04692989  0.00000000       0.005
   0.12192743  0.07039483  0.00000000       0.005
   0.16256991  0.09385978  0.00000000       0.005
   0.20321238  0.11732472  0.00000000       0.005
   0.04064248  0.07039483  0.00000000       0.005
   0.08128495  0.09385978  0.00000000       0.009
   0.12192743  0.11732472  0.00000000       0.009
   0.16256991  0.14078967  0.00000000       0.009
   0.20321238  0.16425461  0.00000000       0.005
   0.08128495  0.14078967  0.00000000       0.005
   0.12192743  0.16425461  0.00000000       0.009
   0.16256991  0.18771956  0.00000000       0.009
   0.12192743  0.21118450  0.00000000       0.005
   0.16256991  0.23464945  0.00000000       0.005
   0.00000000  0.00000000  0.02405919       0.002
   0.04064248  0.02346494  0.02405919       0.009
   0.08128495  0.04692989  0.02405919       0.009
   0.12192743  0.07039483  0.02405919       0.009
   0.16256991  0.09385978  0.02405919       0.009
   0.20321238  0.11732472  0.02405919       0.009
   0.04064248  0.07039483  0.02405919       0.009
   0.08128495  0.09385978  0.02405919       0.018
   0.12192743  0.11732472  0.02405919       0.018
   0.16256991  0.14078967  0.02405919       0.018
   0.20321238  0.16425461  0.02405919       0.009
   0.08128495  0.14078967  0.02405919       0.009
   0.12192743  0.16425461  0.02405919       0.018
   0.16256991  0.18771956  0.02405919       0.018
   0.12192743  0.21118450  0.02405919       0.009
   0.16256991  0.23464945  0.02405919       0.009
   0.00000000  0.00000000  0.04811838       0.002
   0.04064248  0.02346494  0.04811838       0.009
   0.08128495  0.04692989  0.04811838       0.009
   0.12192743  0.07039483  0.04811838       0.009
   0.16256991  0.09385978  0.04811838       0.009
   0.20321238  0.11732472  0.04811838       0.009
   0.04064248  0.07039483  0.04811838       0.009
   0.08128495  0.09385978  0.04811838       0.018
   0.12192743  0.11732472  0.04811838       0.018
   0.16256991  0.14078967  0.04811838       0.018
   0.20321238  0.16425461  0.04811838       0.009
   0.08128495  0.14078967  0.04811838       0.009
   0.12192743  0.16425461  0.04811838       0.018
   0.16256991  0.18771956  0.04811838       0.018
   0.12192743  0.21118450  0.04811838       0.009
   0.16256991  0.23464945  0.04811838       0.009
   0.00000000  0.00000000  0.07217757       0.002
   0.04064248  0.02346494  0.07217757       0.009
   0.08128495  0.04692989  0.07217757       0.009
   0.12192743  0.07039483  0.07217757       0.009
   0.16256991  0.09385978  0.07217757       0.009
   0.20321238  0.11732472  0.07217757       0.009
   0.04064248  0.07039483  0.07217757       0.009
   0.08128495  0.09385978  0.07217757       0.018
   0.12192743  0.11732472  0.07217757       0.018
   0.16256991  0.14078967  0.07217757       0.018
   0.20321238  0.16425461  0.07217757       0.009
   0.08128495  0.14078967  0.07217757       0.009
   0.12192743  0.16425461  0.07217757       0.018
   0.16256991  0.18771956  0.07217757       0.018
   0.12192743  0.21118450  0.07217757       0.009
   0.16256991  0.23464945  0.07217757       0.009
   0.00000000  0.00000000  0.09623676       0.002
   0.04064248  0.02346494  0.09623676       0.009
   0.08128495  0.04692989  0.09623676       0.009
   0.12192743  0.07039483  0.09623676       0.009
   0.16256991  0.09385978  0.09623676       0.009
   0.20321238  0.11732472  0.09623676       0.009
   0.04064248  0.07039483  0.09623676       0.009
   0.08128495  0.09385978  0.09623676       0.018
   0.12192743  0.11732472  0.09623676       0.018
   0.16256991  0.14078967  0.09623676       0.018
   0.20321238  0.16425461  0.09623676       0.009
   0.08128495  0.14078967  0.09623676       0.009
   0.12192743  0.16425461  0.09623676       0.018
   0.16256991  0.18771956  0.09623676       0.018
   0.12192743  0.21118450  0.09623676       0.009
   0.16256991  0.23464945  0.09623676       0.009
   0.00000000  0.00000000  0.12029595       0.002
   0.04064248  0.02346494  0.12029595       0.009
   0.08128495  0.04692989  0.12029595       0.009
   0.12192743  0.07039483  0.12029595       0.009
   0.16256991  0.09385978  0.12029595       0.009
   0.20321238  0.11732472  0.12029595       0.009
   0.04064248  0.07039483  0.12029595       0.009
   0.08128495  0.09385978  0.12029595       0.018
   0.12192743  0.11732472  0.12029595       0.018
   0.16256991  0.14078967  0.12029595       0.018
   0.20321238  0.16425461  0.12029595       0.009
   0.08128495  0.14078967  0.12029595       0.009
   0.12192743  0.16425461  0.12029595       0.018
   0.16256991  0.18771956  0.12029595       0.018
   0.12192743  0.21118450  0.12029595       0.009
   0.16256991  0.23464945  0.12029595       0.009
 
 k-points in reciprocal lattice and weights: KPOINTS created by Atomic Simulation Env
   0.00000000  0.00000000  0.00000000       0.001
   0.09090909  0.00000000  0.00000000       0.005
   0.18181818  0.00000000  0.00000000       0.005
   0.27272727  0.00000000  0.00000000       0.005
   0.36363636  0.00000000  0.00000000       0.005
   0.45454545  0.00000000  0.00000000       0.005
   0.09090909  0.09090909  0.00000000       0.005
   0.18181818  0.09090909  0.00000000       0.009
   0.27272727  0.09090909  0.00000000       0.009
   0.36363636  0.09090909  0.00000000       0.009
   0.45454545  0.09090909  0.00000000       0.005
   0.18181818  0.18181818  0.00000000       0.005
   0.27272727  0.18181818  0.00000000       0.009
   0.36363636  0.18181818  0.00000000       0.009
   0.27272727  0.27272727  0.00000000       0.005
   0.36363636  0.27272727  0.00000000       0.005
   0.00000000  0.00000000  0.09090909       0.002
   0.09090909  0.00000000  0.09090909       0.009
   0.18181818  0.00000000  0.09090909       0.009
   0.27272727  0.00000000  0.09090909       0.009
   0.36363636  0.00000000  0.09090909       0.009
   0.45454545  0.00000000  0.09090909       0.009
   0.09090909  0.09090909  0.09090909       0.009
   0.18181818  0.09090909  0.09090909       0.018
   0.27272727  0.09090909  0.09090909       0.018
   0.36363636  0.09090909  0.09090909       0.018
   0.45454545  0.09090909  0.09090909       0.009
   0.18181818  0.18181818  0.09090909       0.009
   0.27272727  0.18181818  0.09090909       0.018
   0.36363636  0.18181818  0.09090909       0.018
   0.27272727  0.27272727  0.09090909       0.009
   0.36363636  0.27272727  0.09090909       0.009
   0.00000000  0.00000000  0.18181818       0.002
   0.09090909  0.00000000  0.18181818       0.009
   0.18181818  0.00000000  0.18181818       0.009
   0.27272727  0.00000000  0.18181818       0.009
   0.36363636  0.00000000  0.18181818       0.009
   0.45454545  0.00000000  0.18181818       0.009
   0.09090909  0.09090909  0.18181818       0.009
   0.18181818  0.09090909  0.18181818       0.018
   0.27272727  0.09090909  0.18181818       0.018
   0.36363636  0.09090909  0.18181818       0.018
   0.45454545  0.09090909  0.18181818       0.009
   0.18181818  0.18181818  0.18181818       0.009
   0.27272727  0.18181818  0.18181818       0.018
   0.36363636  0.18181818  0.18181818       0.018
   0.27272727  0.27272727  0.18181818       0.009
   0.36363636  0.27272727  0.18181818       0.009
   0.00000000  0.00000000  0.27272727       0.002
   0.09090909  0.00000000  0.27272727       0.009
   0.18181818  0.00000000  0.27272727       0.009
   0.27272727  0.00000000  0.27272727       0.009
   0.36363636  0.00000000  0.27272727       0.009
   0.45454545  0.00000000  0.27272727       0.009
   0.09090909  0.09090909  0.27272727       0.009
   0.18181818  0.09090909  0.27272727       0.018
   0.27272727  0.09090909  0.27272727       0.018
   0.36363636  0.09090909  0.27272727       0.018
   0.45454545  0.09090909  0.27272727       0.009
   0.18181818  0.18181818  0.27272727       0.009
   0.27272727  0.18181818  0.27272727       0.018
   0.36363636  0.18181818  0.27272727       0.018
   0.27272727  0.27272727  0.27272727       0.009
   0.36363636  0.27272727  0.27272727       0.009
   0.00000000  0.00000000  0.36363636       0.002
   0.09090909  0.00000000  0.36363636       0.009
   0.18181818  0.00000000  0.36363636       0.009
   0.27272727  0.00000000  0.36363636       0.009
   0.36363636  0.00000000  0.36363636       0.009
   0.45454545  0.00000000  0.36363636       0.009
   0.09090909  0.09090909  0.36363636       0.009
   0.18181818  0.09090909  0.36363636       0.018
   0.27272727  0.09090909  0.36363636       0.018
   0.36363636  0.09090909  0.36363636       0.018
   0.45454545  0.09090909  0.36363636       0.009
   0.18181818  0.18181818  0.36363636       0.009
   0.27272727  0.18181818  0.36363636       0.018
   0.36363636  0.18181818  0.36363636       0.018
   0.27272727  0.27272727  0.36363636       0.009
   0.36363636  0.27272727  0.36363636       0.009
   0.00000000  0.00000000  0.45454545       0.002
   0.09090909  0.00000000  0.45454545       0.009
   0.18181818  0.00000000  0.45454545       0.009
   0.27272727  0.00000000  0.45454545       0.009
   0.36363636  0.00000000  0.45454545       0.009
   0.45454545  0.00000000  0.45454545       0.009
   0.09090909  0.09090909  0.45454545       0.009
   0.18181818  0.09090909  0.45454545       0.018
   0.27272727  0.09090909  0.45454545       0.018
   0.36363636  0.09090909  0.45454545       0.018
   0.45454545  0.09090909  0.45454545       0.009
   0.18181818  0.18181818  0.45454545       0.009
   0.27272727  0.18181818  0.45454545       0.018
   0.36363636  0.18181818  0.45454545       0.018
   0.27272727  0.27272727  0.45454545       0.009
   0.36363636  0.27272727  0.45454545       0.009
 
 position of ions in fractional coordinates (direct lattice) 
   0.00000000  0.00000000  0.00000000
   0.33333333  0.66666667  0.50000000
 
 position of ions in cartesian coordinates  (Angst):
   0.00000000  0.00000000  0.00000000
   0.00000000  1.29141708  1.88928000
 


--------------------------------------------------------------------------------------------------------


 k-point   1 :   0.0000 0.0000 0.0000  plane waves:     149
 k-point   2 :   0.0909 0.0000 0.0000  plane waves:     167
 k-point   3 :   0.1818 0.0000 0.0000  plane waves:     165
 k-point   4 :   0.2727 0.0000 0.0000  plane waves:     169
 k-point   5 :   0.3636 0.0000 0.0000  plane waves:     174
 k-point   6 :   0.4545 0.0000 0.0000  plane waves:     174
 k-point   7 :   0.0909 0.0909 0.0000  plane waves:     169
 k-point   8 :   0.1818 0.0909 0.0000  plane waves:     169
 k-point   9 :   0.2727 0.0909 0.0000  plane waves:     170
 k-point  10 :   0.3636 0.0909 0.0000  plane waves:     177
 k-point  11 :   0.4545 0.0909 0.0000  plane waves:     175
 k-point  12 :   0.1818 0.1818 0.0000  plane waves:     173
 k-point  13 :   0.2727 0.1818 0.0000  plane waves:     178
 k-point  14 :   0.3636 0.1818 0.0000  plane waves:     178
 k-point  15 :   0.2727 0.2727 0.0000  plane waves:     185
 k-point  16 :   0.3636 0.2727 0.0000  plane waves:     189
 k-point  17 :   0.0000 0.0000 0.0909  plane waves:     149
 k-point  18 :   0.0909 0.0000 0.0909  plane waves:     165
 k-point  19 :   0.1818 0.0000 0.0909  plane waves:     166
 k-point  20 :   0.2727 0.0000 0.0909  plane waves:     170
 k-point  21 :   0.3636 0.0000 0.0909  plane waves:     172
 k-point  22 :   0.4545 0.0000 0.0909  plane waves:     173
 k-point  23 :   0.0909 0.0909 0.0909  plane waves:     167
 k-point  24 :   0.1818 0.0909 0.0909  plane waves:     170
 k-point  25 :   0.2727 0.0909 0.0909  plane waves:     173
 k-point  26 :   0.3636 0.0909 0.0909  plane waves:     177
 k-point  27 :   0.4545 0.0909 0.0909  plane waves:     172
 k-point  28 :   0.1818 0.1818 0.0909  plane waves:     177
 k-point  29 :   0.2727 0.1818 0.0909  plane waves:     178
 k-point  30 :   0.3636 0.1818 0.0909  plane waves:     177
 k-point  31 :   0.2727 0.2727 0.0909  plane waves:     180
 k-point  32 :   0.3636 0.2727 0.0909  plane waves:     184
 k-point  33 :   0.0000 0.0000 0.1818  plane waves:     154
 k-point  34 :   0.0909 0.0000 0.1818  plane waves:     164
 k-point  35 :   0.1818 0.0000 0.1818  plane waves:     166
 k-point  36 :   0.2727 0.0000 0.1818  plane waves:     176
 k-point  37 :   0.3636 0.0000 0.1818  plane waves:     179
 k-point  38 :   0.4545 0.0000 0.1818  plane waves:     175
 k-point  39 :   0.0909 0.0909 0.1818  plane waves:     167
 k-point  40 :   0.1818 0.0909 0.1818  plane waves:     171
 k-point  41 :   0.2727 0.0909 0.1818  plane waves:     173
 k-point  42 :   0.3636 0.0909 0.1818  plane waves:     174
 k-point  43 :   0.4545 0.0909 0.1818  plane waves:     176
 k-point  44 :   0.1818 0.1818 0.1818  plane waves:     176
 k-point  45 :   0.2727 0.1818 0.1818  plane waves:     176
 k-point  46 :   0.3636 0.1818 0.1818  plane waves:     179
 k-point  47 :   0.2727 0.2727 0.1818  plane waves:     181
 k-point  48 :   0.3636 0.2727 0.1818  plane waves:     180
 k-point  49 :   0.0000 0.0000 0.2727  plane waves:     160
 k-point  50 :   0.0909 0.0000 0.2727  plane waves:     168
 k-point  51 :   0.1818 0.0000 0.2727  plane waves:     169
 k-point  52 :   0.2727 0.0000 0.2727  plane waves:     172
 k-point  53 :   0.3636 0.0000 0.2727  plane waves:     175
 k-point  54 :   0.4545 0.0000 0.2727  plane waves:     180
 k-point  55 :   0.0909 0.0909 0.2727  plane waves:     171
 k-point  56 :   0.1818 0.0909 0.2727  plane waves:     173
 k-point  57 :   0.2727 0.0909 0.2727  plane waves:     173
 k-point  58 :   0.3636 0.0909 0.2727  plane waves:     175
 k-point  59 :   0.4545 0.0909 0.2727  plane waves:     177
 k-point  60 :   0.1818 0.1818 0.2727  plane waves:     177
 k-point  61 :   0.2727 0.1818 0.2727  plane waves:     175
 k-point  62 :   0.3636 0.1818 0.2727  plane waves:     178
 k-point  63 :   0.2727 0.2727 0.2727  plane waves:     179
 k-point  64 :   0.3636 0.2727 0.2727  plane waves:     176
 k-point  65 :   0.0000 0.0000 0.3636  plane waves:     160
 k-point  66 :   0.0909 0.0000 0.3636  plane waves:     167
 k-point  67 :   0.1818 0.0000 0.3636  plane waves:     173
 k-point  68 :   0.2727 0.0000 0.3636  plane waves:     172
 k-point  69 :   0.3636 0.0000 0.3636  plane waves:     174
 k-point  70 :   0.4545 0.0000 0.3636  plane waves:     181
 k-point  71 :   0.0909 0.0909 0.3636  plane waves:     175
 k-point  72 :   0.1818 0.0909 0.3636  plane waves:     175
 k-point  73 :   0.2727 0.0909 0.3636  plane waves:     173
 k-point  74 :   0.3636 0.0909 0.3636  plane waves:     174
 k-point  75 :   0.4545 0.0909 0.3636  plane waves:     177
 k-point  76 :   0.1818 0.1818 0.3636  plane waves:     172
 k-point  77 :   0.2727 0.1818 0.3636  plane waves:     177
 k-point  78 :   0.3636 0.1818 0.3636  plane waves:     176
 k-point  79 :   0.2727 0.2727 0.3636  plane waves:     175
 k-point  80 :   0.3636 0.2727 0.3636  plane waves:     174
 k-point  81 :   0.0000 0.0000 0.4545  plane waves:     154
 k-point  82 :   0.0909 0.0000 0.4545  plane waves:     168
 k-point  83 :   0.1818 0.0000 0.4545  plane waves:     180
 k-point  84 :   0.2727 0.0000 0.4545  plane waves:     175
 k-point  85 :   0.3636 0.0000 0.4545  plane waves:     174
 k-point  86 :   0.4545 0.0000 0.4545  plane waves:     178
 k-point  87 :   0.0909 0.0909 0.4545  plane waves:     174
 k-point  88 :   0.1818 0.0909 0.4545  plane waves:     176
 k-point  89 :   0.2727 0.0909 0.4545  plane waves:     172
 k-point  90 :   0.3636 0.0909 0.4545  plane waves:     179
 k-point  91 :   0.4545 0.0909 0.4545  plane waves:     178
 k-point  92 :   0.1818 0.1818 0.4545  plane waves:     174
 k-point  93 :   0.2727 0.1818 0.4545  plane waves:     171
 k-point  94 :   0.3636 0.1818 0.4545  plane waves:     176
 k-point  95 :   0.2727 0.2727 0.4545  plane waves:     175
 k-point  96 :   0.3636 0.2727 0.4545  plane waves:     180

 maximum number of plane-waves:       189
 maximum index in each direction: 
   IXMAX=    2   IYMAX=    3   IZMAX=    5
   IXMIN=   -3   IYMIN=   -3   IZMIN=   -5


 total amount of memory used by VASP MPI-rank0    47194. kBytes
=======================================================================

   base      :      30000. kBytes
   nonl-proj :       2618. kBytes
   grid      :        721. kBytes
   one-center:         31. kBytes
   wavefun   :      13824. kBytes
 
     INWAV:  cpu time    0.0000: real time    0.0000
 Broyden mixing: mesh for mixing (old mesh)
   NGX =  5   NGY =  5   NGZ = 11
  (NGX  = 20   NGY  = 20   NGZ  = 32)
  gives a total of    275 points

 initial charge density was supplied:
 charge density of overlapping atoms calculated
 number of electron      16.0000000 magnetization 
 keeping initial charge density in first step


--------------------------------------------------------------------------------------------------------


 Maximum index for augmentation-charges         3389 (set IRDMAX)


--------------------------------------------------------------------------------------------------------


 First call to EWALD:  gamma=   0.698
 Maximum number of real-space cells 3x 3x 2
 Maximum number of reciprocal cells 2x 2x 4

    FEWALD:  cpu time    0.0008: real time    0.0008


--------------------------------------- Iteration      1(   1)  ---------------------------------------


    POTLOK:  cpu time    0.0031: real time    0.0031
    SETDIJ:  cpu time    0.0022: real time    0.0022
     EDDAV:  cpu time    0.7459: real time    0.7637
       DOS:  cpu time    0.0054: real time    0.0055
    --------------------------------------------
      LOOP:  cpu time    0.7567: real time    0.7745

 eigenvalue-minimisations  :  9776
 total energy-change (2. order) : 0.5863763E+02  (-0.2295348E+03)
 number of electron      16.0000000 magnetization 
 augmentation part       16.0000000 magnetization 

 Free energy of the ion-electron system (eV)
  ---------------------------------------------------
  alpha Z        PSCENC =       168.85477631
  Ewald energy   TEWEN  =     -1320.48041570
  -Hartree energ DENC   =      -175.18208702
  -exchange      EXHF   =         0.00000000
  -V(xc)+E(xc)   XCENC  =         9.98748701
  PAW double counting   =      1109.69170683    -1125.09647265
  entropy T*S    EENTRO =         0.00163814
  eigenvalues    EBANDS =       202.28609058
  atomic energy  EATOM  =      1188.57490811
  Solvation  Ediel_sol  =         0.00000000
  ---------------------------------------------------
  free energy    TOTEN  =        58.63763160 eV

  energy without entropy =       58.63599346  energy(sigma->0) =       58.63708555


--------------------------------------------------------------------------------------------------------




--------------------------------------- Iteration      1(   2)  ---------------------------------------


     EDDAV:  cpu time    0.6135: real time    0.6135
       DOS:  cpu time    0.0059: real time    0.0059
    --------------------------------------------
      LOOP:  cpu time    0.6194: real time    0.6194

 eigenvalue-minimisations  :  7928
 total energy-change (2. order) :-0.7259569E+02  (-0.6209513E+02)
 number of electron      16.0000000 magnetization 
 augmentation part       16.0000000 magnetization 

 Free energy of the ion-electron system (eV)
  ---------------------------------------------------
  alpha Z        PSCENC =       168.85477631
  Ewald energy   TEWEN  =     -1320.48041570
  -Hartree energ DENC   =      -175.18208702
  -exchange      EXHF   =         0.00000000
  -V(xc)+E(xc)   XCENC  =         9.98748701
  PAW double counting   =      1109.69170683    -1125.09647265
  entropy T*S    EENTRO =        -0.00045834
  eigenvalues    EBANDS =       129.69250012
  atomic energy  EATOM  =      1188.57490811
  Solvation  Ediel_sol  =         0.00000000
  ---------------------------------------------------
  free energy    TOTEN  =       -13.95805534 eV

  energy without entropy =      -13.95759700  energy(sigma->0) =      -13.95790256


--------------------------------------------------------------------------------------------------------




--------------------------------------- Iteration      1(   3)  ---------------------------------------


     EDDAV:  cpu time    0.7062: real time    0.7078
       DOS:  cpu time    0.0062: real time    0.0062
    --------------------------------------------
      LOOP:  cpu time    0.7124: real time    0.7140

 eigenvalue-minimisations  :  9528
 total energy-change (2. order) :-0.3754490E+01  (-0.3624204E+01)
 number of electron      16.0000000 magnetization 
 augmentation part       16.0000000 magnetization 

 Free energy of the ion-electron system (eV)
  ---------------------------------------------------
  alpha Z        PSCENC =       168.85477631
  Ewald energy   TEWEN  =     -1320.48041570
  -Hartree energ DENC   =      -175.18208702
  -exchange      EXHF   =         0.00000000
  -V(xc)+E(xc)   XCENC  =         9.98748701
  PAW double counting   =      1109.69170683    -1125.09647265
  entropy T*S    EENTRO =        -0.00121514
  eigenvalues    EBANDS =       125.93876727
  atomic energy  EATOM  =      1188.57490811
  Solvation  Ediel_sol  =         0.00000000
  ---------------------------------------------------
  free energy    TOTEN  =       -17.71254499 eV

  energy without entropy =      -17.71132985  energy(sigma->0) =      -17.71213994


--------------------------------------------------------------------------------------------------------




--------------------------------------- Iteration      1(   4)  ---------------------------------------


     EDDAV:  cpu time    0.6373: real time    0.6373
       DOS:  cpu time    0.0062: real time    0.0062
    --------------------------------------------
      LOOP:  cpu time    0.6434: real time    0.6434

 eigenvalue-minimisations  :  8496
 total energy-change (2. order) :-0.1052138E-01  (-0.1051823E-01)
 number of electron      16.0000000 magnetization 
 augmentation part       16.0000000 magnetization 

 Free energy of the ion-electron system (eV)
  ---------------------------------------------------
  alpha Z        PSCENC =       168.85477631
  Ewald energy   TEWEN  =     -1320.48041570
  -Hartree energ DENC   =      -175.18208702
  -exchange      EXHF   =         0.00000000
  -V(xc)+E(xc)   XCENC  =         9.98748701
  PAW double counting   =      1109.69170683    -1125.09647265
  entropy T*S    EENTRO =        -0.00121376
  eigenvalues    EBANDS =       125.92824451
  atomic energy  EATOM  =      1188.57490811
  Solvation  Ediel_sol  =         0.00000000
  ---------------------------------------------------
  free energy    TOTEN  =       -17.72306637 eV

  energy without entropy =      -17.72185261  energy(sigma->0) =      -17.72266178


--------------------------------------------------------------------------------------------------------




--------------------------------------- Iteration      1(   5)  ---------------------------------------


     EDDAV:  cpu time    0.6898: real time    0.6898
       DOS:  cpu time    0.0062: real time    0.0062
    CHARGE:  cpu time    0.0173: real time    0.0173
    MIXING:  cpu time    0.0001: real time    0.0001
    --------------------------------------------
      LOOP:  cpu time    0.7135: real time    0.7135

 eigenvalue-minimisations  :  9392
 total energy-change (2. order) :-0.5115456E-05  (-0.5114773E-05)
 number of electron      15.9999973 magnetization 
 augmentation part        7.2760267 magnetization 

 Broyden mixing:
  rms(total) = 0.22197E+01    rms(broyden)= 0.22196E+01
  rms(prec ) = 0.31650E+01
  weight for this iteration     100.00

 Free energy of the ion-electron system (eV)
  ---------------------------------------------------
  alpha Z        PSCENC =       168.85477631
  Ewald energy   TEWEN  =     -1320.48041570
  -Hartree energ DENC   =      -175.18208702
  -exchange      EXHF   =         0.00000000
  -V(xc)+E(xc)   XCENC  =         9.98748701
  PAW double counting   =      1109.69170683    -1125.09647265
  entropy T*S    EENTRO =        -0.00121376
  eigenvalues    EBANDS =       125.92823940
  atomic energy  EATOM  =      1188.57490811
  Solvation  Ediel_sol  =         0.00000000
  ---------------------------------------------------
  free energy    TOTEN  =       -17.72307148 eV

  energy without entropy =      -17.72185772  energy(sigma->0) =      -17.72266689


--------------------------------------------------------------------------------------------------------




--------------------------------------- Iteration      1(   6)  ---------------------------------------


    POTLOK:  cpu time    0.0029: real time    0.0029
    SETDIJ:  cpu time    0.0021: real time    0.0021
     EDDAV:  cpu time    0.8110: real time    0.8110
       DOS:  cpu time    0.0063: real time    0.0063
    CHARGE:  cpu time    0.0170: real time    0.0170
    MIXING:  cpu time    0.0002: real time    0.0002
    --------------------------------------------
      LOOP:  cpu time    0.8395: real time    0.8395

 eigenvalue-minimisations  : 11240
 total energy-change (2. order) : 0.2404284E+01  (-0.1075750E+00)
 number of electron      15.9999969 magnetization 
 augmentation part        8.2477846 magnetization 

 Broyden mixing:
  rms(total) = 0.24887E+00    rms(broyden)= 0.24876E+00
  rms(prec ) = 0.27152E+00
  weight for this iteration     100.00

 eigenvalues of (default mixing * dielectric matrix)
  average eigenvalue GAMMA=   1.1083
  1.1083

 Free energy of the ion-electron system (eV)
  ---------------------------------------------------
  alpha Z        PSCENC =       168.85477631
  Ewald energy   TEWEN  =     -1320.48041570
  -Hartree energ DENC   =      -147.40670973
  -exchange      EXHF   =         0.00000000
  -V(xc)+E(xc)   XCENC  =         8.61028318
  PAW double counting   =      1402.14300733    -1415.50464636
  entropy T*S    EENTRO =        -0.00059263
  eigenvalues    EBANDS =        99.89060188
  atomic energy  EATOM  =      1188.57490811
  Solvation  Ediel_sol  =         0.00000000
  ---------------------------------------------------
  free energy    TOTEN  =       -15.31878761 eV

  energy without entropy =      -15.31819498  energy(sigma->0) =      -15.31859007


--------------------------------------------------------------------------------------------------------




--------------------------------------- Iteration      1(   7)  ---------------------------------------


    POTLOK:  cpu time    0.0029: real time    0.0029
    SETDIJ:  cpu time    0.0021: real time    0.0021
     EDDAV:  cpu time    0.6711: real time    0.6712
       DOS:  cpu time    0.0065: real time    0.0065
    CHARGE:  cpu time    0.0169: real time    0.0169
    MIXING:  cpu time    0.0002: real time    0.0002
    --------------------------------------------
      LOOP:  cpu time    0.6997: real time    0.6997

 eigenvalue-minimisations  :  9040
 total energy-change (2. order) : 0.1087877E+00  (-0.3469724E-02)
 number of electron      15.9999969 magnetization 
 augmentation part        8.1751057 magnetization 

 Broyden mixing:
  rms(total) = 0.20109E+00    rms(broyden)= 0.20109E+00
  rms(prec ) = 0.25323E+00
  weight for this iteration     100.00

 eigenvalues of (default mixing * dielectric matrix)
  average eigenvalue GAMMA=   1.4477
  0.9099  1.9855

 Free energy of the ion-electron system (eV)
  ---------------------------------------------------
  alpha Z        PSCENC =       168.85477631
  Ewald energy   TEWEN  =     -1320.48041570
  -Hartree energ DENC   =      -146.46057323
  -exchange      EXHF   =         0.00000000
  -V(xc)+E(xc)   XCENC  =         8.59036034
  PAW double counting   =      1556.78866511    -1573.54740798
  entropy T*S    EENTRO =        -0.00070140
  eigenvalues    EBANDS =       102.47038855
  atomic energy  EATOM  =      1188.57490811
  Solvation  Ediel_sol  =         0.00000000
  ---------------------------------------------------
  free energy    TOTEN  =       -15.20999989 eV

  energy without entropy =      -15.20929849  energy(sigma->0) =      -15.20976609


--------------------------------------------------------------------------------------------------------




--------------------------------------- Iteration      1(   8)  ---------------------------------------


    POTLOK:  cpu time    0.0030: real time    0.0030
    SETDIJ:  cpu time    0.0021: real time    0.0021
     EDDAV:  cpu time    0.7735: real time    0.7735
       DOS:  cpu time    0.0064: real time    0.0064
    CHARGE:  cpu time    0.0170: real time    0.0170
    MIXING:  cpu time    0.0002: real time    0.0002
    --------------------------------------------
      LOOP:  cpu time    0.8021: real time    0.8021

 eigenvalue-minimisations  : 10672
 total energy-change (2. order) : 0.4582942E-01  (-0.2462916E-03)
 number of electron      15.9999969 magnetization 
 augmentation part        8.1958270 magnetization 

 Broyden mixing:
  rms(total) = 0.39177E-01    rms(broyden)= 0.39169E-01
  rms(prec ) = 0.46234E-01
  weight for this iteration     100.00

 eigenvalues of (default mixing * dielectric matrix)
  average eigenvalue GAMMA=   1.6111
  2.7707  1.1558  0.9069

 Free energy of the ion-electron system (eV)
  ---------------------------------------------------
  alpha Z        PSCENC =       168.85477631
  Ewald energy   TEWEN  =     -1320.48041570
  -Hartree energ DENC   =      -143.38463629
  -exchange      EXHF   =         0.00000000
  -V(xc)+E(xc)   XCENC  =         8.46391194
  PAW double counting   =      1741.94623762    -1761.56900404
  entropy T*S    EENTRO =        -0.00064548
  eigenvalues    EBANDS =       102.43069706
  atomic energy  EATOM  =      1188.57490811
  Solvation  Ediel_sol  =         0.00000000
  ---------------------------------------------------
  free energy    TOTEN  =       -15.16417046 eV

  energy without entropy =      -15.16352499  energy(sigma->0) =      -15.16395531


--------------------------------------------------------------------------------------------------------




--------------------------------------- Iteration      1(   9)  ---------------------------------------


    POTLOK:  cpu time    0.0029: real time    0.0029
    SETDIJ:  cpu time    0.0021: real time    0.0021
     EDDAV:  cpu time    0.7252: real time    0.7252
       DOS:  cpu time    0.0064: real time    0.0064
    CHARGE:  cpu time    0.0173: real time    0.0173
    MIXING:  cpu time    0.0002: real time    0.0002
    --------------------------------------------
      LOOP:  cpu time    0.7542: real time    0.7542

 eigenvalue-minimisations  :  9880
 total energy-change (2. order) : 0.1494216E-02  (-0.3948699E-04)
 number of electron      15.9999969 magnetization 
 augmentation part        8.1993681 magnetization 

 Broyden mixing:
  rms(total) = 0.10360E-01    rms(broyden)= 0.10357E-01
  rms(prec ) = 0.14374E-01
  weight for this iteration     100.00

 eigenvalues of (default mixing * dielectric matrix)
  average eigenvalue GAMMA=   1.6923
  2.7137  2.1441  0.9935  0.9179

 Free energy of the ion-electron system (eV)
  ---------------------------------------------------
  alpha Z        PSCENC =       168.85477631
  Ewald energy   TEWEN  =     -1320.48041570
  -Hartree energ DENC   =      -142.52724729
  -exchange      EXHF   =         0.00000000
  -V(xc)+E(xc)   XCENC  =         8.43092476
  PAW double counting   =      1809.00248115    -1829.51801269
  entropy T*S    EENTRO =        -0.00064708
  eigenvalues    EBANDS =       102.50055619
  atomic energy  EATOM  =      1188.57490811
  Solvation  Ediel_sol  =         0.00000000
  ---------------------------------------------------
  free energy    TOTEN  =       -15.16267625 eV

  energy without entropy =      -15.16202916  energy(sigma->0) =      -15.16246055


--------------------------------------------------------------------------------------------------------




--------------------------------------- Iteration      1(  10)  ---------------------------------------


    POTLOK:  cpu time    0.0030: real time    0.0030
    SETDIJ:  cpu time    0.0021: real time    0.0021
     EDDAV:  cpu time    0.6938: real time    0.6938
       DOS:  cpu time    0.0063: real time    0.0063
    CHARGE:  cpu time    0.0171: real time    0.0171
    MIXING:  cpu time    0.0002: real time    0.0002
    --------------------------------------------
      LOOP:  cpu time    0.7226: real time    0.7226

 eigenvalue-minimisations  :  9304
 total energy-change (2. order) : 0.1658839E-03  (-0.1134184E-05)
 number of electron      15.9999969 magnetization 
 augmentation part        8.1985886 magnetization 

 Broyden mixing:
  rms(total) = 0.19230E-02    rms(broyden)= 0.19228E-02
  rms(prec ) = 0.27892E-02
  weight for this iteration     100.00

 eigenvalues of (default mixing * dielectric matrix)
  average eigenvalue GAMMA=   1.6726
  2.6666  2.4400  0.9155  1.0056  1.3352

 Free energy of the ion-electron system (eV)
  ---------------------------------------------------
  alpha Z        PSCENC =       168.85477631
  Ewald energy   TEWEN  =     -1320.48041570
  -Hartree energ DENC   =      -142.73862952
  -exchange      EXHF   =         0.00000000
  -V(xc)+E(xc)   XCENC  =         8.44081998
  PAW double counting   =      1803.27365810    -1823.56988751
  entropy T*S    EENTRO =        -0.00064922
  eigenvalues    EBANDS =       102.48290908
  atomic energy  EATOM  =      1188.57490811
  Solvation  Ediel_sol  =         0.00000000
  ---------------------------------------------------
  free energy    TOTEN  =       -15.16251036 eV

  energy without entropy =      -15.16186115  energy(sigma->0) =      -15.16229396


--------------------------------------------------------------------------------------------------------




--------------------------------------- Iteration      1(  11)  ---------------------------------------


    POTLOK:  cpu time    0.0029: real time    0.0029
    SETDIJ:  cpu time    0.0021: real time    0.0021
     EDDAV:  cpu time    0.6723: real time    0.6724
       DOS:  cpu time    0.0063: real time    0.0063
    CHARGE:  cpu time    0.0172: real time    0.0172
    MIXING:  cpu time    0.0002: real time    0.0002
    --------------------------------------------
      LOOP:  cpu time    0.7011: real time    0.7011

 eigenvalue-minimisations  :  8648
 total energy-change (2. order) : 0.2582422E-04  (-0.6392731E-07)
 number of electron      15.9999969 magnetization 
 augmentation part        8.1984717 magnetization 

 Broyden mixing:
  rms(total) = 0.10250E-03    rms(broyden)= 0.10230E-03
  rms(prec ) = 0.20236E-03
  weight for this iteration     100.00

 eigenvalues of (default mixing * dielectric matrix)
  average eigenvalue GAMMA=   1.6054
  2.5777  2.5777  0.9173  1.0150  1.0150  1.5300

 Free energy of the ion-electron system (eV)
  ---------------------------------------------------
  alpha Z        PSCENC =       168.85477631
  Ewald energy   TEWEN  =     -1320.48041570
  -Hartree energ DENC   =      -142.79020226
  -exchange      EXHF   =         0.00000000
  -V(xc)+E(xc)   XCENC  =         8.44315859
  PAW double counting   =      1801.74813757    -1821.98871854
  entropy T*S    EENTRO =        -0.00064873
  eigenvalues    EBANDS =       102.47652011
  atomic energy  EATOM  =      1188.57490811
  Solvation  Ediel_sol  =         0.00000000
  ---------------------------------------------------
  free energy    TOTEN  =       -15.16248454 eV

  energy without entropy =      -15.16183581  energy(sigma->0) =      -15.16226830


--------------------------------------------------------------------------------------------------------




--------------------------------------- Iteration      1(  12)  ---------------------------------------


    POTLOK:  cpu time    0.0029: real time    0.0029
    SETDIJ:  cpu time    0.0021: real time    0.0021
     EDDAV:  cpu time    0.4757: real time    0.4757
       DOS:  cpu time    0.0064: real time    0.0064
    --------------------------------------------
      LOOP:  cpu time    0.4871: real time    0.4871

 eigenvalue-minimisations  :  5480
 total energy-change (2. order) :-0.4835692E-06  (-0.4677865E-08)
 number of electron      15.9999969 magnetization 
 augmentation part        8.1984717 magnetization 

 Free energy of the ion-electron system (eV)
  ---------------------------------------------------
  alpha Z        PSCENC =       168.85477631
  Ewald energy   TEWEN  =     -1320.48041570
  -Hartree energ DENC   =      -142.79511316
  -exchange      EXHF   =         0.00000000
  -V(xc)+E(xc)   XCENC  =         8.44336743
  PAW double counting   =      1801.64989184    -1821.88622684
  entropy T*S    EENTRO =        -0.00064856
  eigenvalues    EBANDS =       102.47697554
  atomic energy  EATOM  =      1188.57490811
  Solvation  Ediel_sol  =         0.00000000
  ---------------------------------------------------
  free energy    TOTEN  =       -15.16248502 eV

  energy without entropy =      -15.16183647  energy(sigma->0) =      -15.16226884


--------------------------------------------------------------------------------------------------------




 average (electrostatic) potential at core
  the test charge radii are     1.0103
  (the norm of the test charge is              1.0000)
       1 -40.1406       2 -40.1406
 
 
 
 E-fermi :   9.6411     XC(G=0): -15.1223     alpha+bet :-18.9349

 Fermi energy:         9.6410947204

 k-point     1 :       0.0000    0.0000    0.0000
  band No.  band energies     occupation 
      1      -0.4934      2.00000
      2       3.3245      2.00000
      3       7.0197      2.00000
      4       7.4690      2.00000
      5       7.4690      2.00000
      6       7.9852      2.00000
      7       7.9852      2.00000
      8       8.9671      2.00002
      9       8.9671      2.00002
     10       9.4318      2.05858
     11      10.6753     -0.00000
     12      10.6753     -0.00000
     13      19.9861      0.00000
     14      34.3509      0.00000
     15      36.7439      0.00000
     16      38.2796      0.00000
     17      41.9965      0.00000
     18      41.9965      0.00000
     19      42.6445      0.00000
     20      42.6445      0.00000
     21      44.9943      0.00000
     22      44.9943      0.00000
     23      46.2128      0.00000
     24      46.4972      0.00000
     25      50.3782      0.00000
     26      50.3782      0.00000
     27      52.4483      0.00000
     28      55.3015      0.00000
     29      55.3016      0.00000
     30      56.6530      0.00000
     31      56.6530      0.00000
     32      61.1905      0.00000
     33      66.1274      0.00000
     34      67.5968      0.00000
     35      67.5968      0.00000
     36      69.0288      0.00000
     37      69.2667      0.00000
     38      72.6220      0.00000
     39      72.6220      0.00000
     40      77.5181      0.00000

 k-point     2 :       0.0909    0.0000    0.0000
  band No.  band energies     occupation 
      1      -0.1096      2.00000
      2       3.6045      2.00000
      3       6.8501      2.00000
      4       7.5505      2.00000
      5       7.7166      2.00000
      6       7.8485      2.00000
      7       8.0305      2.00000
      8       8.2103      2.00000
      9       8.8044      2.00000
     10       8.8528      2.00000
     11      10.7374     -0.00000
     12      12.2978     -0.00000
     13      19.9778      0.00000
     14      33.5664      0.00000
     15      36.9380      0.00000
     16      37.0204      0.00000
     17      38.7683      0.00000
     18      40.7187      0.00000
     19      40.7688      0.00000
     20      44.7034      0.00000
     21      45.7818      0.00000
     22      45.9902      0.00000
     23      46.5479      0.00000
     24      47.3228      0.00000
     25      51.1144      0.00000
     26      51.3089      0.00000
     27      52.5104      0.00000
     28      52.6254      0.00000
     29      56.0089      0.00000
     30      58.6405      0.00000
     31      58.9100      0.00000
     32      61.9492      0.00000
     33      65.9493      0.00000
     34      66.7179      0.00000
     35      66.9372      0.00000
     36      68.4915      0.00000
     37      68.5157      0.00000
     38      72.6142      0.00000
     39      74.5991      0.00000
     40      77.3179      0.00000

 k-point     3 :       0.1818    0.0000    0.0000
  band No.  band energies     occupation 
      1       0.9572      2.00000
      2       4.2386      2.00000
      3       6.4067      2.00000
      4       6.4905      2.00000
      5       7.3734      2.00000
      6       8.1738      2.00000
      7       8.4200      2.00000
      8       8.4261      2.00000
      9       8.4595      2.00000
     10       8.8454      2.00000
     11      10.8520     -0.00000
     12      14.6197     -0.00000
     13      20.0089      0.00000
     14      30.3326      0.00000
     15      35.5783      0.00000
     16      35.6234      0.00000
     17      36.2465      0.00000
     18      37.6026      0.00000
     19      41.9053      0.00000
     20      44.1940      0.00000
     21      44.7539      0.00000
     22      45.2257      0.00000
     23      47.4394      0.00000
     24      49.7409      0.00000
     25      51.6334      0.00000
     26      52.0707      0.00000
     27      53.8242      0.00000
     28      56.2902      0.00000
     29      60.0695      0.00000
     30      60.8194      0.00000
     31      61.5042      0.00000
     32      63.3278      0.00000
     33      65.0214      0.00000
     34      65.5070      0.00000
     35      65.5833      0.00000
     36      67.1065      0.00000
     37      69.9661      0.00000
     38      73.0227      0.00000
     39      75.5535      0.00000
     40      77.2330      0.00000

 k-point     4 :       0.2727    0.0000    0.0000
  band No.  band energies     occupation 
      1       2.3888      2.00000
      2       4.4598      2.00000
      3       5.2634      2.00000
      4       6.3093      2.00000
      5       7.2178      2.00000
      6       7.9768      2.00000
      7       8.0020      2.00000
      8       9.1740      2.00468
      9       9.4221      2.06476
     10       9.7382      0.27583
     11      10.9375     -0.00000
     12      17.1192      0.00000
     13      20.0669      0.00000
     14      26.3193      0.00000
     15      32.5088      0.00000
     16      32.7983      0.00000
     17      34.3455      0.00000
     18      37.0718      0.00000
     19      41.1525      0.00000
     20      43.7954      0.00000
     21      44.8924      0.00000
     22      45.1896      0.00000
     23      45.4486      0.00000
     24      49.9865      0.00000
     25      54.8740      0.00000
     26      56.7224      0.00000
     27      57.4377      0.00000
     28      60.0161      0.00000
     29      61.0854      0.00000
     30      61.4930      0.00000
     31      63.4721      0.00000
     32      64.1184      0.00000
     33      64.7627      0.00000
     34      65.1937      0.00000
     35      65.7168      0.00000
     36      69.2274      0.00000
     37      69.6849      0.00000
     38      73.4866      0.00000
     39      75.8749      0.00000
     40      76.3964      0.00000

 k-point     5 :       0.3636    0.0000    0.0000
  band No.  band energies     occupation 
      1       3.4463      2.00000
      2       4.1317      2.00000
      3       4.4154      2.00000
      4       6.7121      2.00000
      5       7.5575      2.00000
      6       7.6332      2.00000
      7       7.6559      2.00000
      8      10.4336     -0.00000
      9      10.6469     -0.00000
     10      10.7461     -0.00000
     11      10.9773     -0.00000
     12      19.3895      0.00000
     13      19.6928      0.00000
     14      23.6554      0.00000
     15      29.1894      0.00000
     16      30.6278      0.00000
     17      31.8861      0.00000
     18      35.9670      0.00000
     19      39.7862      0.00000
     20      42.9636      0.00000
     21      43.6292      0.00000
     22      46.1627      0.00000
     23      47.7189      0.00000
     24      50.3100      0.00000
     25      58.4809      0.00000
     26      58.5976      0.00000
     27      59.1376      0.00000
     28      61.9297      0.00000
     29      62.7201      0.00000
     30      62.8882      0.00000
     31      64.1069      0.00000
     32      64.6022      0.00000
     33      65.7963      0.00000
     34      66.0659      0.00000
     35      67.0111      0.00000
     36      68.7456      0.00000
     37      73.7313      0.00000
     38      74.2446      0.00000
     39      75.3208      0.00000
     40      76.1585      0.00000

 k-point     6 :       0.4545    0.0000    0.0000
  band No.  band energies     occupation 
      1       3.5651      2.00000
      2       3.9824      2.00000
      3       4.0399      2.00000
      4       7.3181      2.00000
      5       7.4009      2.00000
      6       7.4632      2.00000
      7       7.9554      2.00000
      8      10.9908     -0.00000
      9      11.0620     -0.00000
     10      11.2692     -0.00000
     11      12.7993     -0.00000
     12      16.9346      0.00000
     13      22.0590      0.00000
     14      23.8363      0.00000
     15      26.5111      0.00000
     16      29.3422      0.00000
     17      29.3959      0.00000
     18      35.2195      0.00000
     19      39.3193      0.00000
     20      41.6725      0.00000
     21      43.5175      0.00000
     22      47.1349      0.00000
     23      49.8868      0.00000
     24      50.7315      0.00000
     25      55.3744      0.00000
     26      60.7781      0.00000
     27      60.8251      0.00000
     28      62.7704      0.00000
     29      63.8852      0.00000
     30      64.2699      0.00000
     31      64.7879      0.00000
     32      65.1969      0.00000
     33      67.0127      0.00000
     34      69.2455      0.00000
     35      69.5339      0.00000
     36      71.9976      0.00000
     37      72.6576      0.00000
     38      72.6617      0.00000
     39      75.2144      0.00000
     40      75.3211      0.00000

 k-point     7 :       0.0909    0.0909    0.0000
  band No.  band energies     occupation 
      1       0.6204      2.00000
      2       4.0875      2.00000
      3       6.4768      2.00000
      4       6.9086      2.00000
      5       7.5865      2.00000
      6       7.7933      2.00000
      7       8.2318      2.00000
      8       8.2706      2.00000
      9       8.7126      2.00000
     10       8.8368      2.00000
     11      10.7876     -0.00000
     12      13.9850     -0.00000
     13      19.9997      0.00000
     14      31.8491      0.00000
     15      33.8470      0.00000
     16      37.2909      0.00000
     17      37.6811      0.00000
     18      39.3966      0.00000
     19      39.8226      0.00000
     20      43.0047      0.00000
     21      45.2406      0.00000
     22      48.3193      0.00000
     23      48.4178      0.00000
     24      49.3997      0.00000
     25      50.2169      0.00000
     26      50.7698      0.00000
     27      51.2166      0.00000
     28      56.4511      0.00000
     29      59.3459      0.00000
     30      60.2794      0.00000
     31      60.5419      0.00000
     32      62.9584      0.00000
     33      64.3815      0.00000
     34      65.6092      0.00000
     35      67.3396      0.00000
     36      67.8771      0.00000
     37      68.1558      0.00000
     38      73.4325      0.00000
     39      75.3305      0.00000
     40      77.0631      0.00000

 k-point     8 :       0.1818    0.0909    0.0000
  band No.  band energies     occupation 
      1       1.9123      2.00000
      2       4.6595      2.00000
      3       5.7176      2.00000
      4       6.0135      2.00000
      5       7.2914      2.00000
      6       7.7464      2.00000
      7       8.3674      2.00000
      8       8.5251      2.00000
      9       9.1538      2.00306
     10       9.6485      0.93706
     11      10.8348     -0.00000
     12      16.2528      0.00000
     13      20.1080      0.00000
     14      28.3351      0.00000
     15      31.1963      0.00000
     16      34.2064      0.00000
     17      36.8051      0.00000
     18      37.4343      0.00000
     19      40.9196      0.00000
     20      42.5953      0.00000
     21      43.5464      0.00000
     22      47.9935      0.00000
     23      48.7367      0.00000
     24      49.3560      0.00000
     25      52.2893      0.00000
     26      53.0414      0.00000
     27      54.7921      0.00000
     28      60.6185      0.00000
     29      61.3978      0.00000
     30      62.1664      0.00000
     31      62.6061      0.00000
     32      63.6566      0.00000
     33      64.1008      0.00000
     34      65.3779      0.00000
     35      66.7308      0.00000
     36      67.4581      0.00000
     37      68.8944      0.00000
     38      73.9771      0.00000
     39      75.5722      0.00000
     40      76.0499      0.00000

 k-point     9 :       0.2727    0.0909    0.0000
  band No.  band energies     occupation 
      1       3.2891      2.00000
      2       4.5096      2.00000
      3       4.7803      2.00000
      4       6.1580      2.00000
      5       7.3639      2.00000
      6       7.4130      2.00000
      7       8.0512      2.00000
      8       9.3264      2.04860
      9      10.1805     -0.00092
     10      10.8642     -0.00000
     11      10.8783     -0.00000
     12      18.7511      0.00000
     13      20.1614      0.00000
     14      24.6681      0.00000
     15      29.2559      0.00000
     16      30.8930      0.00000
     17      34.3937      0.00000
     18      35.4823      0.00000
     19      40.7001      0.00000
     20      42.0713      0.00000
     21      43.7389      0.00000
     22      48.1017      0.00000
     23      48.2803      0.00000
     24      50.5739      0.00000
     25      54.6262      0.00000
     26      57.0629      0.00000
     27      59.2181      0.00000
     28      60.3453      0.00000
     29      60.5938      0.00000
     30      63.6032      0.00000
     31      63.6077      0.00000
     32      65.0110      0.00000
     33      65.5792      0.00000
     34      66.8053      0.00000
     35      67.0758      0.00000
     36      67.9639      0.00000
     37      72.5459      0.00000
     38      73.7988      0.00000
     39      74.2990      0.00000
     40      76.3305      0.00000

 k-point    10 :       0.3636    0.0909    0.0000
  band No.  band energies     occupation 
      1       3.8441      2.00000
      2       4.1919      2.00000
      3       4.2479      2.00000
      4       6.8005      2.00000
      5       7.1987      2.00000
      6       7.5956      2.00000
      7       7.8429      2.00000
      8      10.4394     -0.00000
      9      10.8718     -0.00000
     10      10.9204     -0.00000
     11      12.4291     -0.00000
     12      18.5695      0.00000
     13      21.2932      0.00000
     14      23.5885      0.00000
     15      27.7350      0.00000
     16      27.9011      0.00000
     17      31.1888      0.00000
     18      34.4089      0.00000
     19      39.7257      0.00000
     20      41.3921      0.00000
     21      44.5328      0.00000
     22      48.6234      0.00000
     23      49.8435      0.00000
     24      50.6674      0.00000
     25      57.2512      0.00000
     26      57.3331      0.00000
     27      60.2909      0.00000
     28      61.2251      0.00000
     29      62.9729      0.00000
     30      63.7390      0.00000
     31      64.1968      0.00000
     32      64.9342      0.00000
     33      65.7279      0.00000
     34      68.4342      0.00000
     35      70.3876      0.00000
     36      70.5583      0.00000
     37      71.1804      0.00000
     38      74.6729      0.00000
     39      76.1684      0.00000
     40      76.3839      0.00000

 k-point    11 :       0.4545    0.0909    0.0000
  band No.  band energies     occupation 
      1       3.7732      2.00000
      2       3.9921      2.00000
      3       4.2608      2.00000
      4       7.2446      2.00000
      5       7.2594      2.00000
      6       7.3097      2.00000
      7       8.0153      2.00000
      8      10.8720     -0.00000
      9      11.0595     -0.00000
     10      11.0668     -0.00000
     11      13.8713     -0.00000
     12      16.5849      0.00000
     13      22.9958      0.00000
     14      24.2657      0.00000
     15      26.0697      0.00000
     16      26.9748      0.00000
     17      29.5977      0.00000
     18      34.0177      0.00000
     19      39.2856      0.00000
[...]
     17      32.0876      0.00000
     18      33.4380      0.00000
     19      38.6990      0.00000
     20      39.2563      0.00000
     21      44.1307      0.00000
     22      44.9234      0.00000
     23      49.6164      0.00000
     24      50.7115      0.00000
     25      56.9244      0.00000
     26      58.6887      0.00000
     27      60.7215      0.00000
     28      61.3556      0.00000
     29      63.8595      0.00000
     30      64.3366      0.00000
     31      65.1684      0.00000
     32      65.4247      0.00000
     33      67.4979      0.00000
     34      68.1873      0.00000
     35      70.5567      0.00000
     36      71.2260      0.00000
     37      72.1587      0.00000
     38      74.4970      0.00000
     39      76.1286      0.00000
     40      76.4849      0.00000

 k-point    91 :       0.4545    0.0909    0.4545
  band No.  band energies     occupation 
      1       3.4386      2.00000
      2       3.6490      2.00000
      3       5.2122      2.00000
      4       5.3994      2.00000
      5       8.1291      2.00000
      6       8.7101      2.00000
      7       9.5957      1.37343
      8       9.9870     -0.03458
      9      10.9379     -0.00000
     10      10.9664     -0.00000
     11      13.6939     -0.00000
     12      14.3323     -0.00000
     13      21.6454      0.00000
     14      21.6885      0.00000
     15      30.0994      0.00000
     16      30.8862      0.00000
     17      32.8170      0.00000
     18      33.3633      0.00000
     19      38.6286      0.00000
     20      38.6297      0.00000
     21      43.3854      0.00000
     22      43.7036      0.00000
     23      49.8622      0.00000
     24      51.0150      0.00000
     25      57.3878      0.00000
     26      59.2792      0.00000
     27      62.8588      0.00000
     28      63.2749      0.00000
     29      63.3123      0.00000
     30      63.7032      0.00000
     31      65.0285      0.00000
     32      65.3078      0.00000
     33      69.5716      0.00000
     34      69.7618      0.00000
     35      70.6566      0.00000
     36      71.7245      0.00000
     37      73.8744      0.00000
     38      74.7690      0.00000
     39      76.3414      0.00000
     40      76.8606      0.00000

 k-point    92 :       0.1818    0.1818    0.4545
  band No.  band energies     occupation 
      1       3.9161      2.00000
      2       4.1505      2.00000
      3       6.0328      2.00000
      4       6.0708      2.00000
      5       6.6539      2.00000
      6       6.7229      2.00000
      7       8.5412      2.00000
      8       8.8873      2.00000
      9      10.7037     -0.00000
     10      10.8114     -0.00000
     11      11.5228     -0.00000
     12      12.2866     -0.00000
     13      27.8406      0.00000
     14      28.3865      0.00000
     15      28.8815      0.00000
     16      30.1016      0.00000
     17      30.7466      0.00000
     18      32.5625      0.00000
     19      42.7157      0.00000
     20      43.8320      0.00000
     21      44.5582      0.00000
     22      45.7819      0.00000
     23      48.6694      0.00000
     24      48.7668      0.00000
     25      55.7078      0.00000
     26      56.3451      0.00000
     27      59.6631      0.00000
     28      59.8266      0.00000
     29      62.6283      0.00000
     30      63.6252      0.00000
     31      63.9091      0.00000
     32      64.4729      0.00000
     33      64.8287      0.00000
     34      65.2262      0.00000
     35      67.1319      0.00000
     36      67.4643      0.00000
     37      72.2004      0.00000
     38      73.7983      0.00000
     39      74.4709      0.00000
     40      74.5820      0.00000

 k-point    93 :       0.2727    0.1818    0.4545
  band No.  band energies     occupation 
      1       4.0549      2.00000
      2       4.1891      2.00000
      3       5.7367      2.00000
      4       6.0424      2.00000
      5       7.0104      2.00000
      6       7.2682      2.00000
      7       8.5262      2.00000
      8       8.8465      2.00000
      9      10.8459     -0.00000
     10      11.1553     -0.00000
     11      13.3153     -0.00000
     12      13.9932     -0.00000
     13      24.6206      0.00000
     14      25.2754      0.00000
     15      27.6894      0.00000
     16      28.5351      0.00000
     17      31.6354      0.00000
     18      33.6463      0.00000
     19      40.8465      0.00000
     20      42.3036      0.00000
     21      44.1790      0.00000
     22      45.6848      0.00000
     23      48.6377      0.00000
     24      49.2708      0.00000
     25      57.0064      0.00000
     26      57.5903      0.00000
     27      61.0555      0.00000
     28      62.4764      0.00000
     29      64.3772      0.00000
     30      64.5563      0.00000
     31      64.9963      0.00000
     32      65.5785      0.00000
     33      66.7609      0.00000
     34      67.1807      0.00000
     35      68.0818      0.00000
     36      68.6705      0.00000
     37      72.7527      0.00000
     38      75.0371      0.00000
     39      75.1875      0.00000
     40      76.1364      0.00000

 k-point    94 :       0.3636    0.1818    0.4545
  band No.  band energies     occupation 
      1       3.9948      2.00000
      2       4.2136      2.00000
      3       5.5460      2.00000
      4       5.8455      2.00000
      5       7.1266      2.00000
      6       7.6087      2.00000
      7       9.0136      2.00008
      8       9.1792      2.00519
      9      10.7803     -0.00000
     10      11.0067     -0.00000
     11      15.2455      0.00000
     12      15.7703      0.00000
     13      21.9833      0.00000
     14      22.3918      0.00000
     15      26.9669      0.00000
     16      27.8128      0.00000
     17      33.2301      0.00000
     18      34.5249      0.00000
     19      39.5464      0.00000
     20      40.6789      0.00000
     21      42.7948      0.00000
     22      44.4770      0.00000
     23      49.8217      0.00000
     24      50.3094      0.00000
     25      59.5831      0.00000
     26      60.1209      0.00000
     27      61.5754      0.00000
     28      63.1281      0.00000
     29      63.2901      0.00000
     30      63.6534      0.00000
     31      65.2821      0.00000
     32      65.5005      0.00000
     33      67.7162      0.00000
     34      68.3518      0.00000
     35      70.5523      0.00000
     36      71.2980      0.00000
     37      73.2471      0.00000
     38      74.3386      0.00000
     39      74.9721      0.00000
     40      76.6351      0.00000

 k-point    95 :       0.2727    0.2727    0.4545
  band No.  band energies     occupation 
      1       4.4768      2.00000
      2       4.5776      2.00000
      3       5.8075      2.00000
      4       6.0837      2.00000
      5       6.6504      2.00000
      6       6.9495      2.00000
      7       8.4857      2.00000
      8       8.7541      2.00000
      9      10.8000     -0.00000
     10      11.0410     -0.00000
     11      15.8139      0.00000
     12      16.4324      0.00000
     13      22.7965      0.00000
     14      23.3328      0.00000
     15      25.2698      0.00000
     16      25.7596      0.00000
     17      33.5013      0.00000
     18      35.3727      0.00000
     19      39.4786      0.00000
     20      41.2087      0.00000
     21      42.5707      0.00000
     22      44.0239      0.00000
     23      51.3763      0.00000
     24      51.8348      0.00000
     25      57.2461      0.00000
     26      57.2690      0.00000
     27      63.2545      0.00000
     28      63.6866      0.00000
     29      64.3389      0.00000
     30      64.7305      0.00000
     31      65.3961      0.00000
     32      65.5942      0.00000
     33      66.8367      0.00000
     34      68.1370      0.00000
     35      70.8888      0.00000
     36      71.4344      0.00000
     37      72.1317      0.00000
     38      72.3520      0.00000
     39      73.7801      0.00000
     40      76.4858      0.00000

 k-point    96 :       0.3636    0.2727    0.4545
  band No.  band energies     occupation 
      1       4.7180      2.00000
      2       4.9067      2.00000
      3       5.6529      2.00000
      4       5.7279      2.00000
      5       6.7300      2.00000
      6       6.8748      2.00000
      7       8.5953      2.00000
      8       8.7982      2.00000
      9      10.7503     -0.00000
     10      10.8421     -0.00000
     11      17.8239      0.00000
     12      17.9952      0.00000
     13      21.0329      0.00000
     14      21.4787      0.00000
     15      24.6147      0.00000
     16      25.0760      0.00000
     17      35.1211      0.00000
     18      36.3246      0.00000
     19      38.8357      0.00000
     20      38.8974      0.00000
     21      42.4244      0.00000
     22      43.3863      0.00000
     23      52.8916      0.00000
     24      53.6012      0.00000
     25      57.5235      0.00000
     26      57.9402      0.00000
     27      61.8959      0.00000
     28      62.2244      0.00000
     29      65.0759      0.00000
     30      65.2909      0.00000
     31      65.5211      0.00000
     32      65.8394      0.00000
     33      67.1349      0.00000
     34      67.7776      0.00000
     35      69.8292      0.00000
     36      70.5257      0.00000
     37      73.5730      0.00000
     38      75.6589      0.00000
     39      75.8239      0.00000
     40      77.2456      0.00000


--------------------------------------------------------------------------------------------------------


 soft charge-density along one line, spin component           1
         0         1         2         3         4         5         6         7         8         9
x     7.8015    0.0000    0.0562   -0.0974   -0.0494   -0.0855    0.0223   -0.0000    0.0008   -0.0014
x     0.0000    0.0000
y     7.8015    0.0000    0.0562    0.0974   -0.0494    0.0855    0.0223    0.0000    0.0008    0.0014
y     0.0000    0.0000
z     7.8015    0.0000    0.0000   -0.0000    0.1377    0.0000    0.0000   -0.0000   -0.1135   -0.0000
z     0.0000   -0.0000    0.0232   -0.0000    0.0000   -0.0000    0.0000    0.0000
 total charge-density along one line
x    16.0000    0.0000    1.3724   -2.3771    0.2358    0.4084   -0.0028   -0.0000    0.0023   -0.0040
x    -0.0006   -0.0009    0.0009   -0.0000   -0.0001    0.0002    0.0001    0.0001   -0.0002    0.0000
x     0.0000    0.0000
y    16.0000    0.0000    1.3724    2.3771    0.2358   -0.4084   -0.0028    0.0000    0.0023    0.0040
y    -0.0006    0.0009    0.0009    0.0000   -0.0001   -0.0002    0.0001   -0.0001   -0.0002   -0.0000
y     0.0000   -0.0000
z    16.0000    0.0000    0.0000    0.0000    5.2864    0.0000    0.0000    0.0000    0.8954   -0.0000
z    -0.0000    0.0000   -0.0069   -0.0000   -0.0000   -0.0000    0.0081   -0.0000   -0.0000   -0.0000
z    -0.0026   -0.0000   -0.0000    0.0000    0.0011   -0.0000   -0.0000    0.0000   -0.0006    0.0000
z     0.0000   -0.0000    0.0005    0.0000
 
 pseudopotential strength for first ion, spin component:           1
 -2.831  -0.000  -0.000   0.000  -0.000  -3.440  -0.000  -0.000
 -0.000  -2.822   0.000  -0.000  -0.000  -0.000  -3.431   0.000
 -0.000   0.000  -2.833   0.000  -0.000  -0.000   0.000  -3.442
  0.000  -0.000   0.000  -2.822   0.000   0.000  -0.000   0.000
 -0.000  -0.000  -0.000   0.000  -2.831  -0.000  -0.000  -0.000
 -3.440  -0.000  -0.000   0.000  -0.000  -4.006  -0.000  -0.000
 -0.000  -3.431   0.000  -0.000  -0.000  -0.000  -3.997   0.000
 -0.000   0.000  -3.442   0.000  -0.000  -0.000   0.000  -4.008
  0.000  -0.000   0.000  -3.431   0.000   0.000  -0.000   0.000
 -0.000  -0.000  -0.000   0.000  -3.440  -0.000  -0.000  -0.000
  0.000  -0.000   0.001   0.000  -0.000   0.000  -0.000   0.001
  0.000  -0.000   0.002   0.000  -0.000   0.000  -0.000   0.001
 -0.000   0.000  -0.000   0.000  -0.002  -0.000   0.000  -0.000
  0.000  -0.000   0.000   0.000   0.000   0.000  -0.000   0.000
 -0.002   0.000   0.000   0.000  -0.000  -0.002   0.000   0.000
 -0.000   0.000  -0.000   0.000  -0.002  -0.000   0.000  -0.000
  0.000  -0.000   0.000  -0.000   0.000   0.000  -0.000   0.000
 -0.002   0.000   0.000   0.000  -0.000  -0.002   0.000   0.000
 total augmentation occupancy for first ion, spin component:           1
  2.222  -0.000   0.000   0.000   0.000  -2.008   0.000  -0.000   0.000  -0.000  -0.000  -0.000   0.000  -0.000   0.045  -0.000
  0.000   2.526   0.000  -0.000  -0.000   0.000  -2.153  -0.000   0.000   0.000  -0.000  -0.000  -0.000   0.000   0.000   0.000
  0.000   0.000   1.869   0.000  -0.000  -0.000   0.000  -1.756   0.000   0.000  -0.018  -0.004  -0.000   0.000   0.000   0.000
  0.000  -0.000   0.000   2.526   0.000   0.000   0.000   0.000  -2.153   0.000  -0.000   0.000   0.000  -0.000   0.000   0.000
  0.000  -0.000  -0.000  -0.000   2.222  -0.000   0.000   0.000  -0.000  -2.008  -0.000   0.000   0.045   0.000  -0.000  -0.001
 -2.008   0.000  -0.000   0.000  -0.000   3.186  -0.000   0.000  -0.000   0.000  -0.000   0.000  -0.000   0.000  -0.064   0.000
  0.000  -2.153   0.000   0.000   0.000   0.000   3.147   0.000  -0.000   0.000   0.000  -0.000  -0.000   0.000   0.000   0.000
 -0.000  -0.000  -1.756  -0.000   0.000   0.000   0.000   3.025   0.000  -0.000  -0.019  -0.001   0.000   0.000  -0.000  -0.000
 -0.000   0.000   0.000  -2.153   0.000  -0.000  -0.000  -0.000   3.147   0.000   0.000   0.000   0.000  -0.000  -0.000   0.000
 -0.000  -0.000   0.000   0.000  -2.008  -0.000   0.000  -0.000   0.000   3.186   0.000  -0.000  -0.064  -0.000   0.000   0.001
 -0.000   0.000  -0.018   0.000  -0.000  -0.000  -0.000  -0.019   0.000   0.000   3.398  -0.417  -0.000   0.000   0.000   0.000
 -0.000  -0.000  -0.004   0.000   0.000   0.000  -0.000  -0.001   0.000  -0.000  -0.417   0.058   0.000   0.000   0.000   0.000
  0.000  -0.000  -0.000  -0.000   0.045  -0.000   0.000   0.000   0.000  -0.064  -0.000  -0.000   0.476  -0.000  -0.000  -0.035
 -0.000  -0.000   0.000   0.000   0.000   0.000  -0.000   0.000  -0.000  -0.000   0.000   0.000   0.000   0.472   0.000  -0.000
  0.045   0.000   0.000   0.000  -0.000  -0.064   0.000  -0.000   0.000   0.000   0.000  -0.000  -0.000  -0.000   0.476   0.000
 -0.000   0.000   0.000   0.000  -0.001   0.000   0.000  -0.000   0.000   0.001   0.000   0.000  -0.035   0.000   0.000   0.003
  0.000   0.000   0.000  -0.000  -0.000  -0.000   0.000   0.000   0.000  -0.000   0.000   0.000  -0.000  -0.037  -0.000  -0.000
 -0.001   0.000  -0.000  -0.000   0.000   0.001   0.000   0.000  -0.000  -0.000  -0.000   0.000   0.000   0.000  -0.035  -0.000


------------------------ aborting loop because EDIFF is reached ----------------------------------------


    CHARGE:  cpu time    0.0174: real time    0.0174
    FORLOC:  cpu time    0.0002: real time    0.0002
    FORNL :  cpu time    0.0800: real time    0.0800
    STRESS:  cpu time    0.1218: real time    0.1218
    FORCOR:  cpu time    0.0030: real time    0.0030
    FORHAR:  cpu time    0.0006: real time    0.0006
    MIXING:  cpu time    0.0002: real time    0.0002

  FORCE on cell =-STRESS in cart. coord.  units (eV):
  Direction    XX          YY          ZZ          XY          YZ          ZX
  --------------------------------------------------------------------------------------
  Alpha Z   168.85478   168.85478   168.85478
  Ewald    -433.79952  -433.79952  -452.88186     0.00000     0.00000    -0.00000
  Hartree    49.63237    49.63237    43.52825    -0.00000    -0.00000    -0.00000
  E(xc)     -81.15558   -81.15559   -81.00332     0.00006     0.00000    -0.00000
  Local     123.23438   123.23446   146.71248    -0.00048     0.00000    -0.00000
  n-local   -46.79064   -46.77146   -48.58539    -5.55584     1.61251     1.14460
  augment    74.38775    74.38759    74.59424     0.00048    -0.00000     0.00000
  Kinetic   160.99654   154.97166   155.72350     0.67924    -1.10057     0.03649
  Fock        0.00000     0.00000     0.00000     0.00000     0.00000     0.00000
  -------------------------------------------------------------------------------------
  Total      12.35718    12.35718     6.94268    -0.00000     0.00000     0.00000
  in kB    1209.25724  1209.25724   679.40120    -0.00000     0.00000     0.00000
  external pressure =     1032.64 kB  Pullay stress =        0.00 kB


 VOLUME and BASIS-vectors are now :
 -----------------------------------------------------------------------------
  energy-cutoff  :      280.00
  volume of cell :       16.37
      direct lattice vectors                 reciprocal lattice vectors
     2.236800000  0.000000000  0.000000000     0.447067239  0.258114391  0.000000000
    -1.118400000  1.937125623  0.000000000     0.000000000  0.516228781  0.000000000
     0.000000000  0.000000000  3.778560000     0.000000000  0.000000000  0.264651084

  length of vectors
     2.236800000  2.236800000  3.778560000     0.516228781  0.516228781  0.264651084


 FORCES acting on ions
    electron-ion (+dipol)            ewald-force                    non-local-force                 convergence-correction
 -----------------------------------------------------------------------------------------------
   0.156E-05 -.742E-06 0.515E-14   0.847E-12 -.483E-12 -.241E-13   0.207E-17 -.985E-18 0.161E-18   -.406E-07 0.234E-07 -.132E-13
   0.137E-05 0.347E-05 0.563E-13   -.837E-12 0.487E-12 0.241E-13   -.964E-17 0.168E-17 0.111E-18   0.407E-07 -.235E-07 0.913E-14
 -----------------------------------------------------------------------------------------------
   0.293E-05 0.273E-05 0.615E-13   0.101E-13 0.446E-14 -.160E-16   -.757E-17 0.694E-18 0.272E-18   0.638E-10 -.356E-10 -.410E-14
 
 
 POSITION                                       TOTAL-FORCE (eV/Angst)
 -----------------------------------------------------------------------------------
      0.00000      0.00000      0.00000         0.000000     -0.000000     -0.000000
      0.00000      1.29142      1.88928        -0.000000      0.000000      0.000000
 -----------------------------------------------------------------------------------
    total drift:                                0.000003      0.000003      0.000000


--------------------------------------------------------------------------------------------------------



  FREE ENERGIE OF THE ION-ELECTRON SYSTEM (eV)
  ---------------------------------------------------
  free  energy   TOTEN  =       -15.16248502 eV

  energy  without entropy=      -15.16183647  energy(sigma->0) =      -15.16226884
 


--------------------------------------------------------------------------------------------------------


    POTLOK:  cpu time    0.0051: real time    0.0051


--------------------------------------------------------------------------------------------------------


 writing wavefunctions
     LOOP+:  cpu time    8.7161: real time    8.7356
    4ORBIT:  cpu time    0.0000: real time    0.0000

 total amount of memory used by VASP MPI-rank0    47194. kBytes
=======================================================================

   base      :      30000. kBytes
   nonl-proj :       2618. kBytes
   grid      :        721. kBytes
   one-center:         31. kBytes
   wavefun   :      13824. kBytes
 
  
  
 General timing and accounting informations for this job:
 ========================================================
  
                  Total CPU time used (sec):        8.878
                            User time (sec):        8.854
                          System time (sec):        0.024
                         Elapsed time (sec):        8.887
  
                   Maximum memory used (kb):       51968.
                   Average memory used (kb):          N/A
  
                          Minor page faults:         6844
                          Major page faults:            0
                 Voluntary context switches:           28
