unknown system                          
   1.00000000000000     
     3.635000    0.000000    0.000000
     0.000000    3.635000    0.000000
     0.000000    0.000000    3.635000
   Cu
     4
Direct
  0.000000  0.000000  0.000000
  0.500000  0.500000  0.000000
  0.500000  0.000000  0.500000
  0.000000  0.500000  0.500000
 
   32   32   32
  844.89      796.26      665.79      491.73      317.45      175.94      82.878      36.417      20.831      15.128    
  11.463      9.2725      8.0429      7.4213      7.0256      6.6614      6.4888      6.6614      7.0256      7.4213    
  8.0429      9.2725      11.463      15.128      20.831      36.417      82.878      175.94      317.45      491.73    
  665.79      796.26      796.26      750.23      626.74      462.06      297.41      164.23      77.333      34.566    
  20.431      14.933      11.398      9.2995      8.1271      7.5373      7.1645      6.8231      6.6614      6.8231    
  7.1645      7.5373      8.1271      9.2995      11.398      14.933      20.431      34.566      77.333      164.23    
  297.41      462.06      626.74      750.23      665.79      626.74      522.01      382.63      244.06      133.43    
  63.074      30.003      19.394      14.394      11.224      9.3642      8.3272      7.7983      7.4628      7.1645    
  7.0256      7.1645      7.4628      7.7983      8.3272      9.3642      11.224      14.394      19.394      30.003    
  63.074      133.43      244.06      382.63      522.01      626.74      491.73      462.06      382.63      277.51    
  174.40      94.291      45.876      24.952      17.927      13.643      11.001      9.4621      8.5873      8.1117    
  7.7983      7.5373      7.4213      7.5373      7.7983      8.1117      8.5873      9.4621      11.001      13.643    
  17.927      24.952      45.876      94.291      174.40      277.51      382.63      462.06      317.45      297.41    
  244.06      174.40      107.91      58.804      31.673      21.129      16.231      12.855      10.828      9.6557    
  8.9768      8.5873      8.3272      8.1271      8.0429      8.1271      8.3272      8.5873      8.9768      9.6557    
  10.828      12.855      16.231      21.129      31.673      58.804      107.91      174.40      244.06      297.41    
  175.94      164.23      133.43      94.291      58.804      34.872      23.307      18.255      14.597      12.202    
  10.819      10.058      9.6557      9.4621      9.3642      9.2995      9.2725      9.2995      9.3642      9.4621    
  9.6557      10.058      10.819      12.202      14.597      18.255      23.307      34.872      58.804      94.291    
  133.43      164.23      82.878      77.333      63.074      45.876      31.673      23.307      19.012      15.680    
  13.282      11.830      11.094      10.819      10.828      11.001      11.224      11.398      11.463      11.398    
  11.224      11.001      10.828      10.819      11.094      11.830      13.282      15.680      19.012      23.307    
  31.673      45.876      63.074      77.333      36.417      34.566      30.003      24.952      21.129      18.255    
  15.680      13.700      12.447      11.867      11.830      12.202      12.855      13.643      14.394      14.933    
  15.128      14.933      14.394      13.643      12.855      12.202      11.830      11.867      12.447      13.700    
  15.680      18.255      21.129      24.952      30.003      34.566      20.831      20.431      19.394      17.927    
  16.231      14.597      13.282      12.447      12.163      12.447      13.282      14.597      16.231      17.927    
  19.394      20.431      20.831      20.431      19.394      17.927      16.231      14.597      13.282      12.447    
  12.163      12.447      13.282      14.597      16.231      17.927      19.394      20.431      15.128      14.933    
  14.394      13.643      12.855      12.202      11.830      11.867      12.447      13.700      15.680      18.255    
  21.129      24.952      30.003      34.566      36.417      34.566      30.003      24.952      21.129      18.255    
  15.680      13.700      12.447      11.867      11.830      12.202      12.855      13.643      14.394      14.933    
  11.463      11.398      11.224      11.001      10.828      10.819      11.094      11.830      13.282      15.680    
  19.012      23.307      31.673      45.876      63.074      77.333      82.878      77.333      63.074      45.876    
  31.673      23.307      19.012      15.680      13.282      11.830      11.094      10.819      10.828      11.001    
  11.224      11.398      9.2725      9.2995      9.3642      9.4621      9.6557      10.058      10.819      12.202    
  14.597      18.255      23.307      34.872      58.804      94.291      133.43      164.23      175.94      164.23    
  133.43      94.291      58.804      34.872      23.307      18.255      14.597      12.202      10.819      10.058    
  9.6557      9.4621      9.3642      9.2995      8.0429      8.1271      8.3272      8.5873      8.9768      9.6557    
  10.828      12.855      16.231      21.129      31.673      58.804      107.91      174.40      244.06      297.41    
  317.45      297.41      244.06      174.40      107.91      58.804      31.673      21.129      16.231      12.855    
  10.828      9.6557      8.9768      8.5873      8.3272      8.1271      7.4213      7.5373      7.7983      8.1117    
  8.5873      9.4621      11.001      13.643      17.927      24.952      45.876      94.291      174.40      277.51    
  382.63      462.06      491.73      462.06      382.63      277.51      174.40      94.291      45.876      24.952    
  17.927      13.643      11.001      9.4621      8.5873      8.1117      7.7983      7.5373      7.0256      7.1645    
  7.4628      7.7983      8.3272      9.3642      11.224      14.394      19.394      30.003      63.074      133.43    
  244.06      382.63      522.01      626.74      665.79      626.74      522.01      382.63      244.06      133.43    
  63.074      30.003      19.394      14.394      11.224      9.3642      8.3272      7.7983      7.4628      7.1645    
  6.6614      6.8231      7.1645      7.5373      8.1271      9.2995      11.398      14.933      20.431      34.566    
  77.333      164.23      297.41      462.06      626.74      750.23      796.26      750.23      626.74      462.06    
  297.41      164.23      77.333      34.566      20.431      14.933      11.398      9.2995      8.1271      7.5373    
  7.1645      6.8231      6.4888      6.6614      7.0256      7.4213      8.0429      9.2725      11.463      15.128    
  20.831      36.417      82.878      175.94      317.45      491.73      665.79      796.26      844.89      796.26    
  665.79      491.73      317.45      175.94      82.878      36.417      20.831      15.128      11.463      9.2725    
  8.0429      7.4213      7.0256      6.6614      6.6614      6.8231      7.1645      7.5373      8.1271      9.2995    
  11.398      14.933      20.431      34.566      77.333      164.23      297.41      462.06      626.74      750.23    
  796.26      750.23      626.74      462.06      297.41      164.23      77.333      34.566      20.431      14.933    
  11.398      9.2995      8.1271      7.5373      7.1645      6.8231      7.0256      7.1645      7.4628      7.7983    
  8.3272      9.3642      11.224      14.394      19.394      30.003      63.074      133.43      244.06      382.63    
  522.01      626.74      665.79      626.74      522.01      382.63      244.06      133.43      63.074      30.003    
  19.394      14.394      11.224      9.3642      8.3272      7.7983      7.4628      7.1645      7.4213      7.5373    
  7.7983      8.1117      8.5873      9.4621      11.001      13.643      17.927      24.952      45.876      94.291    
  174.40      277.51      382.63      462.06      491.73      462.06      382.63      277.51      174.40      94.291    
  45.876      24.952      17.927      13.643      11.001      9.4621      8.5873      8.1117      7.7983      7.5373    
  8.0429      8.1271      8.3272      8.5873      8.9768      9.6557      10.828      12.855      16.231      21.129    
  31.673      58.804      107.91      174.40      244.06      297.41      317.45      297.41      244.06      174.40    
  107.91      58.804      31.673      21.129      16.231      12.855      10.828      9.6557      8.9768      8.5873    
  8.3272      8.1271      9.2725      9.2995      9.3642      9.4621      9.6557      10.058      10.819      12.202    
  14.597      18.255      23.307      34.872      58.804      94.291      133.43      164.23      175.94      164.23    
  133.43      94.291      58.804      34.872      23.307      18.255      14.597      12.202      10.819      10.058    
  9.6557      9.4621      9.3642      9.2995      11.463      11.398      11.224      11.001      10.828      10.819    
  11.094      11.830      13.282      15.680      19.012      23.307      31.673      45.876      63.074      77.333    
  82.878      77.333      63.074      45.876      31.673      23.307      19.012      15.680      13.282      11.830    
  11.094      10.819      10.828      11.001      11.224      11.398      15.128      14.933      14.394      13.643    
  12.855      12.202      11.830      11.867      12.447      13.700      15.680      18.255      21.129      24.952    
  30.003      34.566      36.417      34.566      30.003      24.952      21.129      18.255      15.680      13.700    
  12.447      11.867      11.830      12.202      12.855      13.643      14.394      14.933      20.831      20.431    
  19.394      17.927      16.231      14.597      13.282      12.447      12.163      12.447      13.282      14.597    
  16.231      17.927      19.394      20.431      20.831      20.431      19.394      17.927      16.231      14.597    
  13.282      12.447      12.163      12.447      13.282      14.597      16.231      17.927      19.394      20.431    
  36.417      34.566      30.003      24.952      21.129      18.255      15.680      13.700      12.447      11.867    
  11.830      12.202      12.855      13.643      14.394      14.933      15.128      14.933      14.394      13.643    
  12.855      12.202      11.830      11.867      12.447      13.700      15.680      18.255      21.129      24.952    
  30.003      34.566      82.878      77.333      63.074      45.876      31.673      23.307      19.012      15.680    
  13.282      11.830      11.094      10.819      10.828      11.001      11.224      11.398      11.463      11.398    
  11.224      11.001      10.828      10.819      11.094      11.830      13.282      15.680      19.012      23.307    
  31.673      45.876      63.074      77.333      175.94      164.23      133.43      94.291      58.804      34.872    
  23.307      18.255      14.597      12.202      10.819      10.058      9.6557      9.4621      9.3642      9.2995    
  9.2725      9.2995      9.3642      9.4621      9.6557      10.058      10.819      12.202      14.597      18.255    
  23.307      34.872      58.804      94.291      133.43      164.23      317.45      297.41      244.06      174.40    
  107.91      58.804      31.673      21.129      16.231      12.855      10.828      9.6557      8.9768      8.5873    
  8.3272      8.1271      8.0429      8.1271      8.3272      8.5873      8.9768      9.6557      10.828      12.855    
  16.231      21.129      31.673      58.804      107.91      174.40      244.06      297.41      491.73      462.06    
  382.63      277.51      174.40      94.291      45.876      24.952      17.927      13.643      11.001      9.4621    
  8.5873      8.1117      7.7983      7.5373      7.4213      7.5373      7.7983      8.1117      8.5873      9.4621    
  11.001      13.643      17.927      24.952      45.876      94.291      174.40      277.51      382.63      462.06    
  665.79      626.74      522.01      382.63      244.06      133.43      63.074      30.003      19.394      14.394    
  11.224      9.3642      8.3272      7.7983      7.4628      7.1645      7.0256      7.1645      7.4628      7.7983    
  8.3272      9.3642      11.224      14.394      19.394      30.003      63.074      133.43      244.06      382.63    
  522.01      626.74      796.26      750.23      626.74      462.06      297.41      164.23      77.333      34.566    
  20.431      14.933      11.398      9.2995      8.1271      7.5373      7.1645      6.8231      6.6614      6.8231    
  7.1645      7.5373      8.1271      9.2995      11.398      14.933      20.431      34.566      77.333      164.23    
  297.41      462.06      626.74      750.23      796.26      750.23      626.74      462.06      297.41      164.23    
  77.333      34.566      20.431      14.933      11.398      9.2995      8.1271      7.5373      7.1645      6.8231    
  6.6614      6.8231      7.1645      7.5373      8.1271      9.2995      11.398      14.933      20.431      34.566    
  77.333      164.23      297.41      462.06      626.74      750.23      750.23      706.66      589.79      434.01    
  278.52      153.27      72.196      32.885      20.059      14.742      11.335      9.3238      8.2058      7.6458    
  7.2946      6.9745      6.8231      6.9745      7.2946      7.6458      8.2058      9.3238      11.335      14.742    
  20.059      32.885      72.196      153.27      278.52      434.01      589.79      706.66      626.74      589.79    
  490.72      358.97      228.29      124.45      59.020      28.755      19.068      14.217      11.164      9.3826    
  8.3937      7.8911      7.5745      7.2946      7.1645      7.2946      7.5745      7.8911      8.3937      9.3826    
  11.164      14.217      19.068      28.755      59.020      124.45      228.29      358.97      490.72      589.79    
  462.06      434.01      358.97      259.82      162.85      87.964      43.216      24.201      17.631      13.487    
  10.947      9.4741      8.6400      8.1877      7.8911      7.6458      7.5373      7.6458      7.8911      8.1877    
  8.6400      9.4741      10.947      13.487      17.631      24.201      43.216      87.964      162.85      259.82    
  358.97      434.01      297.41      278.52      228.29      162.85      100.65      55.102      30.283      20.714    
  15.979      12.724      10.779      9.6581      9.0108      8.6400      8.3937      8.2058      8.1271      8.2058    
  8.3937      8.6400      9.0108      9.6581      10.779      12.724      15.979      20.714      30.283      55.102    
  100.65      162.85      228.29      278.52      164.23      153.27      124.45      87.964      55.102      33.187    
  22.725      17.933      14.396      12.094      10.768      10.041      9.6581      9.4741      9.3826      9.3238    
  9.2995      9.3238      9.3826      9.4741      9.6581      10.041      10.768      12.094      14.396      17.933    
  22.725      33.187      55.102      87.964      124.45      153.27      77.333      72.196      59.020      43.216    
  30.283      22.725      18.665      15.436      13.127      11.735      11.031      10.768      10.779      10.947    
  11.164      11.335      11.398      11.335      11.164      10.947      10.779      10.768      11.031      11.735    
  13.127      15.436      18.665      22.725      30.283      43.216      59.020      72.196      34.566      32.885    
  28.755      24.201      20.714      17.933      15.436      13.527      12.324      11.769      11.735      12.094    
  12.724      13.487      14.217      14.742      14.933      14.742      14.217      13.487      12.724      12.094    
  11.735      11.769      12.324      13.527      15.436      17.933      20.714      24.201      28.755      32.885    
  20.431      20.059      19.068      17.631      15.979      14.396      13.127      12.324      12.051      12.324    
  13.127      14.396      15.979      17.631      19.068      20.059      20.431      20.059      19.068      17.631    
  15.979      14.396      13.127      12.324      12.051      12.324      13.127      14.396      15.979      17.631    
  19.068      20.059      14.933      14.742      14.217      13.487      12.724      12.094      11.735      11.769    
  12.324      13.527      15.436      17.933      20.714      24.201      28.755      32.885      34.566      32.885    
  28.755      24.201      20.714      17.933      15.436      13.527      12.324      11.769      11.735      12.094    
  12.724      13.487      14.217      14.742      11.398      11.335      11.164      10.947      10.779      10.768    
  11.031      11.735      13.127      15.436      18.665      22.725      30.283      43.216      59.020      72.196    
  77.333      72.196      59.020      43.216      30.283      22.725      18.665      15.436      13.127      11.735    
  11.031      10.768      10.779      10.947      11.164      11.335      9.2995      9.3238      9.3826      9.4741    
  9.6581      10.041      10.768      12.094      14.396      17.933      22.725      33.187      55.102      87.964    
  124.45      153.27      164.23      153.27      124.45      87.964      55.102      33.187      22.725      17.933    
  14.396      12.094      10.768      10.041      9.6581      9.4741      9.3826      9.3238      8.1271      8.2058    
  8.3937      8.6400      9.0108      9.6581      10.779      12.724      15.979      20.714      30.283      55.102    
  100.65      162.85      228.29      278.52      297.41      278.52      228.29      162.85      100.65      55.102    
  30.283      20.714      15.979      12.724      10.779      9.6581      9.0108      8.6400      8.3937      8.2058    
  7.5373      7.6458      7.8911      8.1877      8.6400      9.4741      10.947      13.487      17.631      24.201    
  43.216      87.964      162.85      259.82      358.97      434.01      462.06      434.01      358.97      259.82    
  162.85      87.964      43.216      24.201      17.631      13.487      10.947      9.4741      8.6400      8.1877    
  7.8911      7.6458      7.1645      7.2946      7.5745      7.8911      8.3937      9.3826      11.164      14.217    
  19.068      28.755      59.020      124.45      228.29      358.97      490.72      589.79      626.74      589.79    
  490.72      358.97      228.29      124.45      59.020      28.755      19.068      14.217      11.164      9.3826    
  8.3937      7.8911      7.5745      7.2946      6.8231      6.9745      7.2946      7.6458      8.2058      9.3238    
  11.335      14.742      20.059      32.885      72.196      153.27      278.52      434.01      589.79      706.66    
  750.23      706.66      589.79      434.01      278.52      153.27      72.196      32.885      20.059      14.742    
  11.335      9.3238      8.2058      7.6458      7.2946      6.9745      6.6614      6.8231      7.1645      7.5373    
  8.1271      9.2995      11.398      14.933      20.431      34.566      77.333      164.23      297.41      462.06    
  626.74      750.23      796.26      750.23      626.74      462.06      297.41      164.23      77.333      34.566    
  20.431      14.933      11.398      9.2995      8.1271      7.5373      7.1645      6.8231      6.8231      6.9745    
  7.2946      7.6458      8.2058      9.3238      11.335      14.742      20.059      32.885      72.196      153.27    
  278.52      434.01      589.79      706.66      750.23      706.66      589.79      434.01      278.52      153.27    
  72.196      32.885      20.059      14.742      11.335      9.3238      8.2058      7.6458      7.2946      6.9745    
  7.1645      7.2946      7.5745      7.8911      8.3937      9.3826      11.164      14.217      19.068      28.755    
  59.020      124.45      228.29      358.97      490.72      589.79      626.74      589.79      490.72      358.97    
  228.29      124.45      59.020      28.755      19.068      14.217      11.164      9.3826      8.3937      7.8911    
  7.5745      7.2946      7.5373      7.6458      7.8911      8.1877      8.6400      9.4741      10.947      13.487    
  17.631      24.201      43.216      87.964      162.85      259.82      358.97      434.01      462.06      434.01    
  358.97      259.82      162.85      87.964      43.216      24.201      17.631      13.487      10.947      9.4741    
  8.6400      8.1877      7.8911      7.6458      8.1271      8.2058      8.3937      8.6400      9.0108      9.6581    
  10.779      12.724      15.979      20.714      30.283      55.102      100.65      162.85      228.29      278.52    
  297.41      278.52      228.29      162.85      100.65      55.102      30.283      20.714      15.979      12.724    
  10.779      9.6581      9.0108      8.6400      8.3937      8.2058      9.2995      9.3238      9.3826      9.4741    
  9.6581      10.041      10.768      12.094      14.396      17.933      22.725      33.187      55.102      87.964    
  124.45      153.27      164.23      153.27      124.45      87.964      55.102      33.187      22.725      17.933    
  14.396      12.094      10.768      10.041      9.6581      9.4741      9.3826      9.3238      11.398      11.335    
  11.164      10.947      10.779      10.768      11.031      11.735      13.127      15.436      18.665      22.725    
  30.283      43.216      59.020      72.196      77.333      72.196      59.020      43.216      30.283      22.725    
  18.665      15.436      13.127      11.735      11.031      10.768      10.779      10.947      11.164      11.335    
  14.933      14.742      14.217      13.487      12.724      12.094      11.735      11.769      12.324      13.527    
  15.436      17.933      20.714      24.201      28.755      32.885      34.566      32.885      28.755      24.201    
  20.714      17.933      15.436      13.527      12.324      11.769      11.735      12.094      12.724      13.487    
  14.217      14.742      20.431      20.059      19.068      17.631      15.979      14.396      13.127      12.324    
  12.051      12.324      13.127      14.396      15.979      17.631      19.068      20.059      20.431      20.059    
  19.068      17.631      15.979      14.396      13.127      12.324      12.051      12.324      13.127      14.396    
  15.979      17.631      19.068      20.059      34.566      32.885      28.755      24.201      20.714      17.933    
  15.436      13.527      12.324      11.769      11.735      12.094      12.724      13.487      14.217      14.742    
  14.933      14.742      14.217      13.487      12.724      12.094      11.735      11.769      12.324      13.527    
  15.436      17.933      20.714      24.201      28.755      32.885      77.333      72.196      59.020      43.216    
  30.283      22.725      18.665      15.436      13.127      11.735      11.031      10.768      10.779      10.947    
  11.164      11.335      11.398      11.335      11.164      10.947      10.779      10.768      11.031      11.735    
  13.127      15.436      18.665      22.725      30.283      43.216      59.020      72.196      164.23      153.27    
  124.45      87.964      55.102      33.187      22.725      17.933      14.396      12.094      10.768      10.041    
  9.6581      9.4741      9.3826      9.3238      9.2995      9.3238      9.3826      9.4741      9.6581      10.041    
  10.768      12.094      14.396      17.933      22.725      33.187      55.102      87.964      124.45      153.27    
  297.41      278.52      228.29      162.85      100.65      55.102      30.283      20.714      15.979      12.724    
  10.779      9.6581      9.0108      8.6400      8.3937      8.2058      8.1271      8.2058      8.3937      8.6400    
  9.0108      9.6581      10.779      12.724      15.979      20.714      30.283      55.102      100.65      162.85    
  228.29      278.52      462.06      434.01      358.97      259.82      162.85      87.964      43.216      24.201    
  17.631      13.487      10.947      9.4741      8.6400      8.1877      7.8911      7.6458      7.5373      7.6458    
  7.8911      8.1877      8.6400      9.4741      10.947      13.487      17.631      24.201      43.216      87.964    
  162.85      259.82      358.97      434.01      626.74      589.79      490.72      358.97      228.29      124.45    
  59.020      28.755      19.068      14.217      11.164      9.3826      8.3937      7.8911      7.5745      7.2946    
  7.1645      7.2946      7.5745      7.8911      8.3937      9.3826      11.164      14.217      19.068      28.755    
  59.020      124.45      228.29      358.97      490.72      589.79      750.23      706.66      589.79      434.01    
  278.52      153.27      72.196      32.885      20.059      14.742      11.335      9.3238      8.2058      7.6458    
  7.2946      6.9745      6.8231      6.9745      7.2946      7.6458      8.2058      9.3238      11.335      14.742    
  20.059      32.885      72.196      153.27      278.52      434.01      589.79      706.66      665.79      626.74    
  522.01      382.63      244.06      133.43      63.074      30.003      19.394      14.394      11.224      9.3642    
  8.3272      7.7983      7.4628      7.1645      7.0256      7.1645      7.4628      7.7983      8.3272      9.3642    
  11.224      14.394      19.394      30.003      63.074      133.43      244.06      382.63      522.01      626.74    
  626.74      589.79      490.72      358.97      228.29      124.45      59.020      28.755      19.068      14.217    
  11.164      9.3826      8.3937      7.8911      7.5745      7.2946      7.1645      7.2946      7.5745      7.8911    
  8.3937      9.3826      11.164      14.217      19.068      28.755      59.020      124.45      228.29      358.97    
  490.72      589.79      522.01      490.72      406.91      295.82      186.48      100.97      48.704      25.709    
  18.149      13.732      11.005      9.4295      8.5556      8.1046      7.8192      7.5745      7.4628      7.5745    
  7.8192      8.1046      8.5556      9.4295      11.005      13.732      18.149      25.709      48.704      100.97    
  186.48      295.82      406.91      490.72      382.63      358.97      295.82      212.77      132.41      71.592    
  36.545      22.358      16.806      13.063      10.805      9.5080      8.7736      8.3699      8.1046      7.8911    
  7.7983      7.8911      8.1046      8.3699      8.7736      9.5080      10.805      13.063      16.806      22.358    
  36.545      71.592      132.41      212.77      295.82      358.97      244.06      228.29      186.48      132.41    
  81.784      45.692      26.864      19.598      15.282      12.370      10.652      9.6695      9.1022      8.7736    
  8.5556      8.3937      8.3272      8.3937      8.5556      8.7736      9.1022      9.6695      10.652      12.370    
  15.282      19.598      26.864      45.692      81.784      132.41      186.48      228.29      133.43      124.45    
  100.97      71.592      45.692      29.021      21.255      17.031      13.843      11.802      10.638      10.004    
  9.6695      9.5080      9.4295      9.3826      9.3642      9.3826      9.4295      9.5080      9.6695      10.004    
  10.638      11.802      13.843      17.031      21.255      29.021      45.692      71.592      100.97      124.45    
  63.074      59.020      48.704      36.545      26.864      21.255      17.688      14.758      12.703      11.478    
  10.864      10.638      10.652      10.805      11.005      11.164      11.224      11.164      11.005      10.805    
  10.652      10.638      10.864      11.478      12.703      14.758      17.688      21.255      26.864      36.545    
  48.704      59.020      30.003      28.755      25.709      22.358      19.598      17.031      14.758      13.051    
  11.987      11.503      11.478      11.802      12.370      13.063      13.732      14.217      14.394      14.217    
  13.732      13.063      12.370      11.802      11.478      11.503      11.987      13.051      14.758      17.031    
  19.598      22.358      25.709      28.755      19.394      19.068      18.149      16.806      15.282      13.843    
  12.703      11.987      11.746      11.987      12.703      13.843      15.282      16.806      18.149      19.068    
  19.394      19.068      18.149      16.806      15.282      13.843      12.703      11.987      11.746      11.987    
  12.703      13.843      15.282      16.806      18.149      19.068      14.394      14.217      13.732      13.063    
  12.370      11.802      11.478      11.503      11.987      13.051      14.758      17.031      19.598      22.358    
  25.709      28.755      30.003      28.755      25.709      22.358      19.598      17.031      14.758      13.051    
  11.987      11.503      11.478      11.802      12.370      13.063      13.732      14.217      11.224      11.164    
  11.005      10.805      10.652      10.638      10.864      11.478      12.703      14.758      17.688      21.255    
  26.864      36.545      48.704      59.020      63.074      59.020      48.704      36.545      26.864      21.255    
  17.688      14.758      12.703      11.478      10.864      10.638      10.652      10.805      11.005      11.164    
  9.3642      9.3826      9.4295      9.5080      9.6695      10.004      10.638      11.802      13.843      17.031    
  21.255      29.021      45.692      71.592      100.97      124.45      133.43      124.45      100.97      71.592    
  45.692      29.021      21.255      17.031      13.843      11.802      10.638      10.004      9.6695      9.5080    
  9.4295      9.3826      8.3272      8.3937      8.5556      8.7736      9.1022      9.6695      10.652      12.370    
  15.282      19.598      26.864      45.692      81.784      132.41      186.48      228.29      244.06      228.29    