unknown system                          
   1.00000000000000     
     3.635000    0.000000    0.000000
     0.000000    3.635000    0.000000
     0.000000    0.000000    3.635000
   Cu
     4
Direct
  0.000000  0.000000  0.000000
  0.500000  0.500000  0.000000
  0.500000  0.000000  0.500000
  0.000000  0.500000  0.500000
 
   32   32   32
 0.84488554037E+03 0.79625850225E+03 0.66579024967E+03 0.49173195352E+03 0.31744915678E+03
 0.17594084866E+03 0.82878150148E+02 0.36416691144E+02 0.20830507610E+02 0.15128176070E+02
 0.11462699418E+02 0.92725482758E+01 0.80429299761E+01 0.74213432795E+01 0.70255813997E+01
 0.66613883981E+01 0.64887715548E+01 0.66613883981E+01 0.70255813997E+01 0.74213432795E+01
 0.80429299761E+01 0.92725482758E+01 0.11462699418E+02 0.15128176070E+02 0.20830507610E+02
 0.36416691144E+02 0.82878150148E+02 0.17594084866E+03 0.31744915678E+03 0.49173195352E+03
 0.66579024967E+03 0.79625850225E+03 0.79625850225E+03 0.75023014150E+03 0.62673847907E+03
 0.46205552694E+03 0.29741057530E+03 0.16423436253E+03 0.77332715761E+02 0.34565622314E+02
 0.20431258944E+02 0.14932568642E+02 0.11398255370E+02 0.92995182389E+01 0.81270895268E+01
 0.75372626041E+01 0.71645105194E+01 0.68230701381E+01 0.66613883981E+01 0.68230701381E+01
 0.71645105194E+01 0.75372626041E+01 0.81270895268E+01 0.92995182389E+01 0.11398255370E+02
 0.14932568642E+02 0.20431258944E+02 0.34565622314E+02 0.77332715761E+02 0.16423436253E+03
 0.29741057530E+03 0.46205552694E+03 0.62673847907E+03 0.75023014150E+03 0.66579024967E+03
 0.62673847907E+03 0.52201210234E+03 0.38262678052E+03 0.24406358363E+03 0.13343097966E+03
 0.63073783311E+02 0.30003054890E+02 0.19393809068E+02 0.14394043123E+02 0.11223981643E+02
 0.93641844809E+01 0.83272192034E+01 0.77982702705E+01 0.74628497744E+01 0.71645105194E+01
 0.70255813997E+01 0.71645105194E+01 0.74628497744E+01 0.77982702705E+01 0.83272192034E+01
 0.93641844809E+01 0.11223981643E+02 0.14394043123E+02 0.19393809068E+02 0.30003054890E+02
 0.63073783311E+02 0.13343097966E+03 0.24406358363E+03 0.38262678052E+03 0.52201210234E+03
 0.62673847907E+03 0.49173195352E+03 0.46205552694E+03 0.38262678052E+03 0.27751456237E+03
 0.17440496360E+03 0.94290808934E+02 0.45876199402E+02 0.24952427857E+02 0.17926608899E+02
 0.13643192002E+02 0.11001132322E+02 0.94620574830E+01 0.85872810711E+01 0.81117235180E+01
 0.77982702705E+01 0.75372626041E+01 0.74213432795E+01 0.75372626041E+01 0.77982702705E+01
 0.81117235180E+01 0.85872810711E+01 0.94620574830E+01 0.11001132322E+02 0.13643192002E+02
 0.17926608899E+02 0.24952427857E+02 0.45876199402E+02 0.94290808934E+02 0.17440496360E+03
 0.27751456237E+03 0.38262678052E+03 0.46205552694E+03 0.31744915678E+03 0.29741057530E+03
 0.24406358363E+03 0.17440496360E+03 0.10790622633E+03 0.58804038308E+02 0.31672738112E+02
 0.21128871032E+02 0.16230700743E+02 0.12854697058E+02 0.10828464329E+02 0.96557000382E+01
 0.89767887368E+01 0.85872810711E+01 0.83272192034E+01 0.81270895268E+01 0.80429299761E+01
 0.81270895268E+01 0.83272192034E+01 0.85872810711E+01 0.89767887368E+01 0.96557000382E+01
 0.10828464329E+02 0.12854697058E+02 0.16230700743E+02 0.21128871032E+02 0.31672738112E+02
 0.58804038308E+02 0.10790622633E+03 0.17440496360E+03 0.24406358363E+03 0.29741057530E+03
 0.17594084866E+03 0.16423436253E+03 0.13343097966E+03 0.94290808934E+02 0.58804038308E+02
 0.34871605052E+02 0.23307415536E+02 0.18255149092E+02 0.14597306481E+02 0.12201843084E+02
 0.10818682804E+02 0.10057724852E+02 0.96557000382E+01 0.94620574830E+01 0.93641844809E+01
 0.92995182389E+01 0.92725482758E+01 0.92995182389E+01 0.93641844809E+01 0.94620574830E+01
 0.96557000382E+01 0.10057724852E+02 0.10818682804E+02 0.12201843084E+02 0.14597306481E+02
 0.18255149092E+02 0.23307415536E+02 0.34871605052E+02 0.58804038308E+02 0.94290808934E+02
 0.13343097966E+03 0.16423436253E+03 0.82878150148E+02 0.77332715761E+02 0.63073783311E+02
 0.45876199402E+02 0.31672738112E+02 0.23307415536E+02 0.19012169288E+02 0.15680483502E+02
 0.13281657860E+02 0.11830227466E+02 0.11094131816E+02 0.10818682804E+02 0.10828464329E+02
 0.11001132322E+02 0.11223981643E+02 0.11398255370E+02 0.11462699418E+02 0.11398255370E+02
 0.11223981643E+02 0.11001132322E+02 0.10828464329E+02 0.10818682804E+02 0.11094131816E+02
 0.11830227466E+02 0.13281657860E+02 0.15680483502E+02 0.19012169288E+02 0.23307415536E+02
 0.31672738112E+02 0.45876199402E+02 0.63073783311E+02 0.77332715761E+02 0.36416691144E+02
 0.34565622314E+02 0.30003054890E+02 0.24952427857E+02 0.21128871032E+02 0.18255149092E+02
 0.15680483502E+02 0.13700449193E+02 0.12446615360E+02 0.11867070303E+02 0.11830227466E+02
 0.12201843084E+02 0.12854697058E+02 0.13643192002E+02 0.14394043123E+02 0.14932568642E+02
 0.15128176070E+02 0.14932568642E+02 0.14394043123E+02 0.13643192002E+02 0.12854697058E+02
 0.12201843084E+02 0.11830227466E+02 0.11867070303E+02 0.12446615360E+02 0.13700449193E+02
 0.15680483502E+02 0.18255149092E+02 0.21128871032E+02 0.24952427857E+02 0.30003054890E+02
 0.34565622314E+02 0.20830507610E+02 0.20431258944E+02 0.19393809068E+02 0.17926608899E+02
 0.16230700743E+02 0.14597306481E+02 0.13281657860E+02 0.12446615360E+02 0.12162865309E+02
 0.12446615360E+02 0.13281657860E+02 0.14597306481E+02 0.16230700743E+02 0.17926608899E+02
 0.19393809068E+02 0.20431258944E+02 0.20830507610E+02 0.20431258944E+02 0.19393809068E+02
 0.17926608899E+02 0.16230700743E+02 0.14597306481E+02 0.13281657860E+02 0.12446615360E+02
 0.12162865309E+02 0.12446615360E+02 0.13281657860E+02 0.14597306481E+02 0.16230700743E+02
 0.17926608899E+02 0.19393809068E+02 0.20431258944E+02 0.15128176070E+02 0.14932568642E+02
 0.14394043123E+02 0.13643192002E+02 0.12854697058E+02 0.12201843084E+02 0.11830227466E+02
 0.11867070303E+02 0.12446615360E+02 0.13700449193E+02 0.15680483502E+02 0.18255149092E+02
 0.21128871032E+02 0.24952427857E+02 0.30003054890E+02 0.34565622314E+02 0.36416691144E+02
 0.34565622314E+02 0.30003054890E+02 0.24952427857E+02 0.21128871032E+02 0.18255149092E+02
 0.15680483502E+02 0.13700449193E+02 0.12446615360E+02 0.11867070303E+02 0.11830227466E+02
 0.12201843084E+02 0.12854697058E+02 0.13643192002E+02 0.14394043123E+02 0.14932568642E+02
 0.11462699418E+02 0.11398255370E+02 0.11223981643E+02 0.11001132322E+02 0.10828464329E+02
 0.10818682804E+02 0.11094131816E+02 0.11830227466E+02 0.13281657860E+02 0.15680483502E+02
 0.19012169288E+02 0.23307415536E+02 0.31672738112E+02 0.45876199402E+02 0.63073783311E+02
 0.77332715761E+02 0.82878150148E+02 0.77332715761E+02 0.63073783311E+02 0.45876199402E+02
 0.31672738112E+02 0.23307415536E+02 0.19012169288E+02 0.15680483502E+02 0.13281657860E+02
 0.11830227466E+02 0.11094131816E+02 0.10818682804E+02 0.10828464329E+02 0.11001132322E+02
 0.11223981643E+02 0.11398255370E+02 0.92725482758E+01 0.92995182389E+01 0.93641844809E+01
 0.94620574830E+01 0.96557000382E+01 0.10057724852E+02 0.10818682804E+02 0.12201843084E+02
 0.14597306481E+02 0.18255149092E+02 0.23307415536E+02 0.34871605052E+02 0.58804038308E+02
 0.94290808934E+02 0.13343097966E+03 0.16423436253E+03 0.17594084866E+03 0.16423436253E+03
 0.13343097966E+03 0.94290808934E+02 0.58804038308E+02 0.34871605052E+02 0.23307415536E+02
 0.18255149092E+02 0.14597306481E+02 0.12201843084E+02 0.10818682804E+02 0.10057724852E+02
 0.96557000382E+01 0.94620574830E+01 0.93641844809E+01 0.92995182389E+01 0.80429299761E+01
 0.81270895268E+01 0.83272192034E+01 0.85872810711E+01 0.89767887368E+01 0.96557000382E+01
 0.10828464329E+02 0.12854697058E+02 0.16230700743E+02 0.21128871032E+02 0.31672738112E+02
 0.58804038308E+02 0.10790622633E+03 0.17440496360E+03 0.24406358363E+03 0.29741057530E+03
 0.31744915678E+03 0.29741057530E+03 0.24406358363E+03 0.17440496360E+03 0.10790622633E+03
 0.58804038308E+02 0.31672738112E+02 0.21128871032E+02 0.16230700743E+02 0.12854697058E+02
 0.10828464329E+02 0.96557000382E+01 0.89767887368E+01 0.85872810711E+01 0.83272192034E+01
 0.81270895268E+01 0.74213432795E+01 0.75372626041E+01 0.77982702705E+01 0.81117235180E+01
 0.85872810711E+01 0.94620574830E+01 0.11001132322E+02 0.13643192002E+02 0.17926608899E+02
 0.24952427857E+02 0.45876199402E+02 0.94290808934E+02 0.17440496360E+03 0.27751456237E+03
 0.38262678052E+03 0.46205552694E+03 0.49173195352E+03 0.46205552694E+03 0.38262678052E+03
 0.27751456237E+03 0.17440496360E+03 0.94290808934E+02 0.45876199402E+02 0.24952427857E+02
 0.17926608899E+02 0.13643192002E+02 0.11001132322E+02 0.94620574830E+01 0.85872810711E+01
 0.81117235180E+01 0.77982702705E+01 0.75372626041E+01 0.70255813997E+01 0.71645105194E+01
 0.74628497744E+01 0.77982702705E+01 0.83272192034E+01 0.93641844809E+01 0.11223981643E+02
 0.14394043123E+02 0.19393809068E+02 0.30003054890E+02 0.63073783311E+02 0.13343097966E+03
 0.24406358363E+03 0.38262678052E+03 0.52201210234E+03 0.62673847907E+03 0.66579024967E+03
 0.62673847907E+03 0.52201210234E+03 0.38262678052E+03 0.24406358363E+03 0.13343097966E+03
 0.63073783311E+02 0.30003054890E+02 0.19393809068E+02 0.14394043123E+02 0.11223981643E+02
 0.93641844809E+01 0.83272192034E+01 0.77982702705E+01 0.74628497744E+01 0.71645105194E+01
 0.66613883981E+01 0.68230701381E+01 0.71645105194E+01 0.75372626041E+01 0.81270895268E+01
 0.92995182389E+01 0.11398255370E+02 0.14932568642E+02 0.20431258944E+02 0.34565622314E+02
 0.77332715761E+02 0.16423436253E+03 0.29741057530E+03 0.46205552694E+03 0.62673847907E+03
 0.75023014150E+03 0.79625850225E+03 0.75023014150E+03 0.62673847907E+03 0.46205552694E+03
 0.29741057530E+03 0.16423436253E+03 0.77332715761E+02 0.34565622314E+02 0.20431258944E+02
 0.14932568642E+02 0.11398255370E+02 0.92995182389E+01 0.81270895268E+01 0.75372626041E+01
 0.71645105194E+01 0.68230701381E+01 0.64887715548E+01 0.66613883981E+01 0.70255813997E+01
 0.74213432795E+01 0.80429299761E+01 0.92725482758E+01 0.11462699418E+02 0.15128176070E+02
 0.20830507610E+02 0.36416691144E+02 0.82878150148E+02 0.17594084866E+03 0.31744915678E+03
 0.49173195352E+03 0.66579024967E+03 0.79625850225E+03 0.84488554037E+03 0.79625850225E+03
 0.66579024967E+03 0.49173195352E+03 0.31744915678E+03 0.17594084866E+03 0.82878150148E+02
 0.36416691144E+02 0.20830507610E+02 0.15128176070E+02 0.11462699418E+02 0.92725482758E+01
 0.80429299761E+01 0.74213432795E+01 0.70255813997E+01 0.66613883981E+01 0.66613883981E+01
 0.68230701381E+01 0.71645105194E+01 0.75372626041E+01 0.81270895268E+01 0.92995182389E+01
 0.11398255370E+02 0.14932568642E+02 0.20431258944E+02 0.34565622314E+02 0.77332715761E+02
 0.16423436253E+03 0.29741057530E+03 0.46205552694E+03 0.62673847907E+03 0.75023014150E+03
 0.79625850225E+03 0.75023014150E+03 0.62673847907E+03 0.46205552694E+03 0.29741057530E+03
 0.16423436253E+03 0.77332715761E+02 0.34565622314E+02 0.20431258944E+02 0.14932568642E+02
 0.11398255370E+02 0.92995182389E+01 0.81270895268E+01 0.75372626041E+01 0.71645105194E+01
 0.68230701381E+01 0.70255813997E+01 0.71645105194E+01 0.74628497744E+01 0.77982702705E+01
 0.83272192034E+01 0.93641844809E+01 0.11223981643E+02 0.14394043123E+02 0.19393809068E+02
 0.30003054890E+02 0.63073783311E+02 0.13343097966E+03 0.24406358363E+03 0.38262678052E+03
 0.52201210234E+03 0.62673847907E+03 0.66579024967E+03 0.62673847907E+03 0.52201210234E+03
 0.38262678052E+03 0.24406358363E+03 0.13343097966E+03 0.63073783311E+02 0.30003054890E+02
 0.19393809068E+02 0.14394043123E+02 0.11223981643E+02 0.93641844809E+01 0.83272192034E+01
 0.77982702705E+01 0.74628497744E+01 0.71645105194E+01 0.74213432795E+01 0.75372626041E+01
 0.77982702705E+01 0.81117235180E+01 0.85872810711E+01 0.94620574830E+01 0.11001132322E+02
 0.13643192002E+02 0.17926608899E+02 0.24952427857E+02 0.45876199402E+02 0.94290808934E+02
 0.17440496360E+03 0.27751456237E+03 0.38262678052E+03 0.46205552694E+03 0.49173195352E+03
 0.46205552694E+03 0.38262678052E+03 0.27751456237E+03 0.17440496360E+03 0.94290808934E+02
 0.45876199402E+02 0.24952427857E+02 0.17926608899E+02 0.13643192002E+02 0.11001132322E+02
 0.94620574830E+01 0.85872810711E+01 0.81117235180E+01 0.77982702705E+01 0.75372626041E+01
 0.80429299761E+01 0.81270895268E+01 0.83272192034E+01 0.85872810711E+01 0.89767887368E+01
 0.96557000382E+01 0.10828464329E+02 0.12854697058E+02 0.16230700743E+02 0.21128871032E+02
 0.31672738112E+02 0.58804038308E+02 0.10790622633E+03 0.17440496360E+03 0.24406358363E+03
 0.29741057530E+03 0.31744915678E+03 0.29741057530E+03 0.24406358363E+03 0.17440496360E+03
 0.10790622633E+03 0.58804038308E+02 0.31672738112E+02 0.21128871032E+02 0.16230700743E+02
 0.12854697058E+02 0.10828464329E+02 0.96557000382E+01 0.89767887368E+01 0.85872810711E+01
 0.83272192034E+01 0.81270895268E+01 0.92725482758E+01 0.92995182389E+01 0.93641844809E+01
 0.94620574830E+01 0.96557000382E+01 0.10057724852E+02 0.10818682804E+02 0.12201843084E+02
 0.14597306481E+02 0.18255149092E+02 0.23307415536E+02 0.34871605052E+02 0.58804038308E+02
 0.94290808934E+02 0.13343097966E+03 0.16423436253E+03 0.17594084866E+03 0.16423436253E+03
 0.13343097966E+03 0.94290808934E+02 0.58804038308E+02 0.34871605052E+02 0.23307415536E+02
 0.18255149092E+02 0.14597306481E+02 0.12201843084E+02 0.10818682804E+02 0.10057724852E+02
 0.96557000382E+01 0.94620574830E+01 0.93641844809E+01 0.92995182389E+01 0.11462699418E+02
 0.11398255370E+02 0.11223981643E+02 0.11001132322E+02 0.10828464329E+02 0.10818682804E+02
 0.11094131816E+02 0.11830227466E+02 0.13281657860E+02 0.15680483502E+02 0.19012169288E+02
 0.23307415536E+02 0.31672738112E+02 0.45876199402E+02 0.63073783311E+02 0.77332715761E+02
 0.82878150148E+02 0.77332715761E+02 0.63073783311E+02 0.45876199402E+02 0.31672738112E+02
 0.23307415536E+02 0.19012169288E+02 0.15680483502E+02 0.13281657860E+02 0.11830227466E+02
 0.11094131816E+02 0.10818682804E+02 0.10828464329E+02 0.11001132322E+02 0.11223981643E+02
 0.11398255370E+02 0.15128176070E+02 0.14932568642E+02 0.14394043123E+02 0.13643192002E+02
 0.12854697058E+02 0.12201843084E+02 0.11830227466E+02 0.11867070303E+02 0.12446615360E+02
 0.13700449193E+02 0.15680483502E+02 0.18255149092E+02 0.21128871032E+02 0.24952427857E+02
 0.30003054890E+02 0.34565622314E+02 0.36416691144E+02 0.34565622314E+02 0.30003054890E+02
 0.24952427857E+02 0.21128871032E+02 0.18255149092E+02 0.15680483502E+02 0.13700449193E+02
 0.12446615360E+02 0.11867070303E+02 0.11830227466E+02 0.12201843084E+02 0.12854697058E+02
 0.13643192002E+02 0.14394043123E+02 0.14932568642E+02 0.20830507610E+02 0.20431258944E+02
 0.19393809068E+02 0.17926608899E+02 0.16230700743E+02 0.14597306481E+02 0.13281657860E+02
 0.12446615360E+02 0.12162865309E+02 0.12446615360E+02 0.13281657860E+02 0.14597306481E+02
 0.16230700743E+02 0.17926608899E+02 0.19393809068E+02 0.20431258944E+02 0.20830507610E+02
 0.20431258944E+02 0.19393809068E+02 0.17926608899E+02 0.16230700743E+02 0.14597306481E+02
 0.13281657860E+02 0.12446615360E+02 0.12162865309E+02 0.12446615360E+02 0.13281657860E+02
 0.14597306481E+02 0.16230700743E+02 0.17926608899E+02 0.19393809068E+02 0.20431258944E+02
 0.36416691144E+02 0.34565622314E+02 0.30003054890E+02 0.24952427857E+02 0.21128871032E+02
 0.18255149092E+02 0.15680483502E+02 0.13700449193E+02 0.12446615360E+02 0.11867070303E+02
 0.11830227466E+02 0.12201843084E+02 0.12854697058E+02 0.13643192002E+02 0.14394043123E+02
 0.14932568642E+02 0.15128176070E+02 0.14932568642E+02 0.14394043123E+02 0.13643192002E+02
 0.12854697058E+02 0.12201843084E+02 0.11830227466E+02 0.11867070303E+02 0.12446615360E+02
 0.13700449193E+02 0.15680483502E+02 0.18255149092E+02 0.21128871032E+02 0.24952427857E+02
 0.30003054890E+02 0.34565622314E+02 0.82878150148E+02 0.77332715761E+02 0.63073783311E+02
 0.45876199402E+02 0.31672738112E+02 0.23307415536E+02 0.19012169288E+02 0.15680483502E+02
 0.13281657860E+02 0.11830227466E+02 0.11094131816E+02 0.10818682804E+02 0.10828464329E+02
 0.11001132322E+02 0.11223981643E+02 0.11398255370E+02 0.11462699418E+02 0.11398255370E+02
 0.11223981643E+02 0.11001132322E+02 0.10828464329E+02 0.10818682804E+02 0.11094131816E+02
 0.11830227466E+02 0.13281657860E+02 0.15680483502E+02 0.19012169288E+02 0.23307415536E+02
 0.31672738112E+02 0.45876199402E+02 0.63073783311E+02 0.77332715761E+02 0.17594084866E+03
 0.16423436253E+03 0.13343097966E+03 0.94290808934E+02 0.58804038308E+02 0.34871605052E+02
 0.23307415536E+02 0.18255149092E+02 0.14597306481E+02 0.12201843084E+02 0.10818682804E+02
 0.10057724852E+02 0.96557000382E+01 0.94620574830E+01 0.93641844809E+01 0.92995182389E+01
 0.92725482758E+01 0.92995182389E+01 0.93641844809E+01 0.94620574830E+01 0.96557000382E+01
 0.10057724852E+02 0.10818682804E+02 0.12201843084E+02 0.14597306481E+02 0.18255149092E+02
 0.23307415536E+02 0.34871605052E+02 0.58804038308E+02 0.94290808934E+02 0.13343097966E+03
 0.16423436253E+03 0.31744915678E+03 0.29741057530E+03 0.24406358363E+03 0.17440496360E+03
 0.10790622633E+03 0.58804038308E+02 0.31672738112E+02 0.21128871032E+02 0.16230700743E+02
 0.12854697058E+02 0.10828464329E+02 0.96557000382E+01 0.89767887368E+01 0.85872810711E+01
 0.83272192034E+01 0.81270895268E+01 0.80429299761E+01 0.81270895268E+01 0.83272192034E+01
 0.85872810711E+01 0.89767887368E+01 0.96557000382E+01 0.10828464329E+02 0.12854697058E+02
 0.16230700743E+02 0.21128871032E+02 0.31672738112E+02 0.58804038308E+02 0.10790622633E+03
 0.17440496360E+03 0.24406358363E+03 0.29741057530E+03 0.49173195352E+03 0.46205552694E+03
 0.38262678052E+03 0.27751456237E+03 0.17440496360E+03 0.94290808934E+02 0.45876199402E+02
 0.24952427857E+02 0.17926608899E+02 0.13643192002E+02 0.11001132322E+02 0.94620574830E+01
 0.85872810711E+01 0.81117235180E+01 0.77982702705E+01 0.75372626041E+01 0.74213432795E+01
 0.75372626041E+01 0.77982702705E+01 0.81117235180E+01 0.85872810711E+01 0.94620574830E+01
 0.11001132322E+02 0.13643192002E+02 0.17926608899E+02 0.24952427857E+02 0.45876199402E+02
 0.94290808934E+02 0.17440496360E+03 0.27751456237E+03 0.38262678052E+03 0.46205552694E+03
 0.66579024967E+03 0.62673847907E+03 0.52201210234E+03 0.38262678052E+03 0.24406358363E+03
 0.13343097966E+03 0.63073783311E+02 0.30003054890E+02 0.19393809068E+02 0.14394043123E+02
 0.11223981643E+02 0.93641844809E+01 0.83272192034E+01 0.77982702705E+01 0.74628497744E+01
 0.71645105194E+01 0.70255813997E+01 0.71645105194E+01 0.74628497744E+01 0.77982702705E+01
 0.83272192034E+01 0.93641844809E+01 0.11223981643E+02 0.14394043123E+02 0.19393809068E+02
 0.30003054890E+02 0.63073783311E+02 0.13343097966E+03 0.24406358363E+03 0.38262678052E+03
 0.52201210234E+03 0.62673847907E+03 0.79625850225E+03 0.75023014150E+03 0.62673847907E+03
 0.46205552694E+03 0.29741057530E+03 0.16423436253E+03 0.77332715761E+02 0.34565622314E+02
 0.20431258944E+02 0.14932568642E+02 0.11398255370E+02 0.92995182389E+01 0.81270895268E+01
 0.75372626041E+01 0.71645105194E+01 0.68230701381E+01 0.66613883981E+01 0.68230701381E+01
 0.71645105194E+01 0.75372626041E+01 0.81270895268E+01 0.92995182389E+01 0.11398255370E+02
 0.14932568642E+02 0.20431258944E+02 0.34565622314E+02 0.77332715761E+02 0.16423436253E+03
 0.29741057530E+03 0.46205552694E+03 0.62673847907E+03 0.75023014150E+03 0.79625850225E+03
 0.75023014150E+03 0.62673847907E+03 0.46205552694E+03 0.29741057530E+03 0.16423436253E+03
 0.77332715761E+02 0.34565622314E+02 0.20431258944E+02 0.14932568642E+02 0.11398255370E+02
 0.92995182389E+01 0.81270895268E+01 0.75372626041E+01 0.71645105194E+01 0.68230701381E+01
 0.66613883981E+01 0.68230701381E+01 0.71645105194E+01 0.75372626041E+01 0.81270895268E+01
 0.92995182389E+01 0.11398255370E+02 0.14932568642E+02 0.20431258944E+02 0.34565622314E+02
 0.77332715761E+02 0.16423436253E+03 0.29741057530E+03 0.46205552694E+03 0.62673847907E+03
 0.75023014150E+03 0.75023014150E+03 0.70666364950E+03 0.58978709973E+03 0.43400656900E+03
 0.27852447267E+03 0.15326643985E+03 0.72195876503E+02 0.32885006223E+02 0.20058705602E+02
 0.14741544122E+02 0.11334775823E+02 0.93237869768E+01 0.82057622496E+01 0.76458447148E+01
 0.72945992843E+01 0.69744800426E+01 0.68230701381E+01 0.69744800426E+01 0.72945992844E+01
 0.76458447148E+01 0.82057622496E+01 0.93237869768E+01 0.11334775823E+02 0.14741544122E+02
 0.20058705602E+02 0.32885006223E+02 0.72195876503E+02 0.15326643985E+03 0.27852447267E+03
 0.43400656900E+03 0.58978709973E+03 0.70666364950E+03 0.62673847907E+03 0.58978709973E+03
 0.49071760520E+03 0.35897257382E+03 0.22829201555E+03 0.12445028524E+03 0.59019996383E+02
 0.28754908156E+02 0.19067623596E+02 0.14216671077E+02 0.11163984238E+02 0.93826322310E+01
 0.83936983906E+01 0.78910851318E+01 0.75744905263E+01 0.72945992844E+01 0.71645105194E+01
 0.72945992844E+01 0.75744905263E+01 0.78910851318E+01 0.83936983906E+01 0.93826322310E+01
 0.11163984238E+02 0.14216671077E+02 0.19067623596E+02 0.28754908156E+02 0.59019996383E+02
 0.12445028524E+03 0.22829201555E+03 0.35897257382E+03 0.49071760520E+03 0.58978709973E+03
 0.46205552694E+03 0.43400656900E+03 0.35897257382E+03 0.25981566475E+03 0.16284768974E+03
 0.87964047117E+02 0.43215611596E+02 0.24200626881E+02 0.17631365146E+02 0.13487225584E+02
 0.10947006055E+02 0.94741030423E+01 0.86400060361E+01 0.81876560895E+01 0.78910851318E+01
 0.76458447148E+01 0.75372626041E+01 0.76458447148E+01 0.78910851318E+01 0.81876560895E+01
 0.86400060361E+01 0.94741030423E+01 0.10947006055E+02 0.13487225584E+02 0.17631365146E+02
 0.24200626881E+02 0.43215611596E+02 0.87964047117E+02 0.16284768974E+03 0.25981566475E+03
 0.35897257382E+03 0.43400656900E+03 0.29741057530E+03 0.27852447267E+03 0.22829201555E+03
 0.16284768974E+03 0.10065052463E+03 0.55101518545E+02 0.30282680496E+02 0.20713730765E+02
 0.15979310226E+02 0.12723873972E+02 0.10779361555E+02 0.96581103553E+01 0.90108285487E+01
 0.86400060361E+01 0.83936983906E+01 0.82057622496E+01 0.81270895268E+01 0.82057622496E+01
 0.83936983906E+01 0.86400060361E+01 0.90108285487E+01 0.96581103553E+01 0.10779361555E+02
 0.12723873972E+02 0.15979310226E+02 0.20713730765E+02 0.30282680496E+02 0.55101518545E+02
 0.10065052463E+03 0.16284768974E+03 0.22829201555E+03 0.27852447267E+03 0.16423436253E+03
 0.15326643985E+03 0.12445028524E+03 0.87964047117E+02 0.55101518545E+02 0.33187404109E+02
 0.22725402672E+02 0.17933394402E+02 0.14396331787E+02 0.12093574840E+02 0.10768418534E+02
 0.10041357797E+02 0.96581103553E+01 0.94741030423E+01 0.93826322310E+01 0.93237869768E+01
 0.92995182389E+01 0.93237869768E+01 0.93826322310E+01 0.94741030423E+01 0.96581103553E+01
 0.10041357797E+02 0.10768418534E+02 0.12093574840E+02 0.14396331787E+02 0.17933394402E+02
 0.22725402672E+02 0.33187404109E+02 0.55101518545E+02 0.87964047117E+02 0.12445028524E+03
 0.15326643985E+03 0.77332715761E+02 0.72195876503E+02 0.59019996383E+02 0.43215611596E+02
 0.30282680496E+02 0.22725402672E+02 0.18665244753E+02 0.15436145706E+02 0.13126838795E+02
 0.11735046992E+02 0.11030886818E+02 0.10768418534E+02 0.10779361555E+02 0.10947006055E+02
 0.11163984238E+02 0.11334775823E+02 0.11398255370E+02 0.11334775823E+02 0.11163984238E+02
 0.10947006055E+02 0.10779361555E+02 0.10768418534E+02 0.11030886818E+02 0.11735046992E+02
 0.13126838795E+02 0.15436145706E+02 0.18665244753E+02 0.22725402672E+02 0.30282680496E+02
 0.43215611596E+02 0.59019996383E+02 0.72195876503E+02 0.34565622314E+02 0.32885006223E+02
 0.28754908156E+02 0.24200626881E+02 0.20713730765E+02 0.17933394402E+02 0.15436145706E+02
 0.13527293358E+02 0.12323635216E+02 0.11768986366E+02 0.11735046992E+02 0.12093574840E+02
 0.12723873972E+02 0.13487225584E+02 0.14216671077E+02 0.14741544122E+02 0.14932568642E+02
 0.14741544122E+02 0.14216671077E+02 0.13487225584E+02 0.12723873972E+02 0.12093574840E+02
 0.11735046992E+02 0.11768986366E+02 0.12323635216E+02 0.13527293358E+02 0.15436145706E+02
 0.17933394402E+02 0.20713730765E+02 0.24200626881E+02 0.28754908156E+02 0.32885006223E+02
 0.20431258944E+02 0.20058705602E+02 0.19067623596E+02 0.17631365146E+02 0.15979310226E+02
 0.14396331787E+02 0.13126838795E+02 0.12323635216E+02 0.12051160352E+02 0.12323635216E+02
 0.13126838795E+02 0.14396331787E+02 0.15979310226E+02 0.17631365146E+02 0.19067623596E+02
 0.20058705602E+02 0.20431258944E+02 0.20058705602E+02 0.19067623596E+02 0.17631365146E+02
 0.15979310226E+02 0.14396331787E+02 0.13126838795E+02 0.12323635216E+02 0.12051160352E+02
 0.12323635216E+02 0.13126838795E+02 0.14396331787E+02 0.15979310226E+02 0.17631365146E+02
 0.19067623596E+02 0.20058705602E+02 0.14932568642E+02 0.14741544122E+02 0.14216671077E+02
 0.13487225584E+02 0.12723873972E+02 0.12093574840E+02 0.11735046992E+02 0.11768986366E+02
 0.12323635216E+02 0.13527293358E+02 0.15436145706E+02 0.17933394402E+02 0.20713730765E+02
 0.24200626881E+02 0.28754908156E+02 0.32885006223E+02 0.34565622314E+02 0.32885006223E+02
 0.28754908156E+02 0.24200626881E+02 0.20713730765E+02 0.17933394402E+02 0.15436145706E+02
 0.13527293358E+02 0.12323635216E+02 0.11768986366E+02 0.11735046992E+02 0.12093574840E+02
 0.12723873972E+02 0.13487225584E+02 0.14216671077E+02 0.14741544122E+02 0.11398255370E+02
 0.11334775823E+02 0.11163984238E+02 0.10947006055E+02 0.10779361555E+02 0.10768418534E+02
 0.11030886818E+02 0.11735046992E+02 0.13126838795E+02 0.15436145706E+02 0.18665244753E+02
 0.22725402672E+02 0.30282680496E+02 0.43215611596E+02 0.59019996383E+02 0.72195876503E+02
 0.77332715761E+02 0.72195876503E+02 0.59019996383E+02 0.43215611596E+02 0.30282680496E+02
 0.22725402672E+02 0.18665244753E+02 0.15436145706E+02 0.13126838795E+02 0.11735046992E+02
 0.11030886818E+02 0.10768418534E+02 0.10779361555E+02 0.10947006055E+02 0.11163984238E+02
 0.11334775823E+02 0.92995182389E+01 0.93237869768E+01 0.93826322310E+01 0.94741030423E+01
 0.96581103553E+01 0.10041357797E+02 0.10768418534E+02 0.12093574840E+02 0.14396331787E+02
 0.17933394402E+02 0.22725402672E+02 0.33187404109E+02 0.55101518545E+02 0.87964047117E+02
 0.12445028524E+03 0.15326643985E+03 0.16423436253E+03 0.15326643985E+03 0.12445028524E+03
 0.87964047117E+02 0.55101518545E+02 0.33187404109E+02 0.22725402672E+02 0.17933394402E+02
 0.14396331787E+02 0.12093574840E+02 0.10768418534E+02 0.10041357797E+02 0.96581103553E+01
 0.94741030423E+01 0.93826322310E+01 0.93237869768E+01 0.81270895268E+01 0.82057622496E+01
 0.83936983906E+01 0.86400060361E+01 0.90108285487E+01 0.96581103553E+01 0.10779361555E+02
 0.12723873972E+02 0.15979310226E+02 0.20713730765E+02 0.30282680496E+02 0.55101518545E+02
 0.10065052463E+03 0.16284768974E+03 0.22829201555E+03 0.27852447267E+03 0.29741057530E+03
 0.27852447267E+03 0.22829201555E+03 0.16284768974E+03 0.10065052463E+03 0.55101518545E+02
 0.30282680496E+02 0.20713730765E+02 0.15979310226E+02 0.12723873972E+02 0.10779361555E+02
 0.96581103553E+01 0.90108285487E+01 0.86400060361E+01 0.83936983906E+01 0.82057622496E+01
 0.75372626041E+01 0.76458447148E+01 0.78910851318E+01 0.81876560895E+01 0.86400060361E+01
 0.94741030423E+01 0.10947006055E+02 0.13487225584E+02 0.17631365146E+02 0.24200626881E+02
 0.43215611596E+02 0.87964047117E+02 0.16284768974E+03 0.25981566475E+03 0.35897257382E+03
 0.43400656900E+03 0.46205552694E+03 0.43400656900E+03 0.35897257382E+03 0.25981566475E+03
 0.16284768974E+03 0.87964047117E+02 0.43215611596E+02 0.24200626881E+02 0.17631365146E+02
 0.13487225584E+02 0.10947006055E+02 0.94741030423E+01 0.86400060361E+01 0.81876560895E+01
 0.78910851318E+01 0.76458447148E+01 0.71645105194E+01 0.72945992844E+01 0.75744905263E+01
 0.78910851318E+01 0.83936983906E+01 0.93826322310E+01 0.11163984238E+02 0.14216671077E+02
 0.19067623596E+02 0.28754908156E+02 0.59019996383E+02 0.12445028524E+03 0.22829201555E+03
 0.35897257382E+03 0.49071760520E+03 0.58978709973E+03 0.62673847907E+03 0.58978709973E+03
 0.49071760520E+03 0.35897257382E+03 0.22829201555E+03 0.12445028524E+03 0.59019996383E+02
 0.28754908156E+02 0.19067623596E+02 0.14216671077E+02 0.11163984238E+02 0.93826322310E+01
 0.83936983906E+01 0.78910851318E+01 0.75744905263E+01 0.72945992844E+01 0.68230701381E+01
 0.69744800426E+01 0.72945992844E+01 0.76458447148E+01 0.82057622496E+01 0.93237869768E+01
 0.11334775823E+02 0.14741544122E+02 0.20058705602E+02 0.32885006223E+02 0.72195876503E+02
 0.15326643985E+03 0.27852447267E+03 0.43400656900E+03 0.58978709973E+03 0.70666364950E+03
 0.75023014150E+03 0.70666364950E+03 0.58978709973E+03 0.43400656900E+03 0.27852447267E+03
 0.15326643985E+03 0.72195876503E+02 0.32885006223E+02 0.20058705602E+02 0.14741544122E+02
 0.11334775823E+02 0.93237869768E+01 0.82057622496E+01 0.76458447148E+01 0.72945992844E+01
 0.69744800426E+01 0.66613883981E+01 0.68230701381E+01 0.71645105194E+01 0.75372626041E+01
 0.81270895268E+01 0.92995182389E+01 0.11398255370E+02 0.14932568642E+02 0.20431258944E+02
 0.34565622314E+02 0.77332715761E+02 0.16423436253E+03 0.29741057530E+03 0.46205552694E+03
 0.62673847907E+03 0.75023014150E+03 0.79625850225E+03 0.75023014150E+03 0.62673847907E+03
 0.46205552694E+03 0.29741057530E+03 0.16423436253E+03 0.77332715761E+02 0.34565622314E+02
 0.20431258944E+02 0.14932568642E+02 0.11398255370E+02 0.92995182389E+01 0.81270895268E+01
 0.75372626041E+01 0.71645105194E+01 0.68230701381E+01 0.68230701381E+01 0.69744800426E+01
 0.72945992844E+01 0.76458447148E+01 0.82057622496E+01 0.93237869768E+01 0.11334775823E+02
 0.14741544122E+02 0.20058705602E+02 0.32885006223E+02 0.72195876503E+02 0.15326643985E+03
 0.27852447267E+03 0.43400656900E+03 0.58978709973E+03 0.70666364950E+03 0.75023014150E+03
 0.70666364950E+03 0.58978709973E+03 0.43400656900E+03 0.27852447267E+03 0.15326643985E+03
 0.72195876503E+02 0.32885006223E+02 0.20058705602E+02 0.14741544122E+02 0.11334775823E+02
 0.93237869768E+01 0.82057622496E+01 0.76458447148E+01 0.72945992843E+01 0.69744800426E+01
 0.71645105194E+01 0.72945992844E+01 0.75744905263E+01 0.78910851318E+01 0.83936983906E+01
 0.93826322310E+01 0.11163984238E+02 0.14216671077E+02 0.19067623596E+02 0.28754908156E+02
 0.59019996383E+02 0.12445028524E+03 0.22829201555E+03 0.35897257382E+03 0.49071760520E+03
 0.58978709973E+03 0.62673847907E+03 0.58978709973E+03 0.49071760520E+03 0.35897257382E+03
 0.22829201555E+03 0.12445028524E+03 0.59019996383E+02 0.28754908156E+02 0.19067623596E+02