   4   4   0   0
  0.1200752E+02  0.3635000E-09  0.3635000E-09  0.3635000E-09  0.5000000E-15
  1.000000000000000E-004
  CAR 
 unknown system                          
     27.68462793     -3.84116999  301      7.23767244      1.00000000
     -3.841  0.0000E+00  0.0000E+00
     -3.736  0.0000E+00  0.0000E+00
     -3.631  0.0000E+00  0.0000E+00
     -3.526 -0.5513E-31 -0.5794E-32
     -3.421 -0.2741E-27 -0.2881E-28
     -3.316 -0.7810E-24 -0.8211E-25
     -3.211 -0.1275E-20 -0.1340E-21
     -3.106 -0.1190E-17 -0.1252E-18
     -3.000 -0.6184E-15 -0.6511E-16
     -2.895 -0.1866E-12 -0.1968E-13
     -2.790 -0.3209E-10 -0.3392E-11
     -2.685 -0.3121E-08 -0.3314E-09
     -2.580 -0.1705E-06 -0.1825E-07
     -2.475 -0.5171E-05 -0.5617E-06
     -2.370 -0.8513E-04 -0.9507E-05
     -2.265 -0.7241E-03 -0.8560E-04
     -2.160 -0.2746E-02 -0.3742E-03
     -2.055 -0.1135E-02 -0.4934E-03
     -1.950  0.2095E-01  0.1708E-02
     -1.845  0.5608E-01  0.7601E-02
     -1.739  0.5016E-01  0.1287E-01
     -1.634  0.3525E-02  0.1324E-01
     -1.529  0.3357E-01  0.1677E-01
     -1.424  0.2290E+00  0.4084E-01
     -1.319  0.3801E+00  0.8078E-01
     -1.214  0.2312E+00  0.1051E+00
     -1.109  0.4452E-01  0.1098E+00
     -1.004  0.2516E+00  0.1362E+00
     -0.899  0.6894E+00  0.2086E+00
     -0.794  0.6778E+00  0.2799E+00
     -0.689  0.2418E+00  0.3053E+00
     -0.584  0.1031E+00  0.3161E+00
     -0.478  0.3748E+00  0.3555E+00
     -0.373  0.4866E+00  0.4066E+00
     -0.268  0.2289E+00  0.4307E+00
     -0.163  0.6414E-01  0.4374E+00
     -0.058  0.2235E+00  0.4609E+00
      0.047  0.3405E+00  0.4967E+00
      0.152  0.1631E+00  0.5138E+00
      0.257  0.2260E+00  0.5376E+00
      0.362  0.9867E+00  0.6413E+00
      0.467  0.1490E+01  0.7978E+00
      0.572  0.9377E+00  0.8964E+00
      0.678  0.6446E+00  0.9641E+00
      0.783  0.1288E+01  0.1099E+01
      0.888  0.1396E+01  0.1246E+01
      0.993  0.5739E+00  0.1306E+01
      1.098 -0.1226E-01  0.1305E+01
      1.203 -0.9696E-01  0.1295E+01
      1.308 -0.7015E-01  0.1288E+01
      1.413  0.7149E-01  0.1295E+01
      1.518  0.5123E+00  0.1349E+01
      1.623  0.1221E+01  0.1477E+01
      1.728  0.1930E+01  0.1680E+01
      1.833  0.1814E+01  0.1871E+01
      1.939  0.9913E+00  0.1975E+01
      2.044  0.1123E+01  0.2093E+01
      2.149  0.2010E+01  0.2304E+01
      2.254  0.2194E+01  0.2535E+01
      2.359  0.1775E+01  0.2721E+01
      2.464  0.1497E+01  0.2879E+01
      2.569  0.2219E+01  0.3112E+01
      2.674  0.4187E+01  0.3552E+01
      2.779  0.6267E+01  0.4210E+01
      2.884  0.6732E+01  0.4918E+01
      2.989  0.5600E+01  0.5506E+01
      3.095  0.4509E+01  0.5980E+01
      3.200  0.5793E+01  0.6589E+01
      3.305  0.9473E+01  0.7584E+01
      3.410  0.1063E+02  0.8702E+01
      3.515  0.9079E+01  0.9656E+01
      3.620  0.9251E+01  0.1063E+02
      3.725  0.9133E+01  0.1159E+02
      3.830  0.7247E+01  0.1235E+02
      3.935  0.7840E+01  0.1317E+02
      4.040  0.1097E+02  0.1433E+02
      4.145  0.1342E+02  0.1574E+02
      4.250  0.1561E+02  0.1738E+02
      4.356  0.1691E+02  0.1915E+02
      4.461  0.1645E+02  0.2088E+02
      4.566  0.1498E+02  0.2246E+02
      4.671  0.1259E+02  0.2378E+02
      4.776  0.1132E+02  0.2497E+02
      4.881  0.1255E+02  0.2629E+02
      4.986  0.1423E+02  0.2778E+02
      5.091  0.1400E+02  0.2925E+02
      5.196  0.1464E+02  0.3079E+02
      5.301  0.1664E+02  0.3254E+02
      5.406  0.1437E+02  0.3405E+02
      5.511  0.1159E+02  0.3527E+02
      5.617  0.1516E+02  0.3686E+02
      5.722  0.1962E+02  0.3892E+02
      5.827  0.1671E+02  0.4068E+02
      5.932  0.9460E+01  0.4167E+02
      6.037  0.4790E+01  0.4218E+02
      6.142  0.2994E+01  0.4249E+02
      6.247  0.2100E+01  0.4271E+02
      6.352  0.1243E+01  0.4284E+02
      6.457  0.3410E+00  0.4288E+02
      6.562 -0.8998E-01  0.4287E+02
      6.667 -0.4857E-01  0.4286E+02
      6.773  0.1254E+00  0.4288E+02
      6.878  0.1345E+00  0.4289E+02
      6.983  0.4267E+00  0.4294E+02
      7.088  0.2480E+01  0.4320E+02
      7.193  0.5237E+01  0.4375E+02
      7.298  0.5025E+01  0.4428E+02
      7.403  0.2198E+01  0.4451E+02
      7.508  0.1440E+00  0.4452E+02
      7.613 -0.2692E+00  0.4449E+02
      7.718  0.2494E+00  0.4452E+02
      7.823  0.1210E+01  0.4465E+02
      7.928  0.1517E+01  0.4481E+02
      8.034  0.7404E+00  0.4488E+02
      8.139 -0.7202E-03  0.4488E+02
      8.244 -0.1403E+00  0.4487E+02
      8.349  0.2958E+00  0.4490E+02
      8.454  0.1167E+01  0.4502E+02
      8.559  0.1410E+01  0.4517E+02
      8.664  0.8730E+00  0.4526E+02
      8.769  0.1224E+01  0.4539E+02
      8.874  0.2258E+01  0.4563E+02
      8.979  0.1964E+01  0.4584E+02
      9.084  0.6539E+00  0.4590E+02
      9.189 -0.9098E-01  0.4589E+02
      9.295 -0.1684E+00  0.4588E+02
      9.400  0.1721E+00  0.4590E+02
      9.505  0.9557E+00  0.4600E+02
      9.610  0.1420E+01  0.4614E+02
      9.715  0.1589E+01  0.4631E+02
      9.820  0.2719E+01  0.4660E+02
      9.925  0.3475E+01  0.4696E+02
     10.030  0.2215E+01  0.4720E+02
     10.135  0.5539E+00  0.4725E+02
     10.240 -0.8515E-01  0.4724E+02
     10.345 -0.9542E-01  0.4723E+02
     10.451 -0.4159E-01  0.4723E+02
     10.556 -0.4317E-01  0.4723E+02
     10.661  0.4567E-01  0.4723E+02
     10.766  0.4212E+00  0.4727E+02
     10.871  0.7729E+00  0.4736E+02
     10.976  0.5695E+00  0.4742E+02
     11.081  0.1112E+00  0.4743E+02
     11.186 -0.1118E+00  0.4742E+02
     11.291  0.1580E-02  0.4742E+02
     11.396  0.6529E+00  0.4748E+02
     11.501  0.1414E+01  0.4763E+02
     11.606  0.1462E+01  0.4779E+02
     11.712  0.1454E+01  0.4794E+02
     11.817  0.1911E+01  0.4814E+02
     11.922  0.2088E+01  0.4836E+02
     12.027  0.1612E+01  0.4853E+02
     12.132  0.9434E+00  0.4863E+02
     12.237  0.6029E+00  0.4869E+02
     12.342  0.8001E+00  0.4878E+02
     12.447  0.2064E+01  0.4899E+02
     12.552  0.3022E+01  0.4931E+02
     12.657  0.1942E+01  0.4951E+02
     12.762  0.8403E+00  0.4960E+02
     12.868  0.1209E+01  0.4973E+02
     12.973  0.1319E+01  0.4987E+02
     13.078  0.5940E+00  0.4993E+02
     13.183  0.2911E+00  0.4996E+02
     13.288  0.4496E+00  0.5001E+02
     13.393  0.3353E+00  0.5004E+02
     13.498  0.2730E-01  0.5005E+02
     13.603 -0.1725E+00  0.5003E+02
     13.708  0.1806E-01  0.5003E+02
     13.813  0.1304E+01  0.5017E+02
     13.918  0.2951E+01  0.5048E+02
     14.023  0.2611E+01  0.5075E+02
     14.129  0.8094E+00  0.5084E+02
     14.234 -0.1400E+00  0.5082E+02
     14.339 -0.1589E-02  0.5082E+02
     14.444  0.7677E+00  0.5090E+02
     14.549  0.1790E+01  0.5109E+02
     14.654  0.1987E+01  0.5130E+02
     14.759  0.1118E+01  0.5142E+02
     14.864  0.6472E+00  0.5149E+02
     14.969  0.1173E+01  0.5161E+02
     15.074  0.1517E+01  0.5177E+02
     15.179  0.1572E+01  0.5193E+02
     15.284  0.1904E+01  0.5213E+02
     15.390  0.2002E+01  0.5234E+02
     15.495  0.2439E+01  0.5260E+02
     15.600  0.3086E+01  0.5292E+02
     15.705  0.2102E+01  0.5315E+02
     15.810  0.3945E+00  0.5319E+02
     15.915 -0.1810E+00  0.5317E+02
     16.020  0.3944E+00  0.5321E+02
     16.125  0.1336E+01  0.5335E+02
     16.230  0.1381E+01  0.5349E+02
     16.335  0.5636E+00  0.5355E+02
     16.440  0.3460E+00  0.5359E+02
     16.546  0.9289E+00  0.5369E+02
     16.651  0.1357E+01  0.5383E+02
     16.756  0.1507E+01  0.5399E+02
     16.861  0.1766E+01  0.5417E+02
     16.966  0.2008E+01  0.5439E+02
     17.071  0.2278E+01  0.5462E+02
     17.176  0.2341E+01  0.5487E+02
     17.281  0.1703E+01  0.5505E+02
     17.386  0.7820E+00  0.5513E+02
     17.491  0.2682E+00  0.5516E+02
     17.596  0.2976E+00  0.5519E+02
     17.701  0.9583E+00  0.5529E+02
     17.807  0.1429E+01  0.5544E+02
     17.912  0.9802E+00  0.5555E+02
     18.017  0.1040E+01  0.5565E+02
     18.122  0.2224E+01  0.5589E+02
     18.227  0.2850E+01  0.5619E+02
     18.332  0.2169E+01  0.5642E+02
     18.437  0.9165E+00  0.5651E+02
     18.542  0.3594E+00  0.5655E+02
     18.647  0.1232E+01  0.5668E+02
     18.752  0.2445E+01  0.5694E+02
     18.857  0.2455E+01  0.5719E+02
     18.962  0.1438E+01  0.5735E+02
     19.068  0.1538E+01  0.5751E+02
     19.173  0.3512E+01  0.5788E+02
     19.278  0.4232E+01  0.5832E+02
     19.383  0.2201E+01  0.5855E+02
     19.488  0.2352E+00  0.5858E+02
     19.593 -0.2089E+00  0.5855E+02
     19.698 -0.8652E-01  0.5855E+02
     19.803 -0.2025E-01  0.5854E+02
     19.908 -0.4209E-01  0.5854E+02
     20.013 -0.1081E+00  0.5853E+02
     20.118  0.6172E-01  0.5853E+02
     20.224  0.9894E+00  0.5864E+02
     20.329  0.2327E+01  0.5888E+02
     20.434  0.2687E+01  0.5916E+02
     20.539  0.1643E+01  0.5934E+02
     20.644  0.3951E+00  0.5938E+02
     20.749 -0.8811E-01  0.5937E+02
     20.854 -0.7438E-01  0.5936E+02
     20.959 -0.1718E-01  0.5936E+02
     21.064 -0.1896E-02  0.5936E+02
     21.169 -0.1105E-03  0.5936E+02
     21.274 -0.3526E-05  0.5936E+02
     21.379 -0.6276E-07  0.5936E+02
     21.485 -0.3132E-08  0.5936E+02
     21.590 -0.2115E-06  0.5936E+02
     21.695 -0.1001E-04  0.5936E+02
     21.800 -0.2619E-03  0.5936E+02
     21.905 -0.3688E-02  0.5936E+02
     22.010 -0.2627E-01  0.5936E+02
     22.115 -0.7657E-01  0.5935E+02
     22.220  0.4283E-01  0.5935E+02
     22.325  0.7266E+00  0.5943E+02
     22.430  0.1510E+01  0.5959E+02
     22.535  0.1249E+01  0.5972E+02
     22.641  0.3601E+00  0.5976E+02
     22.746 -0.5767E-01  0.5975E+02
     22.851 -0.5581E-01  0.5975E+02
     22.956 -0.1242E-01  0.5974E+02
     23.061 -0.1287E-02  0.5974E+02
     23.166 -0.6977E-04  0.5974E+02
     23.271 -0.2065E-05  0.5974E+02
     23.376 -0.3400E-07  0.5974E+02
     23.481 -0.3151E-09  0.5974E+02
     23.586 -0.1653E-11  0.5974E+02
     23.691 -0.4868E-14  0.5974E+02
     23.796  0.0000E+00  0.5974E+02
     23.902  0.0000E+00  0.5974E+02
     24.007 -0.1547E-29  0.5974E+02
     24.112 -0.7423E-26  0.5974E+02
     24.217 -0.2041E-22  0.5974E+02
     24.322 -0.3214E-19  0.5974E+02
     24.427 -0.2896E-16  0.5974E+02
     24.532 -0.1451E-13  0.5974E+02
     24.637 -0.4224E-11  0.5974E+02
     24.742 -0.7004E-09  0.5974E+02
     24.847 -0.6566E-07  0.5974E+02
     24.952 -0.3456E-05  0.5974E+02
     25.057 -0.1009E-03  0.5974E+02
     25.163 -0.1595E-02  0.5974E+02
     25.268 -0.1296E-01  0.5974E+02
     25.373 -0.4610E-01  0.5974E+02
     25.478 -0.8199E-02  0.5974E+02
     25.583  0.3740E+00  0.5978E+02
     25.688  0.9477E+00  0.5988E+02
     25.793  0.9213E+00  0.5997E+02
     25.898  0.3371E+00  0.6001E+02
     26.003 -0.1807E-01  0.6001E+02
     26.108 -0.4393E-01  0.6000E+02
     26.213 -0.1159E-01  0.6000E+02
     26.319 -0.1362E-02  0.6000E+02
     26.424 -0.8274E-04  0.6000E+02
     26.529 -0.2728E-05  0.6000E+02
     26.634 -0.4994E-07  0.6000E+02
     26.739 -0.5135E-09  0.6000E+02
     26.844 -0.2986E-11  0.6000E+02
     26.949 -0.9737E-14  0.6000E+02
     27.054  0.0000E+00  0.6000E+02
     27.159  0.0000E+00  0.6000E+02
     27.264  0.0000E+00  0.6000E+02
     27.369  0.0000E+00  0.6000E+02
     27.474  0.0000E+00  0.6000E+02
     27.580  0.0000E+00  0.6000E+02
     27.685  0.0000E+00  0.6000E+02
