 vasp.6.2.0 18Jan21 (build Mar 17 2021 09:06:54) complex                        
  
 executed on             LinuxIFC date 2021.08.03  10:19:51
 serial version


--------------------------------------------------------------------------------------------------------


 INCAR:
   ENCUT = 280.000000
   SIGMA = 0.200000
   EDIFF = 1.00e-06
   GGA = PE
   PREC = normal
   IBRION = -1
   ICHARG = 1
   ISMEAR = 1
   KPAR = 1
   NBANDS = 30
   NSW = 0
   NCORE = 1
   LCHARG = .TRUE.

 POTCAR:    PAW_PBE Cu 22Jun2005                  
 POTCAR:    PAW_PBE Cu 22Jun2005                  
   SHA256 =  0e71e558f37a4e8407882b4609ceaae59938afaad9ced71dfe8490308a0ab630 Cu/POTCAR             
   COPYR  = (c) Copyright 22Jun2005 Georg Kresse                                                    
   COPYR  = This file is part of the software VASP. Any use, copying, and all other rights are regul
   COPYR  = If you do not have a valid VASP license, you may not use, copy or distribute this file. 
   VRHFIN =Cu: d10 p1                                                                               
   LEXCH  = PE                                                                                      
   EATOM  =  1390.9808 eV,  102.2342 Ry                                                             
                                                                                                    
   TITEL  = PAW_PBE Cu 22Jun2005                                                                    
   LULTRA =        F    use ultrasoft PP ?                                                          
   IUNSCR =        1    unscreen: 0-lin 1-nonlin 2-no                                               
   RPACOR =    2.000    partial core radius                                                         
   POMASS =   63.546; ZVAL   =   11.000    mass and valenz                                          
   RCORE  =    2.300    outmost cutoff radius                                                       
   RWIGS  =    2.200; RWIGS  =    1.164    wigner-seitz radius (au A)                               
   ENMAX  =  295.446; ENMIN  =  221.585 eV                                                          
   ICORE  =        3    local potential                                                             
   LCOR   =        T    correct aug charges                                                         
   LPAW   =        T    paw PP                                                                      
   EAUG   =  586.980                                                                                
   DEXC   =    0.000                                                                                
   RMAX   =    2.344    core radius for proj-oper                                                   
   RAUG   =    1.300    factor for augmentation sphere                                              
   RDEP   =    2.302    radius for radial grids                                                     
   RDEPT  =    1.771    core radius for aug-charge                                                  
                                                                                                    
   Atomic configuration                                                                             
    9 entries                                                                                       
     n  l   j            E        occ.                                                              
     1  0  0.50     -8850.2468   2.0000                                                             
     2  0  0.50     -1062.3498   2.0000                                                             
     2  1  1.50      -916.8226   6.0000                                                             
     3  0  0.50      -114.6929   2.0000                                                             
     3  1  1.50       -72.1325   6.0000                                                             
     3  2  2.50        -5.0394  10.0000                                                             
     4  0  0.50        -4.6097   1.0000                                                             
     4  1  0.50        -4.0817   0.0000                                                             
     4  3  2.50        -1.3606   0.0000                                                             
   Description                                                                                      
     l       E           TYP  RCUT    TYP  RCUT                                                     
     2     -5.0393973     23  2.200                                                                 
     2     10.8846608     23  2.200                                                                 
     0     -4.6097109     23  2.200                                                                 
     0      8.2520465     23  2.200                                                                 
     1     -2.7211652     23  2.200                                                                 
     1     21.7055443     23  2.200                                                                 
     3      2.7211652     23  2.300                                                                 
  local pseudopotential read in
  partial core-charges read in
  partial kinetic energy density read in
  atomic valenz-charges read in
  non local Contribution for L=           2  read in
    real space projection operators read in
  non local Contribution for L=           2  read in
    real space projection operators read in
  non local Contribution for L=           0  read in
    real space projection operators read in
  non local Contribution for L=           0  read in
    real space projection operators read in
  non local Contribution for L=           1  read in
    real space projection operators read in
  non local Contribution for L=           1  read in
    real space projection operators read in
    PAW grid and wavefunctions read in
 
   number of l-projection  operators is LMAX  =           6
   number of lm-projection operators is LMMAX =          18
 
  PAW_PBE Cu 22Jun2005                  :
 energy of atom  1       EATOM=-1390.9808
 kinetic energy error for atom=    0.0665 (will be added to EATOM!!)
 
 
 POSCAR: Cu
  positions in cartesian coordinates
  No initial velocities read in
 exchange correlation table for  LEXCH =        8
   RHO(1)=    0.500       N(1)  =     2000
   RHO(2)=  100.500       N(2)  =     4000
 


--------------------------------------------------------------------------------------------------------


 ion  position               nearest neighbor table
   1  0.000  0.000  0.000-   2 2.57   3 2.57   4 2.57   3 2.57   4 2.57   2 2.57   4 2.57   4 2.57
                             2 2.57   3 2.57   3 2.57   2 2.57
   2  0.500  0.500  0.000-   1 2.57   3 2.57   4 2.57   3 2.57   4 2.57   1 2.57   3 2.57   3 2.57
                             1 2.57   4 2.57   4 2.57   1 2.57
   3  0.500  0.000  0.500-   1 2.57   2 2.57   4 2.57   1 2.57   2 2.57   2 2.57   4 2.57   2 2.57
                             1 2.57   4 2.57   1 2.57   4 2.57
   4  0.000  0.500  0.500-   1 2.57   2 2.57   3 2.57   1 2.57   2 2.57   1 2.57   3 2.57   1 2.57
                             2 2.57   3 2.57   2 2.57   3 2.57
 
  LATTYP: Found a simple cubic cell.
 ALAT       =     3.6350000000
  
  Lattice vectors:
  
 A1 = (   3.6350000000,   0.0000000000,   0.0000000000)
 A2 = (   0.0000000000,   3.6350000000,   0.0000000000)
 A3 = (   0.0000000000,   0.0000000000,   3.6350000000)


Analysis of symmetry for initial positions (statically):
=====================================================================
 Subroutine PRICEL returns following result:
 
  LATTYP: Found a face centered cubic cell.
 ALAT       =     3.6350000000
  
  Lattice vectors:
  
 A1 = (   1.8175000000,  -1.8175000000,   0.0000000000)
 A2 = (   1.8175000000,   0.0000000000,   1.8175000000)
 A3 = (   0.0000000000,  -1.8175000000,   1.8175000000)
 
   4 primitive cells build up your supercell.
 

 Routine SETGRP: Setting up the symmetry group for a 
 simple cubic supercell.


 Subroutine GETGRP returns: Found 48 space group operations
 (whereof 48 operations were pure point group operations)
 out of a pool of 48 trial point group operations.


The static configuration has the point symmetry O_h .


Analysis of symmetry for dynamics (positions and initial velocities):
=====================================================================
 Subroutine PRICEL returns following result:
 
  LATTYP: Found a face centered cubic cell.
 ALAT       =     3.6350000000
  
  Lattice vectors:
  
 A1 = (   1.8175000000,  -1.8175000000,   0.0000000000)
 A2 = (   1.8175000000,   0.0000000000,   1.8175000000)
 A3 = (   0.0000000000,  -1.8175000000,   1.8175000000)
 
   4 primitive cells build up your supercell.
 

 Routine SETGRP: Setting up the symmetry group for a 
 simple cubic supercell.


 Subroutine GETGRP returns: Found 48 space group operations
 (whereof 48 operations were pure point group operations)
 out of a pool of 48 trial point group operations.


The dynamic configuration has the point symmetry O_h .


 Subroutine INISYM returns: Found 48 space group operations
 (whereof 48 operations are pure point group operations),
 and found     4 'primitive' translations


----------------------------------------------------------------------------------------

                                     Primitive cell                                     

  volume of cell :      12.0075

  direct lattice vectors                    reciprocal lattice vectors
     1.817500000 -1.817500000  0.000000000     0.275103164 -0.275103164 -0.275103164
     1.817500000  0.000000000  1.817500000     0.275103164  0.275103164  0.275103164
     0.000000000 -1.817500000  1.817500000    -0.275103164 -0.275103164  0.275103164

  length of vectors
     2.570333150  2.570333150  2.570333150     0.476492657  0.476492657  0.476492657

  position of ions in fractional coordinates (direct lattice)
     0.000000000  0.000000000  0.000000000

  ion indices of the primitive-cell ions
   primitive index   ion index
                 1           1

----------------------------------------------------------------------------------------

 
 
 KPOINTS: KPOINTS created by Atomic Simulation Env

Automatic generation of k-mesh.
 Grid dimensions read from file:
 generate k-points for:    5    5    5

 Generating k-lattice:

  Cartesian coordinates                     Fractional coordinates (reciprocal lattice)
     0.055020633  0.000000000  0.000000000     0.200000000  0.000000000  0.000000000
     0.000000000  0.055020633  0.000000000     0.000000000  0.200000000  0.000000000
     0.000000000  0.000000000  0.055020633     0.000000000  0.000000000  0.200000000

  Length of vectors
     0.055020633  0.055020633  0.055020633

  Shift w.r.t. Gamma in fractional coordinates (k-lattice)
     0.000000000  0.000000000  0.000000000

 
 Subroutine IBZKPT returns following result:
 ===========================================
 
 Found     10 irreducible k-points:
 
 Following reciprocal coordinates:
            Coordinates               Weight
  0.000000  0.000000  0.000000      1.000000
  0.200000  0.000000  0.000000      6.000000
  0.400000  0.000000  0.000000      6.000000
  0.200000  0.200000  0.000000     12.000000
  0.400000  0.200000  0.000000     24.000000
  0.400000  0.400000  0.000000     12.000000
  0.200000  0.200000  0.200000      8.000000
  0.400000  0.200000  0.200000     24.000000
  0.400000  0.400000  0.200000     24.000000
  0.400000  0.400000  0.400000      8.000000
 
 Following cartesian coordinates:
            Coordinates               Weight
  0.000000  0.000000  0.000000      1.000000
  0.055021  0.000000  0.000000      6.000000
  0.110041  0.000000  0.000000      6.000000
  0.055021  0.055021  0.000000     12.000000
  0.110041  0.055021  0.000000     24.000000
  0.110041  0.110041  0.000000     12.000000
  0.055021  0.055021  0.055021      8.000000
  0.110041  0.055021  0.055021     24.000000
  0.110041  0.110041  0.055021     24.000000
  0.110041  0.110041  0.110041      8.000000
 


--------------------------------------------------------------------------------------------------------




 Dimension of arrays:
   k-points           NKPTS =     10   k-points in BZ     NKDIM =     10   number of bands    NBANDS=     30
   number of dos      NEDOS =    301   number of ions     NIONS =      4
   non local maximal  LDIM  =      6   non local SUM 2l+1 LMDIM =     18
   total plane-waves  NPLWV =   4096
   max r-space proj   IRMAX =      1   max aug-charges    IRDMAX=   2669
   dimension x,y,z NGX =    16 NGY =   16 NGZ =   16
   dimension x,y,z NGXF=    32 NGYF=   32 NGZF=   32
   support grid    NGXF=    32 NGYF=   32 NGZF=   32
   ions per type =               4
   NGX,Y,Z   is equivalent  to a cutoff of   7.32,  7.32,  7.32 a.u.
   NGXF,Y,Z  is equivalent  to a cutoff of  14.64, 14.64, 14.64 a.u.

 SYSTEM =  unknown system                          
 POSCAR =  Cu                                      

 Startparameter for this run:
   NWRITE =      2    write-flag & timer
   PREC   = normal    normal or accurate (medium, high low for compatibility)
   ISTART =      0    job   : 0-new  1-cont  2-samecut
   ICHARG =      1    charge: 1-file 2-atom 10-const
   ISPIN  =      1    spin polarized calculation?
   LNONCOLLINEAR =      F non collinear calculations
   LSORBIT =      F    spin-orbit coupling
   INIWAV =      1    electr: 0-lowe 1-rand  2-diag
   LASPH  =      F    aspherical Exc in radial PAW
   METAGGA=      F    non-selfconsistent MetaGGA calc.

 Electronic Relaxation 1
   ENCUT  =  280.0 eV  20.58 Ry    4.54 a.u.   4.96  4.96  4.96*2*pi/ulx,y,z
   ENINI  =  280.0     initial cutoff
   ENAUG  =  587.0 eV  augmentation charge cutoff
   NELM   =     60;   NELMIN=  2; NELMDL= -5     # of ELM steps 
   EDIFF  = 0.1E-05   stopping-criterion for ELM
   LREAL  =      F    real-space projection
   NLSPLINE    = F    spline interpolate recip. space projectors
   LCOMPAT=      F    compatible to vasp.4.4
   GGA_COMPAT  = T    GGA compatible to vasp.4.4-vasp.4.6
   LMAXPAW     = -100 max onsite density
   LMAXMIX     =    2 max onsite mixed and CHGCAR
   VOSKOWN=      0    Vosko Wilk Nusair interpolation
   ROPT   =    0.00000
 Ionic relaxation
   EDIFFG = 0.1E-04   stopping-criterion for IOM
   NSW    =      0    number of steps for IOM
   NBLOCK =      1;   KBLOCK =      1    inner block; outer block 
   IBRION =     -1    ionic relax: 0-MD 1-quasi-New 2-CG
   NFREE  =      0    steps in history (QN), initial steepest desc. (CG)
   ISIF   =      2    stress and relaxation
   IWAVPR =      0    prediction:  0-non 1-charg 2-wave 3-comb
   ISYM   =      2    0-nonsym 1-usesym 2-fastsym
   LCORR  =      T    Harris-Foulkes like correction to forces

   POTIM  = 0.5000    time-step for ionic-motion
   TEIN   =    0.0    initial temperature
   TEBEG  =    0.0;   TEEND  =   0.0 temperature during run
   SMASS  =  -3.00    Nose mass-parameter (am)
   estimated Nose-frequenzy (Omega)   =  0.10E-29 period in steps = 0.13E+47 mass=  -0.302E-27a.u.
   SCALEE = 1.0000    scale energy and forces
   NPACO  =    256;   APACO  = 16.0  distance and # of slots for P.C.
   PSTRESS=    0.0 pullay stress

  Mass of Ions in am
   POMASS =  63.55
  Ionic Valenz
   ZVAL   =  11.00
  Atomic Wigner-Seitz radii
   RWIGS  =  -1.00
  virtual crystal weights 
   VCA    =   1.00
   NELECT =      44.0000    total number of electrons
   NUPDOWN=      -1.0000    fix difference up-down

 DOS related values:
   EMIN   =  10.00;   EMAX   =-10.00  energy-range for DOS
   EFERMI =   0.00
   ISMEAR =     1;   SIGMA  =   0.20  broadening in eV -4-tet -1-fermi 0-gaus

 Electronic relaxation 2 (details)
   IALGO  =     38    algorithm
   LDIAG  =      T    sub-space diagonalisation (order eigenvalues)
   LSUBROT=      F    optimize rotation matrix (better conditioning)
   TURBO    =      0    0=normal 1=particle mesh
   IRESTART =      0    0=no restart 2=restart with 2 vectors
   NREBOOT  =      0    no. of reboots
   NMIN     =      0    reboot dimension
   EREF     =   0.00    reference energy to select bands
   IMIX   =      4    mixing-type and parameters
     AMIX     =   0.40;   BMIX     =  1.00
     AMIX_MAG =   1.60;   BMIX_MAG =  1.00
     AMIN     =   0.10
     WC   =   100.;   INIMIX=   1;  MIXPRE=   1;  MAXMIX= -45

 Intra band minimization:
   WEIMIN = 0.0000     energy-eigenvalue tresh-hold
   EBREAK =  0.83E-08  absolut break condition
   DEPER  =   0.30     relativ break condition  

   TIME   =   0.40     timestep for ELM

  volume/ion in A,a.u.               =      12.01        81.03
  Fermi-wavevector in a.u.,A,eV,Ry     =   1.589967  3.004601 34.395439  2.527993
  Thomas-Fermi vector in A             =   2.688734
 
 Write flags
   LWAVE        =      T    write WAVECAR
   LDOWNSAMPLE  =      F    k-point downsampling of WAVECAR
   LCHARG       =      T    write CHGCAR
   LVTOT        =      F    write LOCPOT, total local potential
   LVHAR        =      F    write LOCPOT, Hartree potential only
   LELF         =      F    write electronic localiz. function (ELF)
   LORBIT       =      0    0 simple, 1 ext, 2 COOP (PROOUT), +10 PAW based schemes


 Dipole corrections
   LMONO  =      F    monopole corrections only (constant potential shift)
   LDIPOL =      F    correct potential (dipole corrections)
   IDIPOL =      0    1-x, 2-y, 3-z, 4-all directions 
   EPSILON=  1.0000000 bulk dielectric constant

 Exchange correlation treatment:
   GGA     =    PE    GGA type
   LEXCH   =     8    internal setting for exchange type
   VOSKOWN=      0    Vosko Wilk Nusair interpolation
   LHFCALC =     F    Hartree Fock is set to
   LHFONE  =     F    Hartree Fock one center treatment
   AEXX    =    0.0000 exact exchange contribution

 Linear response parameters
   LEPSILON=     F    determine dielectric tensor
   LRPA    =     F    only Hartree local field effects (RPA)
   LNABLA  =     F    use nabla operator in PAW spheres
   LVEL    =     F    velocity operator in full k-point grid
   LINTERFAST=   F  fast interpolation
   KINTER  =     0    interpolate to denser k-point grid
   CSHIFT  =0.1000    complex shift for real part using Kramers Kronig
   OMEGAMAX=  -1.0    maximum frequency
   DEG_THRESHOLD= 0.2000000E-02 threshold for treating states as degnerate
   RTIME   =   -0.100 relaxation time in fs
  (WPLASMAI=    0.000 imaginary part of plasma frequency in eV, 0.658/RTIME)
   DFIELD  = 0.0000000 0.0000000 0.0000000 field for delta impulse in time
 
 Orbital magnetization related:
   ORBITALMAG=     F  switch on orbital magnetization
   LCHIMAG   =     F  perturbation theory with respect to B field
   DQ        =  0.001000  dq finite difference perturbation B field
   LLRAUG    =     F  two centre corrections for induced B field



--------------------------------------------------------------------------------------------------------


 Static calculation
 charge density and potential will be updated during run
 non-spin polarized calculation
 Variant of blocked Davidson
 Davidson routine will perform the subspace rotation
 perform sub-space diagonalisation
    after iterative eigenvector-optimisation
 modified Broyden-mixing scheme, WC =      100.0
 initial mixing is a Kerker type mixing with AMIX =  0.4000 and BMIX =      1.0000
 Hartree-type preconditioning will be used
 using additional bands            8
 reciprocal scheme for non local part
 use partial core corrections
 calculate Harris-corrections to forces 
   (improved forces if not selfconsistent)
 use gradient corrections 
 use of overlap-Matrix (Vanderbilt PP)
 Methfessel and Paxton  Order N= 1 SIGMA  =   0.20


--------------------------------------------------------------------------------------------------------


  energy-cutoff  :      280.00
  volume of cell :       48.03
      direct lattice vectors                 reciprocal lattice vectors
     3.635000000  0.000000000  0.000000000     0.275103164  0.000000000  0.000000000
     0.000000000  3.635000000  0.000000000     0.000000000  0.275103164  0.000000000
     0.000000000  0.000000000  3.635000000     0.000000000  0.000000000  0.275103164

  length of vectors
     3.635000000  3.635000000  3.635000000     0.275103164  0.275103164  0.275103164


 
 k-points in units of 2pi/SCALE and weight: KPOINTS created by Atomic Simulation Env
   0.00000000  0.00000000  0.00000000       0.008
   0.05502063  0.00000000  0.00000000       0.048
   0.11004127  0.00000000  0.00000000       0.048
   0.05502063  0.05502063  0.00000000       0.096
   0.11004127  0.05502063  0.00000000       0.192
   0.11004127  0.11004127  0.00000000       0.096
   0.05502063  0.05502063  0.05502063       0.064
   0.11004127  0.05502063  0.05502063       0.192
   0.11004127  0.11004127  0.05502063       0.192
   0.11004127  0.11004127  0.11004127       0.064
 
 k-points in reciprocal lattice and weights: KPOINTS created by Atomic Simulation Env
   0.00000000  0.00000000  0.00000000       0.008
   0.20000000  0.00000000  0.00000000       0.048
   0.40000000  0.00000000  0.00000000       0.048
   0.20000000  0.20000000  0.00000000       0.096
   0.40000000  0.20000000  0.00000000       0.192
   0.40000000  0.40000000  0.00000000       0.096
   0.20000000  0.20000000  0.20000000       0.064
   0.40000000  0.20000000  0.20000000       0.192
   0.40000000  0.40000000  0.20000000       0.192
   0.40000000  0.40000000  0.40000000       0.064
 
 position of ions in fractional coordinates (direct lattice) 
   0.00000000  0.00000000  0.00000000
   0.50000000  0.50000000  0.00000000
   0.50000000  0.00000000  0.50000000
   0.00000000  0.50000000  0.50000000
 
 position of ions in cartesian coordinates  (Angst):
   0.00000000  0.00000000  0.00000000
   1.81750000  1.81750000  0.00000000
   1.81750000  0.00000000  1.81750000
   0.00000000  1.81750000  1.81750000
 


--------------------------------------------------------------------------------------------------------


 k-point   1 :   0.0000 0.0000 0.0000  plane waves:     485
 k-point   2 :   0.2000 0.0000 0.0000  plane waves:     494
 k-point   3 :   0.4000 0.0000 0.0000  plane waves:     506
 k-point   4 :   0.2000 0.2000 0.0000  plane waves:     507
 k-point   5 :   0.4000 0.2000 0.0000  plane waves:     513
 k-point   6 :   0.4000 0.4000 0.0000  plane waves:     517
 k-point   7 :   0.2000 0.2000 0.2000  plane waves:     510
 k-point   8 :   0.4000 0.2000 0.2000  plane waves:     510
 k-point   9 :   0.4000 0.4000 0.2000  plane waves:     521
 k-point  10 :   0.4000 0.4000 0.4000  plane waves:     510

 maximum number of plane-waves:       521
 maximum index in each direction: 
   IXMAX=    4   IYMAX=    4   IZMAX=    4
   IXMIN=   -5   IYMIN=   -5   IZMIN=   -5


 total amount of memory used by VASP MPI-rank0    35497. kBytes
=======================================================================

   base      :      30000. kBytes
   nonl-proj :        783. kBytes
   grid      :       1806. kBytes
   one-center:         62. kBytes
   wavefun   :       2846. kBytes
 
     INWAV:  cpu time    0.0000: real time    0.0000
 Broyden mixing: mesh for mixing (old mesh)
   NGX =  9   NGY =  9   NGZ =  9
  (NGX  = 32   NGY  = 32   NGZ  = 32)
  gives a total of    729 points

 initial charge density was supplied:
 charge density of overlapping atoms calculated
 number of electron      44.0000000 magnetization 
 keeping initial charge density in first step


--------------------------------------------------------------------------------------------------------


 Maximum index for augmentation-charges         2373 (set IRDMAX)


--------------------------------------------------------------------------------------------------------


 First call to EWALD:  gamma=   0.488
 Maximum number of real-space cells 3x 3x 3
 Maximum number of reciprocal cells 3x 3x 3

    FEWALD:  cpu time    0.0008: real time    0.0008


--------------------------------------- Iteration      1(   1)  ---------------------------------------


    POTLOK:  cpu time    0.0073: real time    0.0073
    SETDIJ:  cpu time    0.0038: real time    0.0038
     EDDAV:  cpu time    0.1688: real time    0.1872
       DOS:  cpu time    0.0008: real time    0.0008
    --------------------------------------------
      LOOP:  cpu time    0.1806: real time    0.1990

 eigenvalue-minimisations  :   624
 total energy-change (2. order) : 0.2768781E+03  (-0.1346069E+04)
 number of electron      44.0000000 magnetization 
 augmentation part       44.0000000 magnetization 

 Free energy of the ion-electron system (eV)
  ---------------------------------------------------
  alpha Z        PSCENC =       243.62337785
  Ewald energy   TEWEN  =     -4395.34838493
  -Hartree energ DENC   =     -1460.68397545
  -exchange      EXHF   =         0.00000000
  -V(xc)+E(xc)   XCENC  =       182.95596869
  PAW double counting   =      4912.82663951    -5336.19386850
  entropy T*S    EENTRO =        -0.00005958
  eigenvalues    EBANDS =       566.04118901
  atomic energy  EATOM  =      5563.65721665
  Solvation  Ediel_sol  =         0.00000000
  ---------------------------------------------------
  free energy    TOTEN  =       276.87810323 eV

  energy without entropy =      276.87816281  energy(sigma->0) =      276.87812309


--------------------------------------------------------------------------------------------------------




--------------------------------------- Iteration      1(   2)  ---------------------------------------


     EDDAV:  cpu time    0.1063: real time    0.1063
       DOS:  cpu time    0.0009: real time    0.0009
    --------------------------------------------
      LOOP:  cpu time    0.1071: real time    0.1071

 eigenvalue-minimisations  :   600
 total energy-change (2. order) :-0.2750483E+03  (-0.2648623E+03)
 number of electron      44.0000000 magnetization 
 augmentation part       44.0000000 magnetization 

 Free energy of the ion-electron system (eV)
  ---------------------------------------------------
  alpha Z        PSCENC =       243.62337785
  Ewald energy   TEWEN  =     -4395.34838493
  -Hartree energ DENC   =     -1460.68397545
  -exchange      EXHF   =         0.00000000
  -V(xc)+E(xc)   XCENC  =       182.95596869
  PAW double counting   =      4912.82663951    -5336.19386850
  entropy T*S    EENTRO =        -0.00284816
  eigenvalues    EBANDS =       290.99570079
  atomic energy  EATOM  =      5563.65721665
  Solvation  Ediel_sol  =         0.00000000
  ---------------------------------------------------
  free energy    TOTEN  =         1.82982643 eV

  energy without entropy =        1.83267460  energy(sigma->0) =        1.83077582


--------------------------------------------------------------------------------------------------------




--------------------------------------- Iteration      1(   3)  ---------------------------------------


     EDDAV:  cpu time    0.1149: real time    0.1149
       DOS:  cpu time    0.0009: real time    0.0009
    --------------------------------------------
      LOOP:  cpu time    0.1157: real time    0.1157

 eigenvalue-minimisations  :   660
 total energy-change (2. order) :-0.1987337E+02  (-0.1903636E+02)
 number of electron      44.0000000 magnetization 
 augmentation part       44.0000000 magnetization 

 Free energy of the ion-electron system (eV)
  ---------------------------------------------------
  alpha Z        PSCENC =       243.62337785
  Ewald energy   TEWEN  =     -4395.34838493
  -Hartree energ DENC   =     -1460.68397545
  -exchange      EXHF   =         0.00000000
  -V(xc)+E(xc)   XCENC  =       182.95596869
  PAW double counting   =      4912.82663951    -5336.19386850
  entropy T*S    EENTRO =        -0.01862435
  eigenvalues    EBANDS =       271.13810265
  atomic energy  EATOM  =      5563.65721665
  Solvation  Ediel_sol  =         0.00000000
  ---------------------------------------------------
  free energy    TOTEN  =       -18.04354790 eV

  energy without entropy =      -18.02492354  energy(sigma->0) =      -18.03733978


--------------------------------------------------------------------------------------------------------




--------------------------------------- Iteration      1(   4)  ---------------------------------------


     EDDAV:  cpu time    0.1211: real time    0.1212
       DOS:  cpu time    0.0009: real time    0.0009
    --------------------------------------------
      LOOP:  cpu time    0.1220: real time    0.1220

 eigenvalue-minimisations  :   684
 total energy-change (2. order) :-0.3564372E+00  (-0.3561029E+00)
 number of electron      44.0000000 magnetization 
 augmentation part       44.0000000 magnetization 

 Free energy of the ion-electron system (eV)
  ---------------------------------------------------
  alpha Z        PSCENC =       243.62337785
  Ewald energy   TEWEN  =     -4395.34838493
  -Hartree energ DENC   =     -1460.68397545
  -exchange      EXHF   =         0.00000000
  -V(xc)+E(xc)   XCENC  =       182.95596869
  PAW double counting   =      4912.82663951    -5336.19386850
  entropy T*S    EENTRO =        -0.01879979
  eigenvalues    EBANDS =       270.78184088
  atomic energy  EATOM  =      5563.65721665
  Solvation  Ediel_sol  =         0.00000000
  ---------------------------------------------------
  free energy    TOTEN  =       -18.39998510 eV

  energy without entropy =      -18.38118531  energy(sigma->0) =      -18.39371851


--------------------------------------------------------------------------------------------------------




--------------------------------------- Iteration      1(   5)  ---------------------------------------


     EDDAV:  cpu time    0.1206: real time    0.1206
       DOS:  cpu time    0.0009: real time    0.0009
    CHARGE:  cpu time    0.0103: real time    0.0103
    MIXING:  cpu time    0.0002: real time    0.0002
    --------------------------------------------
      LOOP:  cpu time    0.1320: real time    0.1320

 eigenvalue-minimisations  :   708
 total energy-change (2. order) :-0.4702644E-02  (-0.4702563E-02)
 number of electron      44.0001136 magnetization 
 augmentation part       25.9222059 magnetization 

 Broyden mixing:
  rms(total) = 0.15425E+01    rms(broyden)= 0.15421E+01
  rms(prec ) = 0.36108E+01
  weight for this iteration     100.00

 Free energy of the ion-electron system (eV)
  ---------------------------------------------------
  alpha Z        PSCENC =       243.62337785
  Ewald energy   TEWEN  =     -4395.34838493
  -Hartree energ DENC   =     -1460.68397545
  -exchange      EXHF   =         0.00000000
  -V(xc)+E(xc)   XCENC  =       182.95596869
  PAW double counting   =      4912.82663951    -5336.19386850
  entropy T*S    EENTRO =        -0.01880233
  eigenvalues    EBANDS =       270.77714077
  atomic energy  EATOM  =      5563.65721665
  Solvation  Ediel_sol  =         0.00000000
  ---------------------------------------------------
  free energy    TOTEN  =       -18.40468775 eV

  energy without entropy =      -18.38588542  energy(sigma->0) =      -18.39842031


--------------------------------------------------------------------------------------------------------




--------------------------------------- Iteration      1(   6)  ---------------------------------------


    POTLOK:  cpu time    0.0070: real time    0.0070
    SETDIJ:  cpu time    0.0037: real time    0.0037
     EDDAV:  cpu time    0.1134: real time    0.1134
       DOS:  cpu time    0.0008: real time    0.0008
    CHARGE:  cpu time    0.0101: real time    0.0101
    MIXING:  cpu time    0.0003: real time    0.0003
    --------------------------------------------
      LOOP:  cpu time    0.1352: real time    0.1352

 eigenvalue-minimisations  :   660
 total energy-change (2. order) : 0.2140513E+01  (-0.3017231E+01)
 number of electron      44.0001225 magnetization 
 augmentation part       29.3099359 magnetization 

 Broyden mixing:
  rms(total) = 0.82129E+00    rms(broyden)= 0.82064E+00
  rms(prec ) = 0.17714E+01
  weight for this iteration     100.00

 eigenvalues of (default mixing * dielectric matrix)
  average eigenvalue GAMMA=   0.6532
  0.6532

 Free energy of the ion-electron system (eV)
  ---------------------------------------------------
  alpha Z        PSCENC =       243.62337785
  Ewald energy   TEWEN  =     -4395.34838493
  -Hartree energ DENC   =     -1347.70570506
  -exchange      EXHF   =         0.00000000
  -V(xc)+E(xc)   XCENC  =       177.35218468
  PAW double counting   =      4980.95375525    -5381.49941399
  entropy T*S    EENTRO =        -0.00017706
  eigenvalues    EBANDS =       142.70297222
  atomic energy  EATOM  =      5563.65721665
  Solvation  Ediel_sol  =         0.00000000
  ---------------------------------------------------
  free energy    TOTEN  =       -16.26417438 eV

  energy without entropy =      -16.26399733  energy(sigma->0) =      -16.26411537


--------------------------------------------------------------------------------------------------------




--------------------------------------- Iteration      1(   7)  ---------------------------------------


    POTLOK:  cpu time    0.0068: real time    0.0068
    SETDIJ:  cpu time    0.0038: real time    0.0037
     EDDAV:  cpu time    0.1185: real time    0.1185
       DOS:  cpu time    0.0008: real time    0.0008
    CHARGE:  cpu time    0.0102: real time    0.0102
    MIXING:  cpu time    0.0003: real time    0.0003
    --------------------------------------------
      LOOP:  cpu time    0.1404: real time    0.1404

 eigenvalue-minimisations  :   672
 total energy-change (2. order) : 0.1520299E+01  (-0.5763454E+00)
 number of electron      44.0001187 magnetization 
 augmentation part       27.9852101 magnetization 

 Broyden mixing:
  rms(total) = 0.10390E+00    rms(broyden)= 0.10356E+00
  rms(prec ) = 0.26013E+00
  weight for this iteration     100.00

 eigenvalues of (default mixing * dielectric matrix)
  average eigenvalue GAMMA=   1.3035
  1.9766  0.6305

 Free energy of the ion-electron system (eV)
  ---------------------------------------------------
  alpha Z        PSCENC =       243.62337785
  Ewald energy   TEWEN  =     -4395.34838493
  -Hartree energ DENC   =     -1383.38539097
  -exchange      EXHF   =         0.00000000
  -V(xc)+E(xc)   XCENC  =       179.21092585
  PAW double counting   =      5084.05225990    -5503.66326298
  entropy T*S    EENTRO =        -0.03234514
  eigenvalues    EBANDS =       197.14172794
  atomic energy  EATOM  =      5563.65721665
  Solvation  Ediel_sol  =         0.00000000
  ---------------------------------------------------
  free energy    TOTEN  =       -14.74387584 eV

  energy without entropy =      -14.71153070  energy(sigma->0) =      -14.73309413


--------------------------------------------------------------------------------------------------------




--------------------------------------- Iteration      1(   8)  ---------------------------------------


    POTLOK:  cpu time    0.0069: real time    0.0069
    SETDIJ:  cpu time    0.0037: real time    0.0037
     EDDAV:  cpu time    0.1145: real time    0.1145
       DOS:  cpu time    0.0008: real time    0.0008
    CHARGE:  cpu time    0.0102: real time    0.0102
    MIXING:  cpu time    0.0003: real time    0.0003
    --------------------------------------------
      LOOP:  cpu time    0.1364: real time    0.1364

 eigenvalue-minimisations  :   676
 total energy-change (2. order) : 0.3126146E-01  (-0.5919992E-02)
 number of electron      44.0001186 magnetization 
 augmentation part       27.9586431 magnetization 

 Broyden mixing:
  rms(total) = 0.66225E-01    rms(broyden)= 0.66199E-01
  rms(prec ) = 0.16045E+00
  weight for this iteration     100.00

 eigenvalues of (default mixing * dielectric matrix)
  average eigenvalue GAMMA=   1.2871
  0.6601  0.8349  2.3664

 Free energy of the ion-electron system (eV)
  ---------------------------------------------------
  alpha Z        PSCENC =       243.62337785
  Ewald energy   TEWEN  =     -4395.34838493
  -Hartree energ DENC   =     -1373.70238047
  -exchange      EXHF   =         0.00000000
  -V(xc)+E(xc)   XCENC  =       178.80393942
  PAW double counting   =      5225.25562638    -5653.76457289
  entropy T*S    EENTRO =        -0.03223414
  eigenvalues    EBANDS =       196.79479776
  atomic energy  EATOM  =      5563.65721665
  Solvation  Ediel_sol  =         0.00000000
  ---------------------------------------------------
  free energy    TOTEN  =       -14.71261438 eV

  energy without entropy =      -14.68038024  energy(sigma->0) =      -14.70186966


--------------------------------------------------------------------------------------------------------




--------------------------------------- Iteration      1(   9)  ---------------------------------------


    POTLOK:  cpu time    0.0068: real time    0.0068
    SETDIJ:  cpu time    0.0037: real time    0.0037
     EDDAV:  cpu time    0.1155: real time    0.1155
       DOS:  cpu time    0.0008: real time    0.0008
    CHARGE:  cpu time    0.0101: real time    0.0101
    MIXING:  cpu time    0.0003: real time    0.0003
    --------------------------------------------
      LOOP:  cpu time    0.1373: real time    0.1373

 eigenvalue-minimisations  :   672
 total energy-change (2. order) : 0.7660274E-02  (-0.1429482E-02)
 number of electron      44.0001188 magnetization 
 augmentation part       28.0458584 magnetization 

 Broyden mixing:
  rms(total) = 0.54974E-02    rms(broyden)= 0.54655E-02
  rms(prec ) = 0.11212E-01
  weight for this iteration     100.00

 eigenvalues of (default mixing * dielectric matrix)
  average eigenvalue GAMMA=   1.5057
  0.6528  0.9292  2.5110  1.9299

 Free energy of the ion-electron system (eV)
  ---------------------------------------------------
  alpha Z        PSCENC =       243.62337785
  Ewald energy   TEWEN  =     -4395.34838493
  -Hartree energ DENC   =     -1368.07975426
  -exchange      EXHF   =         0.00000000
  -V(xc)+E(xc)   XCENC  =       178.54647105
  PAW double counting   =      5261.33687558    -5691.64861537
  entropy T*S    EENTRO =        -0.02895644
  eigenvalues    EBANDS =       193.23681578
  atomic energy  EATOM  =      5563.65721665
  Solvation  Ediel_sol  =         0.00000000
  ---------------------------------------------------
  free energy    TOTEN  =       -14.70495410 eV

  energy without entropy =      -14.67599766  energy(sigma->0) =      -14.69530196


--------------------------------------------------------------------------------------------------------




--------------------------------------- Iteration      1(  10)  ---------------------------------------


    POTLOK:  cpu time    0.0069: real time    0.0069
    SETDIJ:  cpu time    0.0037: real time    0.0037
     EDDAV:  cpu time    0.1307: real time    0.1307
       DOS:  cpu time    0.0008: real time    0.0008
    CHARGE:  cpu time    0.0100: real time    0.0100
    MIXING:  cpu time    0.0003: real time    0.0003
    --------------------------------------------
      LOOP:  cpu time    0.1524: real time    0.1524

 eigenvalue-minimisations  :   802
 total energy-change (2. order) :-0.7675068E-04  (-0.8243755E-04)
 number of electron      44.0001188 magnetization 
 augmentation part       28.0372688 magnetization 

 Broyden mixing:
  rms(total) = 0.26123E-02    rms(broyden)= 0.26117E-02
  rms(prec ) = 0.59095E-02
  weight for this iteration     100.00

 eigenvalues of (default mixing * dielectric matrix)
  average eigenvalue GAMMA=   1.5297
  2.6470  2.5099  0.6525  0.9196  0.9196

 Free energy of the ion-electron system (eV)
  ---------------------------------------------------
  alpha Z        PSCENC =       243.62337785
  Ewald energy   TEWEN  =     -4395.34838493
  -Hartree energ DENC   =     -1368.62745543
  -exchange      EXHF   =         0.00000000
  -V(xc)+E(xc)   XCENC  =       178.57236463
  PAW double counting   =      5254.84850404    -5684.97787102
  entropy T*S    EENTRO =        -0.02930218
  eigenvalues    EBANDS =       193.57651955
  atomic energy  EATOM  =      5563.65721665
  Solvation  Ediel_sol  =         0.00000000
  ---------------------------------------------------
  free energy    TOTEN  =       -14.70503085 eV

  energy without entropy =      -14.67572868  energy(sigma->0) =      -14.69526346


--------------------------------------------------------------------------------------------------------




--------------------------------------- Iteration      1(  11)  ---------------------------------------


    POTLOK:  cpu time    0.0068: real time    0.0068
    SETDIJ:  cpu time    0.0037: real time    0.0037
     EDDAV:  cpu time    0.1146: real time    0.1146
       DOS:  cpu time    0.0008: real time    0.0008
    CHARGE:  cpu time    0.0100: real time    0.0100
    MIXING:  cpu time    0.0003: real time    0.0003
    --------------------------------------------
      LOOP:  cpu time    0.1363: real time    0.1363

 eigenvalue-minimisations  :   684
 total energy-change (2. order) : 0.8064772E-05  (-0.4628739E-05)
 number of electron      44.0001188 magnetization 
 augmentation part       28.0408505 magnetization 

 Broyden mixing:
  rms(total) = 0.12176E-03    rms(broyden)= 0.11300E-03
  rms(prec ) = 0.20006E-03
  weight for this iteration     100.00

 eigenvalues of (default mixing * dielectric matrix)
  average eigenvalue GAMMA=   1.5074
  2.5596  2.5596  0.6529  0.9553  0.9964  1.3208

 Free energy of the ion-electron system (eV)
  ---------------------------------------------------
  alpha Z        PSCENC =       243.62337785
  Ewald energy   TEWEN  =     -4395.34838493
  -Hartree energ DENC   =     -1368.51694037
  -exchange      EXHF   =         0.00000000
  -V(xc)+E(xc)   XCENC  =       178.56719223
  PAW double counting   =      5253.03844221    -5683.13578468
  entropy T*S    EENTRO =        -0.02915992
  eigenvalues    EBANDS =       193.43901818
  atomic energy  EATOM  =      5563.65721665
  Solvation  Ediel_sol  =         0.00000000
  ---------------------------------------------------
  free energy    TOTEN  =       -14.70502279 eV

  energy without entropy =      -14.67586287  energy(sigma->0) =      -14.69530282


--------------------------------------------------------------------------------------------------------




--------------------------------------- Iteration      1(  12)  ---------------------------------------


    POTLOK:  cpu time    0.0069: real time    0.0069
    SETDIJ:  cpu time    0.0038: real time    0.0038
     EDDAV:  cpu time    0.0985: real time    0.0985
       DOS:  cpu time    0.0009: real time    0.0009
    CHARGE:  cpu time    0.0103: real time    0.0103
    MIXING:  cpu time    0.0004: real time    0.0004
    --------------------------------------------
      LOOP:  cpu time    0.1206: real time    0.1207

 eigenvalue-minimisations  :   544
 total energy-change (2. order) :-0.1821877E-05  (-0.4440765E-06)
 number of electron      44.0001188 magnetization 
 augmentation part       28.0405634 magnetization 

 Broyden mixing:
  rms(total) = 0.12995E-03    rms(broyden)= 0.12975E-03
  rms(prec ) = 0.25250E-03
  weight for this iteration     100.00

 eigenvalues of (default mixing * dielectric matrix)
  average eigenvalue GAMMA=   1.6371
  2.9153  2.6321  2.4080  0.6530  0.9876  0.9876  0.8759

 Free energy of the ion-electron system (eV)
  ---------------------------------------------------
  alpha Z        PSCENC =       243.62337785
  Ewald energy   TEWEN  =     -4395.34838493
  -Hartree energ DENC   =     -1368.49974052
  -exchange      EXHF   =         0.00000000
  -V(xc)+E(xc)   XCENC  =       178.56647106
  PAW double counting   =      5253.29881713    -5683.42002688
  entropy T*S    EENTRO =        -0.02916743
  eigenvalues    EBANDS =       193.44641247
  atomic energy  EATOM  =      5563.65721665
  Solvation  Ediel_sol  =         0.00000000
  ---------------------------------------------------
  free energy    TOTEN  =       -14.70502461 eV

  energy without entropy =      -14.67585718  energy(sigma->0) =      -14.69530213


--------------------------------------------------------------------------------------------------------




--------------------------------------- Iteration      1(  13)  ---------------------------------------


    POTLOK:  cpu time    0.0069: real time    0.0069
    SETDIJ:  cpu time    0.0037: real time    0.0037
     EDDAV:  cpu time    0.0727: real time    0.0727
       DOS:  cpu time    0.0008: real time    0.0008
    --------------------------------------------
      LOOP:  cpu time    0.0841: real time    0.0841

 eigenvalue-minimisations  :   330
 total energy-change (2. order) :-0.4907652E-06  (-0.2352643E-07)
 number of electron      44.0001188 magnetization 
 augmentation part       28.0405634 magnetization 

 Free energy of the ion-electron system (eV)
  ---------------------------------------------------
  alpha Z        PSCENC =       243.62337785
  Ewald energy   TEWEN  =     -4395.34838493
  -Hartree energ DENC   =     -1368.49513911
  -exchange      EXHF   =         0.00000000
  -V(xc)+E(xc)   XCENC  =       178.56617436
  PAW double counting   =      5253.17497762    -5683.29704762
  entropy T*S    EENTRO =        -0.02916336
  eigenvalues    EBANDS =       193.44296347
  atomic energy  EATOM  =      5563.65721665
  Solvation  Ediel_sol  =         0.00000000
  ---------------------------------------------------
  free energy    TOTEN  =       -14.70502510 eV

  energy without entropy =      -14.67586174  energy(sigma->0) =      -14.69530398


--------------------------------------------------------------------------------------------------------




 average (electrostatic) potential at core
  the test charge radii are     0.9430
  (the norm of the test charge is              1.0000)
       1 -63.8728       2 -63.8728       3 -63.8728       4 -63.8728
 
 
 
 E-fermi :   7.2377     XC(G=0): -12.6234     alpha+bet :-13.2037

 Fermi energy:         7.2376724379

 k-point     1 :       0.0000    0.0000    0.0000
  band No.  band energies     occupation 
      1      -1.8412      2.00000
      2       2.6081      2.00000
      3       2.6081      2.00000
      4       2.6081      2.00000
      5       3.0426      2.00000
      6       3.0426      2.00000
      7       3.0426      2.00000
      8       4.3981      2.00000
      9       4.3981      2.00000
     10       4.3981      2.00000
     11       5.2036      2.00000
     12       5.2036      2.00000
     13       5.7450      2.00000
     14       5.7450      2.00000
     15       5.7450      2.00000
     16       5.8969      2.00000
     17       5.8969      2.00000
     18       5.8969      2.00000
     19       5.8969      2.00000
     20       5.8969      2.00000
     21       5.8969      2.00000
     22       8.8966     -0.00000
     23       8.8966     -0.00000
     24       8.8966     -0.00000
     25      14.3768      0.00000
     26      14.3768      0.00000
     27      14.3768      0.00000
     28      20.3391      0.00000
     29      20.3391      0.00000
     30      20.3391      0.00000

 k-point     2 :       0.2000    0.0000    0.0000
  band No.  band energies     occupation 
      1      -1.3644      2.00000
      2       2.5547      2.00000
      3       2.8172      2.00000
      4       2.8172      2.00000
      5       3.1652      2.00000
      6       3.1764      2.00000
      7       3.1764      2.00000
      8       4.2701      2.00000
      9       4.5173      2.00000
     10       4.5173      2.00000
     11       5.0892      2.00000
     12       5.2508      2.00000
     13       5.2508      2.00000
     14       5.2573      2.00000
     15       5.5825      2.00000
     16       5.5825      2.00000
     17       5.6872      2.00000
     18       5.7039      2.00000
     19       5.7039      2.00000
     20       5.8975      2.00000
     21       5.8975      2.00000
     22       6.8308      2.01430
     23       9.9707     -0.00000
     24       9.9707     -0.00000
     25      14.5620      0.00000
     26      14.5620      0.00000
     27      17.4230      0.00000
     28      18.0901      0.00000
     29      18.0901      0.00000
     30      18.7547      0.00000

 k-point     3 :       0.4000    0.0000    0.0000
  band No.  band energies     occupation 
      1      -0.0088      2.00000
      2       1.7665      2.00000
      3       3.2370      2.00000
      4       3.2370      2.00000
      5       3.4941      2.00000
      6       3.5900      2.00000
      7       3.5900      2.00000
      8       3.9199      2.00000
      9       4.3013      2.00000
     10       4.3013      2.00000
     11       4.8173      2.00000
     12       4.8290      2.00000
     13       4.8290      2.00000
     14       4.9443      2.00000
     15       5.2432      2.00000
     16       5.2432      2.00000
     17       5.2757      2.00000
     18       5.2757      2.00000
     19       5.3873      2.00000
     20       5.5517      2.00000
     21       5.8977      2.00000
     22       5.8977      2.00000
     23      12.1922     -0.00000
     24      12.1922     -0.00000
     25      14.9669      0.00000
     26      14.9669      0.00000
     27      15.2021      0.00000
     28      15.2021      0.00000
     29      16.6372      0.00000
     30      16.6372      0.00000

 k-point     4 :       0.2000    0.2000    0.0000
  band No.  band energies     occupation 
      1      -0.8998      2.00000
      2       2.7978      2.00000
      3       2.7978      2.00000
      4       2.9941      2.00000
      5       3.2823      2.00000
      6       3.2852      2.00000
      7       3.2852      2.00000
      8       4.2119      2.00000
      9       4.5560      2.00000
     10       4.5619      2.00000
     11       4.9247      2.00000
     12       4.9247      2.00000
     13       4.9393      2.00000
     14       5.0722      2.00000
     15       5.2767      2.00000
     16       5.4539      2.00000
     17       5.5751      2.00000
     18       5.5751      2.00000
     19       5.7053      2.00000
     20       5.7053      2.00000
     21       5.7690      2.00000
     22       7.8487     -0.00014
     23       7.8487     -0.00014
     24      10.8355     -0.00000
     25      14.5188      0.00000
     26      14.9902      0.00000
     27      17.7548      0.00000
     28      17.7548      0.00000
     29      18.6772      0.00000
     30      18.6772      0.00000

 k-point     5 :       0.4000    0.2000    0.0000
  band No.  band energies     occupation 
      1       0.4119      2.00000
      2       2.0972      2.00000
      3       3.3207      2.00000
      4       3.3992      2.00000
      5       3.5486      2.00000
      6       3.5748      2.00000
      7       3.6539      2.00000
      8       3.9327      2.00000
      9       4.0754      2.00000
     10       4.2533      2.00000
     11       4.4521      2.00000
     12       4.5524      2.00000
     13       4.8380      2.00000
     14       5.0006      2.00000
     15       5.1873      2.00000
     16       5.2464      2.00000
     17       5.2773      2.00000
     18       5.3340      2.00000
     19       5.5188      2.00000
     20       5.7039      2.00000
     21       5.7075      2.00000
     22       6.0545      2.00000
     23       9.5486     -0.00000
     24      11.7494     -0.00000
     25      12.8715      0.00000
     26      15.5567      0.00000
     27      15.5620      0.00000
     28      17.0298      0.00000
     29      18.8428      0.00000
     30      20.2831      0.00000

 k-point     6 :       0.4000    0.4000    0.0000
  band No.  band energies     occupation 
      1       1.5512      2.00000
      2       2.8641      2.00000
      3       2.8641      2.00000
      4       3.3734      2.00000
      5       3.7881      2.00000
      6       3.7937      2.00000
      7       3.7937      2.00000
      8       3.9161      2.00000
      9       4.0563      2.00000
     10       4.0563      2.00000
     11       4.0689      2.00000
     12       4.3851      2.00000
     13       4.8724      2.00000
     14       4.9604      2.00000
     15       5.0054      2.00000
     16       5.0598      2.00000
     17       5.0598      2.00000
     18       5.2993      2.00000
     19       5.2993      2.00000
     20       5.4292      2.00000
     21       6.0517      2.00000
     22       7.1397      1.72915
     23       7.1397      1.72915
     24       8.8987     -0.00000
     25      14.6518      0.00000
     26      16.5204      0.00000
     27      17.1867      0.00000
     28      17.1867      0.00000
     29      18.2886      0.00000
     30      18.2886      0.00000

 k-point     7 :       0.2000    0.2000    0.2000
  band No.  band energies     occupation 
      1      -0.4535      2.00000
      2       2.9712      2.00000
      3       2.9712      2.00000
      4       2.9712      2.00000
      5       3.3930      2.00000
      6       3.3930      2.00000
      7       3.3930      2.00000
      8       4.1837      2.00000
      9       4.5589      2.00000
     10       4.5589      2.00000
     11       4.6916      2.00000
     12       4.6916      2.00000
     13       4.6916      2.00000
     14       5.2049      2.00000
     15       5.2049      2.00000
     16       5.2428      2.00000
     17       5.2428      2.00000
     18       5.2428      2.00000
     19       5.8105      2.00000
     20       5.8105      2.00000
     21       5.8105      2.00000
     22       8.4807     -0.00000
     23       8.4807     -0.00000
     24       8.4807     -0.00000
     25      15.2997      0.00000
     26      15.2997      0.00000
     27      15.2997      0.00000
     28      18.1211      0.00000
     29      18.1211      0.00000
     30      18.1211      0.00000

 k-point     8 :       0.4000    0.2000    0.2000
  band No.  band energies     occupation 
      1       0.7884      2.00000
      2       2.3215      2.00000
      3       3.2996      2.00000
      4       3.2996      2.00000
      5       3.6430      2.00000
      6       3.6430      2.00000
      7       3.6975      2.00000
      8       4.0110      2.00000
      9       4.2458      2.00000
     10       4.2458      2.00000
     11       4.3633      2.00000
     12       4.5125      2.00000
     13       4.6559      2.00000
     14       4.9040      2.00000
     15       5.0350      2.00000
     16       5.0350      2.00000
     17       5.3064      2.00000
     18       5.4797      2.00000
     19       5.7183      2.00000
     20       5.7267      2.00000
     21       5.7267      2.00000
     22       6.2426      2.00000
     23       9.8434     -0.00000
     24       9.8434     -0.00000
     25      12.4996     -0.00000
     26      12.4996     -0.00000
     27      16.8328      0.00000
     28      19.1408      0.00000
     29      19.2211      0.00000
     30      19.2211      0.00000

 k-point     9 :       0.4000    0.4000    0.2000
  band No.  band energies     occupation 
      1       1.7462      2.00000
      2       2.7293      2.00000
      3       2.7293      2.00000
      4       3.0423      2.00000
      5       3.9441      2.00000
      6       4.0442      2.00000
      7       4.0442      2.00000
      8       4.1957      2.00000
      9       4.2703      2.00000
     10       4.2703      2.00000
     11       4.4135      2.00000
     12       4.4152      2.00000
     13       4.5743      2.00000
     14       4.7430      2.00000
     15       4.7430      2.00000
     16       4.7610      2.00000
     17       5.3262      2.00000
     18       5.6063      2.00000
     19       5.6063      2.00000
     20       5.6243      2.00000
     21       5.9324      2.00000
     22       7.1737      1.51184
     23       7.1737      1.51184
     24       8.8272     -0.00000
     25      11.9344     -0.00000
     26      13.9041      0.00000
     27      13.9041      0.00000
     28      16.1306      0.00000
     29      20.4259      0.00000
     30      22.4078      0.00000

 k-point    10 :       0.4000    0.4000    0.4000
  band No.  band energies     occupation 
      1       2.1480      2.00000
      2       2.5696      2.00000
      3       2.5696      2.00000
      4       2.5696      2.00000
      5       4.2482      2.00000
      6       4.2482      2.00000
      7       4.2482      2.00000
      8       4.4154      2.00000
      9       4.4154      2.00000
     10       4.4876      2.00000
     11       4.4876      2.00000
     12       4.4876      2.00000
     13       4.9579      2.00000
     14       4.9579      2.00000
     15       4.9579      2.00000
     16       5.1834      2.00000
     17       5.6512      2.00000
     18       5.6512      2.00000
     19       5.7651      2.00000
     20       5.7651      2.00000
     21       5.7651      2.00000
     22       7.2787      0.66041
     23       7.2787      0.66041
     24       7.2787      0.66041
     25      11.4811     -0.00000
     26      11.4811     -0.00000
     27      11.4811     -0.00000
     28      13.2451      0.00000
     29      25.6846      0.00000
     30      25.6846      0.00000


--------------------------------------------------------------------------------------------------------


 soft charge-density along one line, spin component           1
         0         1         2         3         4         5         6         7         8         9
x    15.9596    0.0000   -0.0000    0.0000    0.7495    0.0000   -0.0000    0.0000   -0.4120   -0.0000
x    -0.0000    0.0000    0.0559   -0.0000    0.0000    0.0000    0.0000    0.0000
y    15.9596    0.0000   -0.0000    0.0000    0.7495    0.0000   -0.0000    0.0000   -0.4120   -0.0000
y    -0.0000    0.0000    0.0559   -0.0000    0.0000    0.0000    0.0000    0.0000
z    15.9596    0.0000   -0.0000    0.0000    0.7495    0.0000   -0.0000    0.0000   -0.4120   -0.0000
z    -0.0000    0.0000    0.0559   -0.0000    0.0000    0.0000    0.0000    0.0000
 total charge-density along one line
x    44.0001    0.0000    0.0000    0.0000   18.8552   -0.0000   -0.0000   -0.0000    3.5771    0.0000
x    -0.0000    0.0000   -0.0045    0.0000    0.0000    0.0000    0.0234    0.0000    0.0000    0.0000
x    -0.0073    0.0000    0.0000    0.0000    0.0032    0.0000    0.0000   -0.0000   -0.0019   -0.0000
x     0.0000    0.0000    0.0018    0.0000
y    44.0001    0.0000    0.0000    0.0000   18.8552    0.0000    0.0000    0.0000    3.5771   -0.0000
y     0.0000   -0.0000   -0.0045   -0.0000   -0.0000   -0.0000    0.0234   -0.0000   -0.0000   -0.0000
y    -0.0073    0.0000   -0.0000   -0.0000    0.0032   -0.0000   -0.0000   -0.0000   -0.0019    0.0000
y     0.0000   -0.0000    0.0018    0.0000
z    44.0001    0.0000    0.0000   -0.0000   18.8552    0.0000    0.0000   -0.0000    3.5771    0.0000
z    -0.0000   -0.0000   -0.0045   -0.0000    0.0000    0.0000    0.0234   -0.0000    0.0000    0.0000
z    -0.0073    0.0000   -0.0000   -0.0000    0.0032   -0.0000    0.0000    0.0000   -0.0019    0.0000
z     0.0000    0.0000    0.0018    0.0000
 
 pseudopotential strength for first ion, spin component:           1
 -3.040  -0.000   0.000   0.000   0.000  -4.612   0.000  -0.000
 -0.000  -3.040   0.000  -0.000  -0.000   0.000  -4.612  -0.000
  0.000   0.000  -3.024  -0.000  -0.000  -0.000  -0.000  -4.623
  0.000  -0.000  -0.000  -3.040  -0.000  -0.000   0.000   0.000
  0.000  -0.000  -0.000  -0.000  -3.024  -0.000   0.000   0.000
 -4.612   0.000  -0.000  -0.000  -0.000  10.209  -0.000   0.000
  0.000  -4.612  -0.000   0.000   0.000  -0.000  10.209   0.000
 -0.000  -0.000  -4.623   0.000   0.000   0.000   0.000  10.217
 -0.000   0.000   0.000  -4.612   0.000   0.000  -0.000  -0.000
 -0.000   0.000   0.000   0.000  -4.623   0.000  -0.000  -0.000
  0.000  -0.000   0.000   0.000  -0.000   0.000  -0.000  -0.000
  0.000  -0.000   0.000   0.000  -0.000   0.000  -0.000  -0.000
  0.000   0.000   0.000   0.000   0.000  -0.000  -0.000  -0.000
  0.000  -0.000   0.000   0.000   0.000   0.000  -0.000   0.000
 -0.000   0.000  -0.000   0.000   0.000   0.000   0.000   0.000
  0.000   0.000   0.000  -0.000   0.000  -0.000  -0.000  -0.000
 -0.000  -0.000   0.000   0.000  -0.000   0.000  -0.000   0.000
 -0.000  -0.000  -0.000   0.000   0.000   0.000   0.000   0.000
 total augmentation occupancy for first ion, spin component:           1
  1.914  -0.000   0.000   0.000  -0.000  -0.011  -0.000   0.000  -0.000   0.000   0.000  -0.000   0.000  -0.000   0.000  -0.000
 -0.000   1.914  -0.000   0.000  -0.000   0.000  -0.011  -0.000  -0.000  -0.000   0.000  -0.000   0.000   0.000  -0.000   0.000
 -0.000   0.000   1.932   0.000   0.000   0.000   0.000  -0.029   0.000  -0.000  -0.000   0.000  -0.000   0.000   0.000  -0.000
  0.000   0.000  -0.000   1.914   0.000   0.000  -0.000  -0.000  -0.011  -0.000  -0.000  -0.000  -0.000  -0.000   0.000   0.000
 -0.000   0.000   0.000  -0.000   1.932   0.000  -0.000  -0.000  -0.000  -0.029   0.000   0.000  -0.000  -0.000  -0.000   0.000
 -0.011   0.000   0.000  -0.000  -0.000   0.017   0.000   0.000   0.000  -0.000  -0.000   0.000   0.000   0.000  -0.000   0.000
 -0.000  -0.011  -0.000  -0.000  -0.000   0.000   0.017  -0.000   0.000   0.000  -0.000  -0.000  -0.000  -0.000  -0.000   0.000
 -0.000  -0.000  -0.029  -0.000   0.000   0.000  -0.000   0.016   0.000   0.000  -0.000  -0.000  -0.000   0.000   0.000  -0.000
 -0.000  -0.000  -0.000  -0.011   0.000   0.000   0.000   0.000   0.017  -0.000   0.000   0.000   0.000   0.000   0.000  -0.000
  0.000  -0.000   0.000   0.000  -0.029  -0.000   0.000  -0.000  -0.000   0.016   0.000   0.000  -0.000  -0.000   0.000   0.000
  0.000   0.000  -0.000   0.000   0.000   0.000  -0.000  -0.000   0.000   0.000   1.773  -0.169   0.000   0.000   0.000   0.000
  0.000   0.000   0.000   0.000  -0.000   0.000  -0.000  -0.000   0.000  -0.000  -0.169   0.022   0.000   0.000   0.000   0.000
  0.000   0.000  -0.000  -0.000   0.000   0.000  -0.000  -0.000   0.000   0.000   0.000   0.000   0.228   0.000   0.000  -0.015
 -0.000   0.000  -0.000  -0.000   0.000   0.000  -0.000   0.000   0.000   0.000   0.000   0.000   0.000   0.228  -0.000   0.000
  0.000  -0.000   0.000   0.000  -0.000  -0.000  -0.000  -0.000   0.000  -0.000   0.000   0.000   0.000   0.000   0.228   0.000
  0.000  -0.000   0.000  -0.000   0.000  -0.000   0.000   0.000  -0.000  -0.000   0.000   0.000  -0.015   0.000  -0.000   0.001
  0.000   0.000   0.000   0.000   0.000  -0.000   0.000   0.000  -0.000   0.000   0.000   0.000  -0.000  -0.015  -0.000  -0.000
 -0.000   0.000   0.000   0.000   0.000   0.000   0.000   0.000  -0.000   0.000   0.000   0.000   0.000   0.000  -0.015   0.000


------------------------ aborting loop because EDIFF is reached ----------------------------------------


    CHARGE:  cpu time    0.0101: real time    0.0101
    FORLOC:  cpu time    0.0006: real time    0.0006
    FORNL :  cpu time    0.0353: real time    0.0353
    STRESS:  cpu time    0.0480: real time    0.0480
    FORCOR:  cpu time    0.0073: real time    0.0073
    FORHAR:  cpu time    0.0017: real time    0.0017
    MIXING:  cpu time    0.0004: real time    0.0004

  FORCE on cell =-STRESS in cart. coord.  units (eV):
  Direction    XX          YY          ZZ          XY          YZ          ZX
  --------------------------------------------------------------------------------------
  Alpha Z   243.62338   243.62338   243.62338
  Ewald   -1465.11677 -1465.11677 -1465.11677     0.00000     0.00000     0.00000
  Hartree   456.16468   456.16468   456.16468    -0.00000    -0.00000    -0.00000
  E(xc)    -257.29022  -257.29022  -257.29022    -0.00000     0.00000    -0.00000
  Local     368.85915   368.85915   368.85915     0.00000     0.00000     0.00000
  n-local   -83.30306   -90.36629   -93.00598     0.36175     2.24811     1.39465
  augment   379.18842   379.18842   379.18842     0.00000    -0.00000     0.00000
  Kinetic   367.45262   360.75295   354.37385    -3.86968    -0.34151    -0.89174
  Fock        0.00000     0.00000     0.00000     0.00000     0.00000     0.00000
  -------------------------------------------------------------------------------------
  Total      -2.60333    -2.60333    -2.60333    -0.00000    -0.00000    -0.00000
  in kB     -86.84136   -86.84136   -86.84136    -0.00000    -0.00000    -0.00000
  external pressure =      -86.84 kB  Pullay stress =        0.00 kB


 VOLUME and BASIS-vectors are now :
 -----------------------------------------------------------------------------
  energy-cutoff  :      280.00
  volume of cell :       48.03
      direct lattice vectors                 reciprocal lattice vectors
     3.635000000  0.000000000  0.000000000     0.275103164  0.000000000  0.000000000
     0.000000000  3.635000000  0.000000000     0.000000000  0.275103164  0.000000000
     0.000000000  0.000000000  3.635000000     0.000000000  0.000000000  0.275103164

  length of vectors
     3.635000000  3.635000000  3.635000000     0.275103164  0.275103164  0.275103164


 FORCES acting on ions
    electron-ion (+dipol)            ewald-force                    non-local-force                 convergence-correction
 -----------------------------------------------------------------------------------------------
   -.590E-13 0.264E-13 0.161E-13   0.103E-13 0.597E-14 -.166E-13   0.859E-23 -.930E-24 0.122E-22   -.115E-12 0.754E-14 0.245E-13
   0.188E-12 0.294E-12 0.160E-13   0.175E-13 0.141E-13 -.168E-13   -.491E-23 -.832E-23 0.499E-23   -.875E-13 0.117E-14 0.679E-14
   0.194E-12 0.223E-13 0.286E-12   -.529E-14 -.138E-13 0.159E-13   0.214E-22 -.212E-22 0.306E-22   -.758E-13 0.398E-13 -.179E-13
   -.713E-13 0.290E-12 0.285E-12   -.204E-13 -.566E-14 0.157E-13   0.864E-23 0.648E-23 0.195E-22   -.838E-13 0.330E-13 -.223E-13
 -----------------------------------------------------------------------------------------------
   0.251E-12 0.633E-12 0.603E-12   0.207E-14 0.619E-15 -.180E-14   0.338E-22 -.240E-22 0.674E-22   -.362E-12 0.815E-13 -.885E-14
 
 
 POSITION                                       TOTAL-FORCE (eV/Angst)
 -----------------------------------------------------------------------------------
      0.00000      0.00000      0.00000        -0.000000      0.000000      0.000000
      1.81750      1.81750      0.00000        -0.000000      0.000000     -0.000000
      1.81750      0.00000      1.81750         0.000000     -0.000000      0.000000
      0.00000      1.81750      1.81750         0.000000      0.000000     -0.000000
 -----------------------------------------------------------------------------------
    total drift:                               -0.000000      0.000000      0.000000


--------------------------------------------------------------------------------------------------------



  FREE ENERGIE OF THE ION-ELECTRON SYSTEM (eV)
  ---------------------------------------------------
  free  energy   TOTEN  =       -14.70502510 eV

  energy  without entropy=      -14.67586174  energy(sigma->0) =      -14.69530398
 


--------------------------------------------------------------------------------------------------------


    POTLOK:  cpu time    0.0107: real time    0.0107


--------------------------------------------------------------------------------------------------------


 writing wavefunctions
     LOOP+:  cpu time    1.8411: real time    1.8596
    4ORBIT:  cpu time    0.0000: real time    0.0000

 total amount of memory used by VASP MPI-rank0    35497. kBytes
=======================================================================

   base      :      30000. kBytes
   nonl-proj :        783. kBytes
   grid      :       1806. kBytes
   one-center:         62. kBytes
   wavefun   :       2846. kBytes
 
  
  
 General timing and accounting informations for this job:
 ========================================================
  
                  Total CPU time used (sec):        1.963
                            User time (sec):        1.931
                          System time (sec):        0.032
                         Elapsed time (sec):        1.970
  
                   Maximum memory used (kb):       41364.
                   Average memory used (kb):          N/A
  
                          Minor page faults:         3981
                          Major page faults:            0
                 Voluntary context switches:           26
