 vasp.6.2.0 18Jan21 (build Mar 17 2021 09:06:54) complex                        
  
 POSCAR found type information on POSCAR Cu
 POSCAR found :  1 types and       4 ions
 LDA part: xc-table for Pade appr. of Perdew
 POSCAR, INCAR and KPOINTS ok, starting setup
 FFT: planning ...
 WAVECAR not read
 WARNING: chargedensity file is incomplete
 entering main loop
       N       E                     dE             d eps       ncg     rms          rms(c)
DAV:   1     0.276878103231E+03    0.27688E+03   -0.13461E+04   624   0.160E+03
DAV:   2     0.182982643485E+01   -0.27505E+03   -0.26486E+03   600   0.324E+02
DAV:   3    -0.180435478961E+02   -0.19873E+02   -0.19036E+02   660   0.124E+02
DAV:   4    -0.183999851045E+02   -0.35644E+00   -0.35610E+00   684   0.221E+01
DAV:   5    -0.184046877482E+02   -0.47026E-02   -0.47026E-02   708   0.244E+00    0.154E+01
DAV:   6    -0.162641743842E+02    0.21405E+01   -0.30172E+01   660   0.105E+02    0.821E+00
DAV:   7    -0.147438758392E+02    0.15203E+01   -0.57635E+00   672   0.441E+01    0.104E+00
DAV:   8    -0.147126143780E+02    0.31261E-01   -0.59200E-02   676   0.227E+00    0.662E-01
DAV:   9    -0.147049541039E+02    0.76603E-02   -0.14295E-02   672   0.228E+00    0.550E-02
DAV:  10    -0.147050308546E+02   -0.76751E-04   -0.82438E-04   802   0.384E-01    0.261E-02
DAV:  11    -0.147050227898E+02    0.80648E-05   -0.46287E-05   684   0.107E-01    0.122E-03
DAV:  12    -0.147050246117E+02   -0.18219E-05   -0.44408E-06   544   0.215E-02    0.130E-03
DAV:  13    -0.147050251024E+02   -0.49077E-06   -0.23526E-07   330   0.617E-03
   1 F= -.14705025E+02 E0= -.14695304E+02  d E =-.291634E-01
 writing wavefunctions
