unknown system                          
   1.00000000000000     
     3.866000    0.000000    0.000000
     0.000000    3.866000    0.000000
     0.000000    0.000000    3.866000
   Pd   Ir   Pt   Cu
     1     1     1     1
Direct
  0.000000  0.000000  0.000000
  0.500000  0.500000  0.000000
  0.500000  0.000000  0.500000
  0.000000  0.500000  0.500000
 
   32   32   32
  359.54      343.05      300.74      247.66      194.91      145.54      100.18      62.573      37.405      24.330    
  17.380      13.237      11.004      9.9581      9.3907      8.9164      8.6938      8.9164      9.3907      9.9581    
  11.004      13.237      17.380      24.330      37.405      62.573      100.18      145.54      194.91      247.66    
  300.74      343.05      343.18      327.53      287.30      236.63      186.09      138.77      95.498      59.888    
  36.231      23.931      17.256      13.278      11.131      10.121      9.5710      9.1152      8.9024      9.1152    
  9.5710      10.121      11.131      13.278      17.256      23.931      36.231      59.888      95.498      138.77    
  186.09      236.63      287.30      327.53      300.59      287.06      252.07      207.55      162.72      120.82    
  83.149      52.883      33.201      22.875      16.939      13.417      11.514      10.608      10.113      9.7132    
  9.5291      9.7132      10.113      10.608      11.514      13.417      16.939      22.875      33.201      52.883    
  83.149      120.82      162.72      207.55      252.07      287.06      245.86      234.89      206.28      169.38    
  131.90      97.274      67.187      44.028      29.445      21.477      16.592      13.732      12.201      11.478    
  11.093      10.793      10.657      10.793      11.093      11.478      12.201      13.732      16.592      21.477    
  29.445      44.028      67.187      97.274      131.90      169.38      206.28      234.89      190.56      182.00    
  159.53      130.25      100.51      73.773      51.741      35.768      25.991      20.115      16.455      14.396    
  13.363      12.940      12.770      12.644      12.583      12.644      12.770      12.940      13.363      14.396    
  16.455      20.115      25.991      35.768      51.741      73.773      100.51      130.25      159.53      182.00    
  139.55      133.21      116.49      94.666      72.792      53.905      39.342      29.436      23.240      19.163    
  16.806      15.668      15.301      15.375      15.600      15.770      15.826      15.770      15.600      15.375    
  15.301      15.668      16.806      19.163      23.240      29.436      39.342      53.905      72.792      94.666    
  116.49      133.21      94.749      90.507      79.337      64.874      50.724      39.081      30.662      25.071    
  21.231      18.915      17.917      17.853      18.387      19.234      20.122      20.791      21.038      20.791    
  20.122      19.234      18.387      17.853      17.917      18.915      21.231      25.071      30.662      39.081    
  50.724      64.874      79.337      90.507      59.221      56.843      50.624      42.699      35.177      29.243    
  25.023      22.001      20.177      19.575      20.008      21.212      23.031      25.277      27.535      29.232    
  29.866      29.232      27.535      25.277      23.031      21.212      20.008      19.575      20.177      22.001    
  25.023      29.243      35.177      42.699      50.624      56.843      35.892      34.860      32.181      28.817    
  25.657      23.078      21.157      20.143      20.172      21.227      23.214      26.216      30.198      34.788    
  39.225      42.495      43.704      42.495      39.225      34.788      30.198      26.216      23.214      21.227    
  20.172      20.143      21.157      23.078      25.657      28.817      32.181      34.860      23.517      23.168    
  22.243      21.009      19.798      18.957      18.777      19.474      21.157      23.876      27.914      33.410    
  40.171      47.570      54.489      59.493      61.329      59.493      54.489      47.570      40.171      33.410    
  27.914      23.876      21.157      19.474      18.777      18.957      19.798      21.009      22.243      23.168    
  16.670      16.574      16.333      16.087      16.053      16.488      17.655      19.774      22.993      27.725    
  34.265      42.485      51.921      61.756      70.696      77.081      79.413      77.081      70.696      61.756    
  51.921      42.485      34.265      27.725      22.993      19.774      17.655      16.488      16.053      16.087    
  16.333      16.574      12.476      12.534      12.723      13.111      13.853      15.191      17.412      20.767    
  25.697      32.790      41.968      52.622      64.009      75.333      85.437      92.644      95.285      92.644    
  85.437      75.333      64.009      52.622      41.968      32.790      25.697      20.767      17.412      15.191    
  13.853      13.111      12.723      12.534      10.126      10.266      10.687      11.432      12.657      14.640    
  17.726      22.283      29.183      38.828      50.540      63.129      75.695      87.768      98.566      106.42    
  109.34      106.42      98.566      87.768      75.695      63.129      50.540      38.828      29.183      22.283    
  17.726      14.640      12.657      11.432      10.687      10.266      8.9453      9.1188      9.6384      10.557    
  12.070      14.525      18.329      24.144      33.125      45.313      59.351      73.517      86.978      99.823    
  111.69      120.67      124.09      120.67      111.69      99.823      86.978      73.517      59.351      45.313    
  33.125      24.144      18.329      14.525      12.070      10.557      9.6384      9.1188      8.2652      8.4546    
  9.0248      10.047      11.760      14.581      18.989      26.006      36.899      51.345      67.388      82.947    
  97.436      111.57      125.27      136.04      140.22      136.04      125.27      111.57      97.436      82.947    
  67.388      51.345      36.899      26.006      18.989      14.581      11.760      10.047      9.0248      8.4546    
  7.7270      7.9333      8.5546      9.6695      11.544      14.636      19.491      27.402      39.673      55.717    
  73.189      89.831      105.33      120.89      136.51      149.11      154.05      149.11      136.51      120.89    
  105.33      89.831      73.189      55.717      39.673      27.402      19.491      14.636      11.544      9.6695    
  8.5546      7.9333      7.4861      7.7015      8.3492      9.5086      11.453      14.651      19.677      27.922    
  40.698      57.326      75.325      92.390      108.33      124.52      140.99      154.36      159.62      154.36    
  140.99      124.52      108.33      92.390      75.325      57.326      40.698      27.922      19.677      14.651    
  11.453      9.5086      8.3492      7.7015      7.7270      7.9333      8.5546      9.6695      11.544      14.636    
  19.491      27.402      39.673      55.717      73.189      89.831      105.33      120.89      136.51      149.11    
  154.05      149.11      136.51      120.89      105.33      89.831      73.189      55.717      39.673      27.402    
  19.491      14.636      11.544      9.6695      8.5546      7.9333      8.2652      8.4546      9.0248      10.047    
  11.760      14.581      18.989      26.006      36.899      51.345      67.388      82.947      97.436      111.57    
  125.27      136.04      140.22      136.04      125.27      111.57      97.436      82.947      67.388      51.345    
  36.899      26.006      18.989      14.581      11.760      10.047      9.0248      8.4546      8.9453      9.1188    
  9.6384      10.557      12.070      14.525      18.329      24.144      33.125      45.313      59.351      73.517    
  86.978      99.823      111.69      120.67      124.09      120.67      111.69      99.823      86.978      73.517    
  59.351      45.313      33.125      24.144      18.329      14.525      12.070      10.557      9.6384      9.1188    
  10.126      10.266      10.687      11.432      12.657      14.640      17.726      22.283      29.183      38.828    
  50.540      63.129      75.695      87.768      98.566      106.42      109.34      106.42      98.566      87.768    
  75.695      63.129      50.540      38.828      29.183      22.283      17.726      14.640      12.657      11.432    
  10.687      10.266      12.476      12.534      12.723      13.111      13.853      15.191      17.412      20.767    
  25.697      32.790      41.968      52.622      64.009      75.333      85.437      92.644      95.285      92.644    
  85.437      75.333      64.009      52.622      41.968      32.790      25.697      20.767      17.412      15.191    
  13.853      13.111      12.723      12.534      16.670      16.574      16.333      16.087      16.053      16.488    
  17.655      19.774      22.993      27.725      34.265      42.485      51.921      61.756      70.696      77.081    
  79.413      77.081      70.696      61.756      51.921      42.485      34.265      27.725      22.993      19.774    
  17.655      16.488      16.053      16.087      16.333      16.574      23.517      23.168      22.243      21.009    
  19.798      18.957      18.777      19.474      21.157      23.876      27.914      33.410      40.171      47.570    
  54.489      59.493      61.329      59.493      54.489      47.570      40.171      33.410      27.914      23.876    
  21.157      19.474      18.777      18.957      19.798      21.009      22.243      23.168      35.892      34.860    
  32.181      28.817      25.657      23.078      21.157      20.143      20.172      21.227      23.214      26.216    
  30.198      34.788      39.225      42.495      43.704      42.495      39.225      34.788      30.198      26.216    
  23.214      21.227      20.172      20.143      21.157      23.078      25.657      28.817      32.181      34.860    
  59.221      56.843      50.624      42.699      35.177      29.243      25.023      22.001      20.177      19.575    
  20.008      21.212      23.031      25.277      27.535      29.232      29.866      29.232      27.535      25.277    
  23.031      21.212      20.008      19.575      20.177      22.001      25.023      29.243      35.177      42.699    
  50.624      56.843      94.749      90.507      79.337      64.874      50.724      39.081      30.662      25.071    
  21.231      18.915      17.917      17.853      18.387      19.234      20.122      20.791      21.038      20.791    
  20.122      19.234      18.387      17.853      17.917      18.915      21.231      25.071      30.662      39.081    
  50.724      64.874      79.337      90.507      139.55      133.21      116.49      94.666      72.792      53.905    
  39.342      29.436      23.240      19.163      16.806      15.668      15.301      15.375      15.600      15.770    
  15.826      15.770      15.600      15.375      15.301      15.668      16.806      19.163      23.240      29.436    
  39.342      53.905      72.792      94.666      116.49      133.21      190.56      182.00      159.53      130.25    
  100.51      73.773      51.741      35.768      25.991      20.115      16.455      14.396      13.363      12.940    
  12.770      12.644      12.583      12.644      12.770      12.940      13.363      14.396      16.455      20.115    
  25.991      35.768      51.741      73.773      100.51      130.25      159.53      182.00      245.86      234.89    
  206.28      169.38      131.90      97.274      67.187      44.028      29.445      21.477      16.592      13.732    
  12.201      11.478      11.093      10.793      10.657      10.793      11.093      11.478      12.201      13.732    
  16.592      21.477      29.445      44.028      67.187      97.274      131.90      169.38      206.28      234.89    
  300.59      287.06      252.07      207.55      162.72      120.82      83.149      52.883      33.201      22.875    
  16.939      13.417      11.514      10.608      10.113      9.7132      9.5291      9.7132      10.113      10.608    
  11.514      13.417      16.939      22.875      33.201      52.883      83.149      120.82      162.72      207.55    
  252.07      287.06      343.18      327.53      287.30      236.63      186.09      138.77      95.498      59.888    
  36.231      23.931      17.256      13.278      11.131      10.121      9.5710      9.1152      8.9024      9.1152    
  9.5710      10.121      11.131      13.278      17.256      23.931      36.231      59.888      95.498      138.77    
  186.09      236.63      287.30      327.53      343.44      327.85      287.76      237.19      186.62      139.16    
  95.710      59.964      36.239      23.921      17.248      13.278      11.142      10.142      9.6011      9.1516    
  8.9412      9.1516      9.6011      10.142      11.142      13.278      17.248      23.921      36.239      59.964    
  95.710      139.16      186.62      237.19      287.76      327.85      328.37      313.53      275.30      226.90    
  178.34      132.79      91.303      57.447      35.141      23.540      17.128      13.317      11.264      10.299    
  9.7752      9.3436      9.1427      9.3436      9.7752      10.299      11.264      13.317      17.128      23.540    
  35.141      57.447      91.303      132.79      178.34      226.90      275.30      313.53      288.91      275.98    
  242.48      199.66      156.34      115.85      79.674      50.875      32.304      22.526      16.822      13.450    
  11.633      10.769      10.299      9.9212      9.7478      9.9212      10.299      10.769      11.633      13.450    
  16.822      22.526      32.304      50.875      79.674      115.85      156.34      199.66      242.48      275.98    
  237.58      226.99      199.34      163.56      127.12      93.551      64.607      42.555      28.774      21.174    
  16.486      13.753      12.295      11.608      11.245      10.964      10.837      10.964      11.245      11.608    
  12.295      13.753      16.486      21.174      28.774      42.555      64.607      93.551      127.12      163.56    
  199.34      226.99      184.83      176.52      154.65      126.11      97.130      71.178      49.984      34.775    
  25.502      19.856      16.352      14.391      13.414      13.019      12.864      12.752      12.697      12.752    
  12.864      13.019      13.414      14.391      16.352      19.856      25.502      34.775      49.984      71.178    
  97.130      126.11      154.65      176.52      135.43      129.26      112.98      91.724      70.456      52.186    
  38.215      28.783      22.848      18.933      16.687      15.614      15.280      15.368      15.597      15.771    
  15.829      15.771      15.597      15.368      15.280      15.614      16.687      18.933      22.848      28.783    
  38.215      52.186      70.456      91.724      112.98      129.26      91.794      87.683      76.860      62.860    
  49.195      38.002      29.954      24.598      20.899      18.690      17.754      17.718      18.257      19.093    
  19.960      20.610      20.850      20.610      19.960      19.093      18.257      17.718      17.754      18.690    
  20.899      24.598      29.954      38.002      49.195      62.860      76.860      87.683      57.345      55.060    
  49.084      41.478      34.272      28.595      24.538      21.618      19.876      19.324      19.772      20.961    
  22.725      24.886      27.050      28.675      29.281      28.675      27.050      24.886      22.725      20.961    
  19.772      19.324      19.876      21.618      24.538      28.595      34.272      41.478      49.084      55.060    
  34.932      33.948      31.392      28.180      25.151      22.648      20.789      19.823      19.874      20.923    
  22.867      25.770      29.598      33.997      38.239      41.360      42.514      41.360      38.239      33.997    
  29.598      25.770      22.867      20.923      19.874      19.823      20.789      22.648      25.151      28.180    
  31.392      33.948      23.089      22.752      21.854      20.649      19.472      18.660      18.494      19.184    
  20.838      23.490      27.401      32.708      39.217      46.318      52.936      57.712      59.462      57.712    
  52.936      46.318      39.217      32.708      27.401      23.490      20.838      19.184      18.494      18.660    
  19.472      20.649      21.854      22.752      16.455      16.361      16.127      15.888      15.857      16.283    
  17.422      19.491      22.630      27.222      33.569      41.543      50.669      60.131      68.684      74.766    
  76.982      74.766      68.684      60.131      50.669      41.543      33.569      27.222      22.630      19.491    
  17.422      16.283      15.857      15.888      16.127      16.361      12.419      12.474      12.654      13.027    
  13.745      15.044      17.205      20.476      25.264      32.166      41.125      51.533      62.609      73.526    
  83.168      89.990      92.480      89.990      83.168      73.526      62.609      51.533      41.125      32.166    
  25.264      20.476      17.205      15.044      13.745      13.027      12.654      12.474      10.181      10.313    
  10.713      11.426      12.606      14.527      17.529      21.964      28.673      38.101      49.615      62.008    
  74.299      85.930      96.157      103.50      106.21      103.50      96.157      85.930      74.299      62.008    
  49.615      38.101      28.673      21.964      17.529      14.527      12.606      11.426      10.713      10.313    
  9.0756      9.2383      9.7282      10.602      12.056      14.432      18.136      23.787      32.540      44.509    
  58.397      72.439      85.649      97.966      109.07      117.33      120.46      117.33      109.07      97.966    
  85.649      72.439      58.397      44.509      32.540      23.787      18.136      14.432      12.056      10.602    
  9.7282      9.2383      8.4562      8.6322      9.1654      10.132      11.774      14.503      18.794      25.611    
  36.251      50.487      66.430      81.921      96.143      109.60      122.27      132.08      135.86      132.08    
  122.27      109.60      96.143      81.921      66.430      50.487      36.251      25.611      18.794      14.503    
  11.774      10.132      9.1654      8.6322      7.9700      8.1606      8.7383      9.7889      11.582      14.572    
  19.294      26.980      38.982      54.826      72.232      88.832      104.03      118.76      133.12      144.51    
  148.96      144.51      133.12      118.76      104.03      88.832      72.232      54.826      38.982      26.980    
  19.294      14.572      11.582      9.7889      8.7383      8.1606      7.7515      7.9502      8.5516      9.6427    
  11.500      14.593      19.479      27.491      39.992      56.423      74.367      91.398      107.01      122.31    
  137.42      149.50      154.23      149.50      137.42      122.31      107.01      91.398      74.367      56.423    
  39.992      27.491      19.479      14.593      11.500      9.6427      8.5516      7.9502      7.9700      8.1606    
  8.7383      9.7889      11.582      14.572      19.294      26.980      38.982      54.826      72.232      88.832    
  104.03      118.76      133.12      144.51      148.96      144.51      133.12      118.76      104.03      88.832    
  72.232      54.826      38.982      26.980      19.294      14.572      11.582      9.7889      8.7383      8.1606    
  8.4562      8.6322      9.1654      10.132      11.774      14.503      18.794      25.611      36.251      50.487    
  66.430      81.921      96.143      109.60      122.27      132.08      135.86      132.08      122.27      109.60    
  96.143      81.921      66.430      50.487      36.251      25.611      18.794      14.503      11.774      10.132    
  9.1654      8.6322      9.0756      9.2383      9.7282      10.602      12.056      14.432      18.136      23.787    
  32.540      44.509      58.397      72.439      85.649      97.966      109.07      117.33      120.46      117.33    
  109.07      97.966      85.649      72.439      58.397      44.509      32.540      23.787      18.136      14.432    
  12.056      10.602      9.7282      9.2383      10.181      10.313      10.713      11.426      12.606      14.527    
  17.529      21.964      28.673      38.101      49.615      62.008      74.299      85.930      96.157      103.50    
  106.21      103.50      96.157      85.930      74.299      62.008      49.615      38.101      28.673      21.964    
  17.529      14.527      12.606      11.426      10.713      10.313      12.419      12.474      12.654      13.027    
  13.745      15.044      17.205      20.476      25.264      32.166      41.125      51.533      62.609      73.526    
  83.168      89.990      92.480      89.990      83.168      73.526      62.609      51.533      41.125      32.166    
  25.264      20.476      17.205      15.044      13.745      13.027      12.654      12.474      16.455      16.361    
  16.127      15.888      15.857      16.283      17.422      19.491      22.630      27.222      33.569      41.543    
  50.669      60.131      68.684      74.766      76.982      74.766      68.684      60.131      50.669      41.543    
  33.569      27.222      22.630      19.491      17.422      16.283      15.857      15.888      16.127      16.361    
  23.089      22.752      21.854      20.649      19.472      18.660      18.494      19.184      20.838      23.490    
  27.401      32.708      39.217      46.318      52.936      57.712      59.462      57.712      52.936      46.318    
  39.217      32.708      27.401      23.490      20.838      19.184      18.494      18.660      19.472      20.649    
  21.854      22.752      34.932      33.948      31.392      28.180      25.151      22.648      20.789      19.823    
  19.874      20.923      22.867      25.770      29.598      33.997      38.239      41.360      42.514      41.360    
  38.239      33.997      29.598      25.770      22.867      20.923      19.874      19.823      20.789      22.648    
  25.151      28.180      31.392      33.948      57.345      55.060      49.084      41.478      34.272      28.595    
  24.538      21.618      19.876      19.324      19.772      20.961      22.725      24.886      27.050      28.675    
  29.281      28.675      27.050      24.886      22.725      20.961      19.772      19.324      19.876      21.618    
  24.538      28.595      34.272      41.478      49.084      55.060      91.794      87.683      76.860      62.860    
  49.195      38.002      29.954      24.598      20.899      18.690      17.754      17.718      18.257      19.093    
  19.960      20.610      20.850      20.610      19.960      19.093      18.257      17.718      17.754      18.690    
  20.899      24.598      29.954      38.002      49.195      62.860      76.860      87.683      135.43      129.26    
  112.98      91.724      70.456      52.186      38.215      28.783      22.848      18.933      16.687      15.614    
  15.280      15.368      15.597      15.771      15.829      15.771      15.597      15.368      15.280      15.614    
  16.687      18.933      22.848      28.783      38.215      52.186      70.456      91.724      112.98      129.26    
  184.83      176.52      154.65      126.11      97.130      71.178      49.984      34.775      25.502      19.856    
  16.352      14.391      13.414      13.019      12.864      12.752      12.697      12.752      12.864      13.019    
  13.414      14.391      16.352      19.856      25.502      34.775      49.984      71.178      97.130      126.11    
  154.65      176.52      237.58      226.99      199.34      163.56      127.12      93.551      64.607      42.555    
  28.774      21.174      16.486      13.753      12.295      11.608      11.245      10.964      10.837      10.964    
  11.245      11.608      12.295      13.753      16.486      21.174      28.774      42.555      64.607      93.551    
  127.12      163.56      199.34      226.99      288.91      275.98      242.48      199.66      156.34      115.85    
  79.674      50.875      32.304      22.526      16.822      13.450      11.633      10.769      10.299      9.9212    
  9.7478      9.9212      10.299      10.769      11.633      13.450      16.822      22.526      32.304      50.875    
  79.674      115.85      156.34      199.66      242.48      275.98      328.37      313.53      275.30      226.90    
  178.34      132.79      91.303      57.447      35.141      23.540      17.128      13.317      11.264      10.299    
  9.7752      9.3436      9.1427      9.3436      9.7752      10.299      11.264      13.317      17.128      23.540    
  35.141      57.447      91.303      132.79      178.34      226.90      275.30      313.53      301.40      288.07    
  253.52      209.31      164.38      122.03      83.785      53.092      33.208      22.835      16.904      13.403    
  11.525      10.642      10.165      9.7772      9.5977      9.7772      10.165      10.642      11.525      13.403    
  16.904      22.835      33.208      53.092      83.785      122.03      164.38      209.31      253.52      288.07    
  289.45      276.67      243.48      200.87      157.49      116.68      80.105      51.012      32.305      22.496    
  16.795      13.437      11.635      10.785      10.324      9.9528      9.7817      9.9528      10.324      10.785    
  11.635      13.437      16.795      22.496      32.305      51.012      80.105      116.68      157.49      200.87    
  243.48      276.67      257.62      246.26      216.59      178.20      138.97      102.40      70.361      45.569    
  29.959      21.581      16.518      13.556      11.967      11.212      10.802      10.480      10.334      10.480    
  10.802      11.212      11.967      13.556      16.518      21.581      29.959      45.569      70.361      102.40    
  138.97      178.20      216.59      246.26      214.69      205.14      180.08      147.36      113.92      83.367    
  57.656      38.649      27.003      20.354      16.212      13.825      12.562      11.971      11.663      11.431    
  11.326      11.431      11.663      11.971      12.562      13.825      16.212      20.354      27.003      38.649    
  57.656      83.367      113.92      147.36      180.08      205.14      168.42      160.79      140.68      114.33    
  87.620      64.016      45.228      32.125      24.178      19.156      16.084      14.392      13.565      13.244    
  13.131      13.053      13.013      13.053      13.131      13.244      13.565      14.392      16.084      19.156    
  24.178      32.125      45.228      64.016      87.620      114.33      140.68      160.79      123.41      117.75    
  102.79      83.282      63.867      47.432      35.153      27.013      21.767      18.311      16.372      15.479    
  15.236      15.359      15.600      15.784      15.847      15.784      15.600      15.359      15.236      15.479    
  16.372      18.311      21.767      27.013      35.153      47.432      63.867      83.282      102.79      117.75    
  83.252      79.535      69.757      57.144      44.919      35.034      28.017      23.280      19.985      18.076    
  17.316      17.358      17.909      18.717      19.535      20.138      20.359      20.138      19.535      18.717    
  17.909      17.358      17.316      18.076      19.985      23.280      28.017      35.034      44.919      57.144    
  69.757      79.535      52.061      50.042      44.773      38.087      31.779      26.814      23.183      20.557    
  19.050      18.634      19.123      20.276      21.903      23.844      25.764      27.197      27.730      27.197    
  25.764      23.844      21.903      20.276      19.123      18.634      19.050      20.557      23.183      26.814    
  31.779      38.087      44.773      50.042      32.302      31.450      29.234      26.434      23.746      21.450    
  19.771      18.938      19.051      20.082      21.914      24.551      27.971      31.861      35.586      38.315    
  39.322      38.315      35.586      31.861      27.971      24.551      21.914      20.082      19.051      18.938    
  19.771      21.450      23.746      26.434      29.234      31.450      21.908      21.599      20.766      19.652    
  18.573      17.842      17.716      18.384      19.949      22.419      25.980      30.768      36.596      42.897    
  48.718      52.889      54.412      52.889      48.718      42.897      36.596      30.768      25.980      22.419    
  19.949      18.384      17.716      17.842      18.573      19.652      20.766      21.599      15.862      15.776    
  15.562      15.347      15.326      15.727      16.784      18.706      21.618      25.816      31.614      38.896    
  47.173      55.641      63.180      68.473      70.389      68.473      63.180      55.641      47.173      38.896    
  31.614      25.816      21.618      18.706      16.784      15.727      15.326      15.347      15.562      15.776    
  12.244      12.294      12.458      12.799      13.457      14.648      16.636      19.666      24.054      30.393    
  38.706      48.400      58.622      68.476      76.939      82.790      84.898      82.790      76.939      68.476    
  58.622      48.400      38.706      30.393      24.054      19.666      16.636      14.648      13.457      12.799    
  12.458      12.294      10.262      10.381      10.742      11.388      12.463      14.221      16.987      21.078    