unknown system                          
   1.00000000000000     
     3.866000    0.000000    0.000000
     0.000000    3.866000    0.000000
     0.000000    0.000000    3.866000
   Pd   Ir   Pt   Cu
     1     1     1     1
Direct
  0.000000  0.000000  0.000000
  0.500000  0.500000  0.000000
  0.500000  0.000000  0.500000
  0.000000  0.500000  0.500000
 
   32   32   32
 0.35953895820E+03 0.34304727207E+03 0.30074080025E+03 0.24765645702E+03 0.19490757629E+03
 0.14554380687E+03 0.10018316600E+03 0.62572950701E+02 0.37405047329E+02 0.24330139985E+02
 0.17380314370E+02 0.13237254408E+02 0.11003803464E+02 0.99580689082E+01 0.93906898007E+01
 0.89163945801E+01 0.86937695181E+01 0.89163945801E+01 0.93906898007E+01 0.99580689082E+01
 0.11003803464E+02 0.13237254408E+02 0.17380314370E+02 0.24330139985E+02 0.37405047329E+02
 0.62572950701E+02 0.10018316600E+03 0.14554380687E+03 0.19490757629E+03 0.24765645702E+03
 0.30074080025E+03 0.34304727207E+03 0.34317857956E+03 0.32752715105E+03 0.28729733430E+03
 0.23663086885E+03 0.18608901974E+03 0.13877088235E+03 0.95497893809E+02 0.59888184862E+02
 0.36230909698E+02 0.23930892288E+02 0.17256218041E+02 0.13277574175E+02 0.11130979683E+02
 0.10120884870E+02 0.95709971984E+01 0.91151790040E+01 0.89024029542E+01 0.91151790040E+01
 0.95709971984E+01 0.10120884870E+02 0.11130979683E+02 0.13277574175E+02 0.17256218041E+02
 0.23930892288E+02 0.36230909698E+02 0.59888184862E+02 0.95497893809E+02 0.13877088235E+03
 0.18608901974E+03 0.23663086885E+03 0.28729733430E+03 0.32752715105E+03 0.30059367457E+03
 0.28705954493E+03 0.25207193842E+03 0.20755057225E+03 0.16271709545E+03 0.12082107813E+03
 0.83148976837E+02 0.52883155253E+02 0.33201100989E+02 0.22875064282E+02 0.16939494851E+02
 0.13416581581E+02 0.11513842524E+02 0.10608484685E+02 0.10113462543E+02 0.97131614773E+01
 0.95290851214E+01 0.97131614773E+01 0.10113462543E+02 0.10608484685E+02 0.11513842524E+02
 0.13416581581E+02 0.16939494851E+02 0.22875064282E+02 0.33201100989E+02 0.52883155253E+02
 0.83148976837E+02 0.12082107813E+03 0.16271709545E+03 0.20755057225E+03 0.25207193842E+03
 0.28705954493E+03 0.24586122246E+03 0.23488620583E+03 0.20627681125E+03 0.16937628361E+03
 0.13189717819E+03 0.97273900647E+02 0.67187316492E+02 0.44028074010E+02 0.29444706584E+02
 0.21477037262E+02 0.16591693642E+02 0.13732343429E+02 0.12201467072E+02 0.11477970951E+02
 0.11092996197E+02 0.10793354428E+02 0.10657434253E+02 0.10793354428E+02 0.11092996197E+02
 0.11477970951E+02 0.12201467072E+02 0.13732343429E+02 0.16591693642E+02 0.21477037262E+02
 0.29444706584E+02 0.44028074010E+02 0.67187316492E+02 0.97273900647E+02 0.13189717819E+03
 0.16937628361E+03 0.20627681125E+03 0.23488620583E+03 0.19055526422E+03 0.18200266242E+03
 0.15953243908E+03 0.13024854309E+03 0.10051495127E+03 0.73773368568E+02 0.51740746940E+02
 0.35767977225E+02 0.25991141307E+02 0.20114927898E+02 0.16454967205E+02 0.14396283177E+02
 0.13363029524E+02 0.12940317167E+02 0.12769614711E+02 0.12644271249E+02 0.12583339061E+02
 0.12644271249E+02 0.12769614711E+02 0.12940317167E+02 0.13363029524E+02 0.14396283177E+02
 0.16454967205E+02 0.20114927898E+02 0.25991141307E+02 0.35767977225E+02 0.51740746940E+02
 0.73773368568E+02 0.10051495127E+03 0.13024854309E+03 0.15953243908E+03 0.18200266242E+03
 0.13955281648E+03 0.13321280078E+03 0.11649237000E+03 0.94665876557E+02 0.72791637459E+02
 0.53904891043E+02 0.39341749624E+02 0.29436496774E+02 0.23239939865E+02 0.19162531696E+02
 0.16806256702E+02 0.15667774250E+02 0.15300727835E+02 0.15375227539E+02 0.15599622938E+02
 0.15770037069E+02 0.15825631986E+02 0.15770037069E+02 0.15599622938E+02 0.15375227539E+02
 0.15300727835E+02 0.15667774250E+02 0.16806256702E+02 0.19162531696E+02 0.23239939865E+02
 0.29436496774E+02 0.39341749624E+02 0.53904891043E+02 0.72791637459E+02 0.94665876557E+02
 0.11649237000E+03 0.13321280078E+03 0.94749498572E+02 0.90506825989E+02 0.79336539495E+02
 0.64874257968E+02 0.50724351739E+02 0.39081331401E+02 0.30662006725E+02 0.25071373230E+02
 0.21230871215E+02 0.18915458988E+02 0.17916510341E+02 0.17852588315E+02 0.18387278171E+02
 0.19233797160E+02 0.20122272668E+02 0.20790978972E+02 0.21038198721E+02 0.20790978972E+02
 0.20122272668E+02 0.19233797160E+02 0.18387278171E+02 0.17852588315E+02 0.17916510341E+02
 0.18915458988E+02 0.21230871215E+02 0.25071373230E+02 0.30662006725E+02 0.39081331401E+02
 0.50724351739E+02 0.64874257968E+02 0.79336539495E+02 0.90506825989E+02 0.59221213808E+02
 0.56843275754E+02 0.50623555239E+02 0.42699423339E+02 0.35176577077E+02 0.29242579397E+02
 0.25023031470E+02 0.22000926403E+02 0.20176669995E+02 0.19575206923E+02 0.20007951113E+02
 0.21212282174E+02 0.23031422267E+02 0.25277237907E+02 0.27534591797E+02 0.29232374188E+02
 0.29865552479E+02 0.29232374188E+02 0.27534591797E+02 0.25277237907E+02 0.23031422267E+02
 0.21212282174E+02 0.20007951113E+02 0.19575206923E+02 0.20176669995E+02 0.22000926403E+02
 0.25023031470E+02 0.29242579397E+02 0.35176577077E+02 0.42699423339E+02 0.50623555239E+02
 0.56843275754E+02 0.35892441379E+02 0.34860042669E+02 0.32181048092E+02 0.28816635957E+02
 0.25657382664E+02 0.23077778535E+02 0.21157310791E+02 0.20143240126E+02 0.20172408729E+02
 0.21226590110E+02 0.23213733395E+02 0.26216421530E+02 0.30197599387E+02 0.34788248656E+02
 0.39225215622E+02 0.42494535346E+02 0.43703593195E+02 0.42494535346E+02 0.39225215622E+02
 0.34788248656E+02 0.30197599387E+02 0.26216421530E+02 0.23213733395E+02 0.21226590110E+02
 0.20172408729E+02 0.20143240126E+02 0.21157310791E+02 0.23077778535E+02 0.25657382664E+02
 0.28816635957E+02 0.32181048092E+02 0.34860042669E+02 0.23516746590E+02 0.23168468196E+02
 0.22243271120E+02 0.21008964182E+02 0.19798237925E+02 0.18956907461E+02 0.18777018281E+02
 0.19473648407E+02 0.21157276795E+02 0.23876499668E+02 0.27914259081E+02 0.33409981419E+02
 0.40170602084E+02 0.47569975620E+02 0.54488591565E+02 0.59493249494E+02 0.61329354164E+02
 0.59493249494E+02 0.54488591565E+02 0.47569975620E+02 0.40170602084E+02 0.33409981419E+02
 0.27914259081E+02 0.23876499668E+02 0.21157276795E+02 0.19473648407E+02 0.18777018281E+02
 0.18956907461E+02 0.19798237925E+02 0.21008964182E+02 0.22243271120E+02 0.23168468196E+02
 0.16669577094E+02 0.16573769458E+02 0.16333169116E+02 0.16087223748E+02 0.16052804450E+02
 0.16488043491E+02 0.17654530039E+02 0.19774337004E+02 0.22993262429E+02 0.27725311243E+02
 0.34264854325E+02 0.42484538620E+02 0.51921496287E+02 0.61755504554E+02 0.70695645553E+02
 0.77080637000E+02 0.79413147153E+02 0.77080637000E+02 0.70695645553E+02 0.61755504554E+02
 0.51921496287E+02 0.42484538620E+02 0.34264854325E+02 0.27725311243E+02 0.22993262429E+02
 0.19774337004E+02 0.17654530039E+02 0.16488043491E+02 0.16052804450E+02 0.16087223748E+02
 0.16333169116E+02 0.16573769458E+02 0.12475610943E+02 0.12533758406E+02 0.12722839048E+02
 0.13110650201E+02 0.13852874612E+02 0.15190816218E+02 0.17412490925E+02 0.20767215506E+02
 0.25696792961E+02 0.32790360496E+02 0.41967930297E+02 0.52622153762E+02 0.64009236022E+02
 0.75333287015E+02 0.85436902371E+02 0.92643928836E+02 0.95285079752E+02 0.92643928836E+02
 0.85436902371E+02 0.75333287015E+02 0.64009236022E+02 0.52622153762E+02 0.41967930297E+02
 0.32790360496E+02 0.25696792961E+02 0.20767215506E+02 0.17412490925E+02 0.15190816218E+02
 0.13852874612E+02 0.13110650201E+02 0.12722839048E+02 0.12533758406E+02 0.10125861881E+02
 0.10265951418E+02 0.10686685578E+02 0.11431814016E+02 0.12656584149E+02 0.14639971625E+02
 0.17725644929E+02 0.22282668646E+02 0.29183396008E+02 0.38827656257E+02 0.50540272464E+02
 0.63128599035E+02 0.75695479305E+02 0.87767687169E+02 0.98566400462E+02 0.10641976098E+03
 0.10934073178E+03 0.10641976098E+03 0.98566400462E+02 0.87767687169E+02 0.75695479305E+02
 0.63128599035E+02 0.50540272464E+02 0.38827656257E+02 0.29183396008E+02 0.22282668646E+02
 0.17725644929E+02 0.14639971625E+02 0.12656584149E+02 0.11431814016E+02 0.10686685578E+02
 0.10265951418E+02 0.89453347094E+01 0.91187827166E+01 0.96384403590E+01 0.10557335887E+02
 0.12070127449E+02 0.14524600550E+02 0.18329137547E+02 0.24144447276E+02 0.33125143966E+02
 0.45312636934E+02 0.59351386695E+02 0.73517386003E+02 0.86977953299E+02 0.99822829092E+02
 0.11169169995E+03 0.12066842764E+03 0.12408536030E+03 0.12066842764E+03 0.11169169995E+03
 0.99822829092E+02 0.86977953299E+02 0.73517386003E+02 0.59351386695E+02 0.45312636934E+02
 0.33125143966E+02 0.24144447276E+02 0.18329137547E+02 0.14524600550E+02 0.12070127449E+02
 0.10557335887E+02 0.96384403590E+01 0.91187827166E+01 0.82652247165E+01 0.84546118348E+01
 0.90248418807E+01 0.10046597285E+02 0.11760125586E+02 0.14580882479E+02 0.18989033714E+02
 0.26005894129E+02 0.36899009759E+02 0.51344523457E+02 0.67388495228E+02 0.82947101872E+02
 0.97435567237E+02 0.11157097683E+03 0.12526574087E+03 0.13604096813E+03 0.14022433806E+03
 0.13604096813E+03 0.12526574087E+03 0.11157097683E+03 0.97435567237E+02 0.82947101872E+02
 0.67388495228E+02 0.51344523457E+02 0.36899009759E+02 0.26005894129E+02 0.18989033714E+02
 0.14580882479E+02 0.11760125586E+02 0.10046597285E+02 0.90248418807E+01 0.84546118348E+01
 0.77270371738E+01 0.79333463459E+01 0.85546149373E+01 0.96694551870E+01 0.11544290448E+02
 0.14636259726E+02 0.19491021121E+02 0.27402066561E+02 0.39672685730E+02 0.55717216848E+02
 0.73189248712E+02 0.89830598993E+02 0.10533074717E+03 0.12088880560E+03 0.13651379984E+03
 0.14910607979E+03 0.15404693241E+03 0.14910607979E+03 0.13651379984E+03 0.12088880560E+03
 0.10533074717E+03 0.89830598993E+02 0.73189248712E+02 0.55717216848E+02 0.39672685730E+02
 0.27402066561E+02 0.19491021121E+02 0.14636259726E+02 0.11544290448E+02 0.96694551870E+01
 0.85546149373E+01 0.79333463459E+01 0.74860520426E+01 0.77014557163E+01 0.83492424412E+01
 0.95086329116E+01 0.11452713485E+02 0.14651242650E+02 0.19676874045E+02 0.27922292962E+02
 0.40698486749E+02 0.57326206644E+02 0.75324966110E+02 0.92390363253E+02 0.10833004681E+03
 0.12452267402E+03 0.14098962827E+03 0.15435910871E+03 0.15962090779E+03 0.15435910871E+03
 0.14098962827E+03 0.12452267402E+03 0.10833004681E+03 0.92390363253E+02 0.75324966110E+02
 0.57326206644E+02 0.40698486749E+02 0.27922292962E+02 0.19676874045E+02 0.14651242650E+02
 0.11452713485E+02 0.95086329116E+01 0.83492424412E+01 0.77014557163E+01 0.77270371738E+01
 0.79333463459E+01 0.85546149373E+01 0.96694551870E+01 0.11544290448E+02 0.14636259726E+02
 0.19491021121E+02 0.27402066561E+02 0.39672685730E+02 0.55717216848E+02 0.73189248712E+02
 0.89830598993E+02 0.10533074717E+03 0.12088880560E+03 0.13651379984E+03 0.14910607979E+03
 0.15404693241E+03 0.14910607979E+03 0.13651379984E+03 0.12088880560E+03 0.10533074717E+03
 0.89830598993E+02 0.73189248712E+02 0.55717216848E+02 0.39672685730E+02 0.27402066561E+02
 0.19491021121E+02 0.14636259726E+02 0.11544290448E+02 0.96694551870E+01 0.85546149373E+01
 0.79333463459E+01 0.82652247165E+01 0.84546118348E+01 0.90248418807E+01 0.10046597285E+02
 0.11760125586E+02 0.14580882479E+02 0.18989033714E+02 0.26005894129E+02 0.36899009759E+02
 0.51344523457E+02 0.67388495228E+02 0.82947101872E+02 0.97435567237E+02 0.11157097683E+03
 0.12526574087E+03 0.13604096813E+03 0.14022433806E+03 0.13604096813E+03 0.12526574087E+03
 0.11157097683E+03 0.97435567237E+02 0.82947101872E+02 0.67388495228E+02 0.51344523457E+02
 0.36899009759E+02 0.26005894129E+02 0.18989033714E+02 0.14580882479E+02 0.11760125586E+02
 0.10046597285E+02 0.90248418807E+01 0.84546118348E+01 0.89453347094E+01 0.91187827166E+01
 0.96384403590E+01 0.10557335887E+02 0.12070127449E+02 0.14524600550E+02 0.18329137547E+02
 0.24144447276E+02 0.33125143966E+02 0.45312636934E+02 0.59351386695E+02 0.73517386003E+02
 0.86977953299E+02 0.99822829092E+02 0.11169169995E+03 0.12066842764E+03 0.12408536030E+03
 0.12066842764E+03 0.11169169995E+03 0.99822829092E+02 0.86977953299E+02 0.73517386003E+02
 0.59351386695E+02 0.45312636934E+02 0.33125143966E+02 0.24144447276E+02 0.18329137547E+02
 0.14524600550E+02 0.12070127449E+02 0.10557335887E+02 0.96384403590E+01 0.91187827166E+01
 0.10125861881E+02 0.10265951418E+02 0.10686685578E+02 0.11431814016E+02 0.12656584149E+02
 0.14639971625E+02 0.17725644929E+02 0.22282668646E+02 0.29183396008E+02 0.38827656257E+02
 0.50540272464E+02 0.63128599035E+02 0.75695479305E+02 0.87767687169E+02 0.98566400462E+02
 0.10641976098E+03 0.10934073178E+03 0.10641976098E+03 0.98566400462E+02 0.87767687169E+02
 0.75695479305E+02 0.63128599035E+02 0.50540272464E+02 0.38827656257E+02 0.29183396008E+02
 0.22282668646E+02 0.17725644929E+02 0.14639971625E+02 0.12656584149E+02 0.11431814016E+02
 0.10686685578E+02 0.10265951418E+02 0.12475610943E+02 0.12533758406E+02 0.12722839048E+02
 0.13110650201E+02 0.13852874612E+02 0.15190816218E+02 0.17412490925E+02 0.20767215506E+02
 0.25696792961E+02 0.32790360496E+02 0.41967930297E+02 0.52622153762E+02 0.64009236022E+02
 0.75333287015E+02 0.85436902371E+02 0.92643928836E+02 0.95285079752E+02 0.92643928836E+02
 0.85436902371E+02 0.75333287015E+02 0.64009236022E+02 0.52622153762E+02 0.41967930297E+02
 0.32790360496E+02 0.25696792961E+02 0.20767215506E+02 0.17412490925E+02 0.15190816218E+02
 0.13852874612E+02 0.13110650201E+02 0.12722839048E+02 0.12533758406E+02 0.16669577094E+02
 0.16573769458E+02 0.16333169116E+02 0.16087223748E+02 0.16052804450E+02 0.16488043491E+02
 0.17654530039E+02 0.19774337004E+02 0.22993262429E+02 0.27725311243E+02 0.34264854325E+02
 0.42484538620E+02 0.51921496287E+02 0.61755504554E+02 0.70695645553E+02 0.77080637000E+02
 0.79413147153E+02 0.77080637000E+02 0.70695645553E+02 0.61755504554E+02 0.51921496287E+02
 0.42484538620E+02 0.34264854325E+02 0.27725311243E+02 0.22993262429E+02 0.19774337004E+02
 0.17654530039E+02 0.16488043491E+02 0.16052804450E+02 0.16087223748E+02 0.16333169116E+02
 0.16573769458E+02 0.23516746590E+02 0.23168468196E+02 0.22243271120E+02 0.21008964182E+02
 0.19798237925E+02 0.18956907461E+02 0.18777018281E+02 0.19473648407E+02 0.21157276795E+02
 0.23876499668E+02 0.27914259081E+02 0.33409981419E+02 0.40170602084E+02 0.47569975620E+02
 0.54488591565E+02 0.59493249494E+02 0.61329354164E+02 0.59493249494E+02 0.54488591565E+02
 0.47569975620E+02 0.40170602084E+02 0.33409981419E+02 0.27914259081E+02 0.23876499668E+02
 0.21157276795E+02 0.19473648407E+02 0.18777018281E+02 0.18956907461E+02 0.19798237925E+02
 0.21008964182E+02 0.22243271120E+02 0.23168468196E+02 0.35892441379E+02 0.34860042669E+02
 0.32181048092E+02 0.28816635957E+02 0.25657382664E+02 0.23077778535E+02 0.21157310791E+02
 0.20143240126E+02 0.20172408729E+02 0.21226590110E+02 0.23213733395E+02 0.26216421530E+02
 0.30197599387E+02 0.34788248656E+02 0.39225215622E+02 0.42494535346E+02 0.43703593195E+02
 0.42494535346E+02 0.39225215622E+02 0.34788248656E+02 0.30197599387E+02 0.26216421530E+02
 0.23213733395E+02 0.21226590110E+02 0.20172408729E+02 0.20143240126E+02 0.21157310791E+02
 0.23077778535E+02 0.25657382664E+02 0.28816635957E+02 0.32181048092E+02 0.34860042669E+02
 0.59221213808E+02 0.56843275754E+02 0.50623555239E+02 0.42699423339E+02 0.35176577077E+02
 0.29242579397E+02 0.25023031470E+02 0.22000926403E+02 0.20176669995E+02 0.19575206923E+02
 0.20007951113E+02 0.21212282174E+02 0.23031422267E+02 0.25277237907E+02 0.27534591797E+02
 0.29232374188E+02 0.29865552479E+02 0.29232374188E+02 0.27534591797E+02 0.25277237907E+02
 0.23031422267E+02 0.21212282174E+02 0.20007951113E+02 0.19575206923E+02 0.20176669995E+02
 0.22000926403E+02 0.25023031470E+02 0.29242579397E+02 0.35176577077E+02 0.42699423339E+02
 0.50623555239E+02 0.56843275754E+02 0.94749498572E+02 0.90506825989E+02 0.79336539495E+02
 0.64874257968E+02 0.50724351739E+02 0.39081331401E+02 0.30662006725E+02 0.25071373230E+02
 0.21230871215E+02 0.18915458988E+02 0.17916510341E+02 0.17852588315E+02 0.18387278171E+02
 0.19233797160E+02 0.20122272668E+02 0.20790978972E+02 0.21038198721E+02 0.20790978972E+02
 0.20122272668E+02 0.19233797160E+02 0.18387278171E+02 0.17852588315E+02 0.17916510341E+02
 0.18915458988E+02 0.21230871215E+02 0.25071373230E+02 0.30662006725E+02 0.39081331401E+02
 0.50724351739E+02 0.64874257968E+02 0.79336539495E+02 0.90506825989E+02 0.13955281648E+03
 0.13321280078E+03 0.11649237000E+03 0.94665876557E+02 0.72791637459E+02 0.53904891043E+02
 0.39341749624E+02 0.29436496774E+02 0.23239939865E+02 0.19162531696E+02 0.16806256702E+02
 0.15667774250E+02 0.15300727835E+02 0.15375227539E+02 0.15599622938E+02 0.15770037069E+02
 0.15825631986E+02 0.15770037069E+02 0.15599622938E+02 0.15375227539E+02 0.15300727835E+02
 0.15667774250E+02 0.16806256702E+02 0.19162531696E+02 0.23239939865E+02 0.29436496774E+02
 0.39341749624E+02 0.53904891043E+02 0.72791637459E+02 0.94665876557E+02 0.11649237000E+03
 0.13321280078E+03 0.19055526422E+03 0.18200266242E+03 0.15953243908E+03 0.13024854309E+03
 0.10051495127E+03 0.73773368568E+02 0.51740746940E+02 0.35767977225E+02 0.25991141307E+02
 0.20114927898E+02 0.16454967205E+02 0.14396283177E+02 0.13363029524E+02 0.12940317167E+02
 0.12769614711E+02 0.12644271249E+02 0.12583339061E+02 0.12644271249E+02 0.12769614711E+02
 0.12940317167E+02 0.13363029524E+02 0.14396283177E+02 0.16454967205E+02 0.20114927898E+02
 0.25991141307E+02 0.35767977225E+02 0.51740746940E+02 0.73773368568E+02 0.10051495127E+03
 0.13024854309E+03 0.15953243908E+03 0.18200266242E+03 0.24586122246E+03 0.23488620583E+03
 0.20627681125E+03 0.16937628361E+03 0.13189717819E+03 0.97273900647E+02 0.67187316492E+02
 0.44028074010E+02 0.29444706584E+02 0.21477037262E+02 0.16591693642E+02 0.13732343429E+02
 0.12201467072E+02 0.11477970951E+02 0.11092996197E+02 0.10793354428E+02 0.10657434253E+02
 0.10793354428E+02 0.11092996197E+02 0.11477970951E+02 0.12201467072E+02 0.13732343429E+02
 0.16591693642E+02 0.21477037262E+02 0.29444706584E+02 0.44028074010E+02 0.67187316492E+02
 0.97273900647E+02 0.13189717819E+03 0.16937628361E+03 0.20627681125E+03 0.23488620583E+03
 0.30059367457E+03 0.28705954493E+03 0.25207193842E+03 0.20755057225E+03 0.16271709545E+03
 0.12082107813E+03 0.83148976837E+02 0.52883155253E+02 0.33201100989E+02 0.22875064282E+02
 0.16939494851E+02 0.13416581581E+02 0.11513842524E+02 0.10608484685E+02 0.10113462543E+02
 0.97131614773E+01 0.95290851214E+01 0.97131614773E+01 0.10113462543E+02 0.10608484685E+02
 0.11513842524E+02 0.13416581581E+02 0.16939494851E+02 0.22875064282E+02 0.33201100989E+02
 0.52883155253E+02 0.83148976837E+02 0.12082107813E+03 0.16271709545E+03 0.20755057225E+03
 0.25207193842E+03 0.28705954493E+03 0.34317857956E+03 0.32752715105E+03 0.28729733430E+03
 0.23663086885E+03 0.18608901974E+03 0.13877088235E+03 0.95497893809E+02 0.59888184862E+02
 0.36230909698E+02 0.23930892288E+02 0.17256218041E+02 0.13277574175E+02 0.11130979683E+02
 0.10120884870E+02 0.95709971984E+01 0.91151790040E+01 0.89024029542E+01 0.91151790040E+01
 0.95709971984E+01 0.10120884870E+02 0.11130979683E+02 0.13277574175E+02 0.17256218041E+02
 0.23930892288E+02 0.36230909698E+02 0.59888184862E+02 0.95497893809E+02 0.13877088235E+03
 0.18608901974E+03 0.23663086885E+03 0.28729733430E+03 0.32752715105E+03 0.34344422189E+03
 0.32785467233E+03 0.28775854483E+03 0.23718580458E+03 0.18661727313E+03 0.13915969089E+03
 0.95710147336E+02 0.59963883906E+02 0.36238908252E+02 0.23921398308E+02 0.17248355648E+02
 0.13277775317E+02 0.11141615101E+02 0.10141953735E+02 0.96011024120E+01 0.91516474049E+01
 0.89412067217E+01 0.91516474049E+01 0.96011024120E+01 0.10141953735E+02 0.11141615101E+02
 0.13277775317E+02 0.17248355648E+02 0.23921398308E+02 0.36238908252E+02 0.59963883906E+02
 0.95710147336E+02 0.13915969089E+03 0.18661727313E+03 0.23718580458E+03 0.28775854483E+03
 0.32785467233E+03 0.32836858683E+03 0.31353285287E+03 0.27530010974E+03 0.22690317675E+03
 0.17834318851E+03 0.13278535238E+03 0.91303164204E+02 0.57446704196E+02 0.35140779411E+02
 0.23540461605E+02 0.17128475882E+02 0.13316508435E+02 0.11264129653E+02 0.10299027139E+02
 0.97752447041E+01 0.93436405584E+01 0.91426652447E+01 0.93436405584E+01 0.97752447041E+01
 0.10299027139E+02 0.11264129653E+02 0.13316508435E+02 0.17128475882E+02 0.23540461605E+02
 0.35140779411E+02 0.57446704196E+02 0.91303164204E+02 0.13278535238E+03 0.17834318851E+03
 0.22690317675E+03 0.27530010974E+03 0.31353285287E+03 0.28890657178E+03 0.27598047862E+03
 0.24248021618E+03 0.19965528155E+03 0.15633740232E+03 0.11585434652E+03 0.79673501677E+02
 0.50874551723E+02 0.32303702886E+02 0.22526485699E+02 0.16822441680E+02 0.13450037540E+02
 0.11632925864E+02 0.10769447553E+02 0.10299181312E+02 0.99211861434E+01 0.97477753983E+01
 0.99211861434E+01 0.10299181312E+02 0.10769447553E+02 0.11632925864E+02 0.13450037540E+02
 0.16822441680E+02 0.22526485699E+02 0.32303702886E+02 0.50874551723E+02 0.79673501677E+02
 0.11585434652E+03 0.15633740232E+03 0.19965528155E+03 0.24248021618E+03 0.27598047862E+03
 0.23758043170E+03 0.22699491196E+03 0.19934279762E+03 0.16355555560E+03 0.12712473788E+03
 0.93551147054E+02 0.64606923955E+02 0.42554919404E+02 0.28774446426E+02 0.21174330384E+02
 0.16485902954E+02 0.13753344109E+02 0.12295152165E+02 0.11608263229E+02 0.11245231717E+02
 0.10964475075E+02 0.10837337053E+02 0.10964475075E+02 0.11245231717E+02 0.11608263229E+02
 0.12295152165E+02 0.13753344109E+02 0.16485902954E+02 0.21174330384E+02 0.28774446426E+02
 0.42554919404E+02 0.64606923955E+02 0.93551147054E+02 0.12712473788E+03 0.16355555560E+03
 0.19934279762E+03 0.22699491196E+03 0.18482953134E+03 0.17651817015E+03 0.15465347209E+03
 0.12611044954E+03 0.97130028186E+02 0.71177966799E+02 0.49984112746E+02 0.34775246248E+02
 0.25502195649E+02 0.19856246897E+02 0.16351918967E+02 0.14391278584E+02 0.13413668757E+02
 0.13018822275E+02 0.12864262858E+02 0.12752129106E+02 0.12697222011E+02 0.12752129106E+02
 0.12864262858E+02 0.13018822275E+02 0.13413668757E+02 0.14391278584E+02 0.16351918967E+02
 0.19856246897E+02 0.25502195649E+02 0.34775246248E+02 0.49984112746E+02 0.71177966799E+02
 0.97130028186E+02 0.12611044954E+03 0.15465347209E+03 0.17651817015E+03 0.13543190710E+03
 0.12926114041E+03 0.11298001495E+03 0.91723871999E+02 0.70456169359E+02 0.52185680972E+02
 0.38214576484E+02 0.28783002569E+02 0.22847638155E+02 0.18932963735E+02 0.16687237381E+02
 0.15613963023E+02 0.15280153075E+02 0.15367683572E+02 0.15596925505E+02 0.15771273379E+02
 0.15828932304E+02 0.15771273379E+02 0.15596925505E+02 0.15367683572E+02 0.15280153075E+02
 0.15613963023E+02 0.16687237381E+02 0.18932963735E+02 0.22847638155E+02 0.28783002569E+02
 0.38214576484E+02 0.52185680972E+02 0.70456169359E+02 0.91723871999E+02 0.11298001495E+03
 0.12926114041E+03 0.91794094109E+02 0.87682768084E+02 0.76860293626E+02 0.62860044771E+02
 0.49194683457E+02 0.38002426638E+02 0.29953550746E+02 0.24598056673E+02 0.20898559426E+02
 0.18690003190E+02 0.17754157740E+02 0.17718292688E+02 0.18257038423E+02 0.19092806507E+02
 0.19960301037E+02 0.20610087098E+02 0.20849985223E+02 0.20610087098E+02 0.19960301037E+02
 0.19092806507E+02 0.18257038423E+02 0.17718292688E+02 0.17754157740E+02 0.18690003190E+02
 0.20898559426E+02 0.24598056673E+02 0.29953550746E+02 0.38002426638E+02 0.49194683457E+02
 0.62860044771E+02 0.76860293626E+02 0.87682768084E+02 0.57345379564E+02 0.55059556657E+02
 0.49083577075E+02 0.41478422974E+02 0.34271740185E+02 0.28595346482E+02 0.24538277409E+02
 0.21617682941E+02 0.19876463927E+02 0.19324009101E+02 0.19771590975E+02 0.20960905242E+02
 0.22725376413E+02 0.24886173477E+02 0.27050143980E+02 0.28675002694E+02 0.29280602349E+02
 0.28675002694E+02 0.27050143980E+02 0.24886173477E+02 0.22725376413E+02 0.20960905242E+02
 0.19771590975E+02 0.19324009101E+02 0.19876463927E+02 0.21617682941E+02 0.24538277409E+02
 0.28595346482E+02 0.34271740185E+02 0.41478422974E+02 0.49083577075E+02 0.55059556657E+02
 0.34932254682E+02 0.33947639501E+02 0.31392277354E+02 0.28180026204E+02 0.25150929374E+02
 0.22648308475E+02 0.20789382741E+02 0.19822613305E+02 0.19874233521E+02 0.20923163919E+02
 0.22867064388E+02 0.25769844104E+02 0.29597603745E+02 0.33996745965E+02 0.38239032078E+02
 0.41360379483E+02 0.42513895940E+02 0.41360379483E+02 0.38239032078E+02 0.33996745965E+02
 0.29597603745E+02 0.25769844104E+02 0.22867064388E+02 0.20923163919E+02 0.19874233521E+02
 0.19822613305E+02 0.20789382741E+02 0.22648308475E+02 0.25150929374E+02 0.28180026204E+02
 0.31392277354E+02 0.33947639501E+02 0.23089010176E+02 0.22752486817E+02 0.21853824525E+02
 0.20649438815E+02 0.19472327879E+02 0.18659664117E+02 0.18494195572E+02 0.19183944219E+02
 0.20837628387E+02 0.23490113241E+02 0.27400896239E+02 0.32707577683E+02 0.39216794237E+02
 0.46317510580E+02 0.52935917558E+02 0.57711944299E+02 0.59461943221E+02 0.57711944299E+02
 0.52935917558E+02 0.46317510580E+02 0.39216794237E+02 0.32707577683E+02 0.27400896239E+02
 0.23490113241E+02 0.20837628387E+02 0.19183944219E+02 0.18494195572E+02 0.18659664117E+02
 0.19472327879E+02 0.20649438815E+02 0.21853824525E+02 0.22752486817E+02 0.16454717382E+02
 0.16361119061E+02 0.16126558428E+02 0.15887923240E+02 0.15856593457E+02 0.16283086292E+02
 0.17421708587E+02 0.19491247708E+02 0.22629723359E+02 0.27222151240E+02 0.33569050196E+02
 0.41542608189E+02 0.50669162219E+02 0.60130783310E+02 0.68684295635E+02 0.74766046802E+02
 0.76982488135E+02 0.74766046802E+02 0.68684295635E+02 0.60130783310E+02 0.50669162219E+02
 0.41542608189E+02 0.33569050196E+02 0.27222151240E+02 0.22629723359E+02 0.19491247708E+02
 0.17421708587E+02 0.16283086292E+02 0.15856593457E+02 0.15887923240E+02 0.16126558428E+02
 0.16361119061E+02 0.12419189856E+02 0.12474159263E+02 0.12654171174E+02 0.13026898573E+02
 0.13744931405E+02 0.15043509389E+02 0.17204760411E+02 0.20475863600E+02 0.25264475163E+02
 0.32166057663E+02 0.41125477073E+02 0.51533292077E+02 0.62608827787E+02 0.73525745921E+02
 0.83167541161E+02 0.89990047613E+02 0.92479751211E+02 0.89990047613E+02 0.83167541161E+02
 0.73525745921E+02 0.62608827787E+02 0.51533292077E+02 0.41125477073E+02 0.32166057663E+02
 0.25264475163E+02 0.20475863600E+02 0.17204760411E+02 0.15043509389E+02 0.13744931405E+02
 0.13026898573E+02 0.12654171174E+02 0.12474159263E+02 0.10180578188E+02 0.10313141192E+02
 0.10712808307E+02 0.11425534855E+02 0.12605534898E+02 0.14526825010E+02 0.17528793517E+02
 0.21963756027E+02 0.28673290795E+02 0.38100767996E+02 0.49614596415E+02 0.62008153788E+02
 0.74298946841E+02 0.85930022729E+02 0.96156584488E+02 0.10349903837E+03 0.10621281212E+03
 0.10349903837E+03 0.96156584488E+02 0.85930022729E+02 0.74298946841E+02 0.62008153788E+02
 0.49614596415E+02 0.38100767996E+02 0.28673290795E+02 0.21963756027E+02 0.17528793517E+02
 0.14526825010E+02 0.12605534898E+02 0.11425534855E+02 0.10712808307E+02 0.10313141192E+02
 0.90755652025E+01 0.92383208466E+01 0.97282469334E+01 0.10602359898E+02 0.12055699136E+02
 0.14431819216E+02 0.18136211840E+02 0.23787422753E+02 0.32540202512E+02 0.44509031236E+02
 0.58396751843E+02 0.72438933642E+02 0.85648558830E+02 0.97966439410E+02 0.10907100067E+03
 0.11733404462E+03 0.12045677961E+03 0.11733404462E+03 0.10907100067E+03 0.97966439410E+02
 0.85648558830E+02 0.72438933642E+02 0.58396751843E+02 0.44509031236E+02 0.32540202512E+02
 0.23787422753E+02 0.18136211840E+02 0.14431819216E+02 0.12055699136E+02 0.10602359898E+02
 0.97282469334E+01 0.92383208466E+01 0.84561748953E+01 0.86321917461E+01 0.91653909838E+01
 0.10132026206E+02 0.11774028572E+02 0.14503477563E+02 0.18794215664E+02 0.25611243612E+02
 0.36251032700E+02 0.50486930518E+02 0.66430349109E+02 0.81920601958E+02 0.96142972691E+02
 0.10960339937E+03 0.12227240680E+03 0.13207646170E+03 0.13585782893E+03 0.13207646170E+03
 0.12227240680E+03 0.10960339937E+03 0.96142972691E+02 0.81920601958E+02 0.66430349109E+02
 0.50486930518E+02 0.36251032700E+02 0.25611243612E+02 0.18794215664E+02 0.14503477563E+02
 0.11774028572E+02 0.10132026206E+02 0.91653909838E+01 0.86321917461E+01 0.79700075393E+01
 0.81605644025E+01 0.87383096134E+01 0.97889025278E+01 0.11581838889E+02 0.14571973739E+02
 0.19293800303E+02 0.26980253198E+02 0.38981821492E+02 0.54825725512E+02 0.72231606073E+02
 0.88831796371E+02 0.10402615518E+03 0.11875846657E+03 0.13311917280E+03 0.14451439453E+03
 0.14896005101E+03 0.14451439453E+03 0.13311917280E+03 0.11875846657E+03 0.10402615518E+03
 0.88831796371E+02 0.72231606073E+02 0.54825725512E+02 0.38981821492E+02 0.26980253198E+02
 0.19293800303E+02 0.14571973739E+02 0.11581838889E+02 0.97889025278E+01 0.87383096134E+01
 0.81605644025E+01 0.77515493236E+01 0.79501513068E+01 0.85515527237E+01 0.96426858377E+01
 0.11500377646E+02 0.14592655646E+02 0.19478884943E+02 0.27490630201E+02 0.39992287169E+02
 0.56422802270E+02 0.74367092409E+02 0.91398104155E+02 0.10701111530E+03 0.12231356105E+03
 0.13741869785E+03 0.14950034076E+03 0.15422973932E+03 0.14950034076E+03 0.13741869785E+03
 0.12231356105E+03 0.10701111530E+03 0.91398104155E+02 0.74367092409E+02 0.56422802270E+02
 0.39992287169E+02 0.27490630201E+02 0.19478884943E+02 0.14592655646E+02 0.11500377646E+02
 0.96426858377E+01 0.85515527237E+01 0.79501513068E+01 0.79700075393E+01 0.81605644025E+01
 0.87383096134E+01 0.97889025278E+01 0.11581838889E+02 0.14571973739E+02 0.19293800303E+02
 0.26980253198E+02 0.38981821492E+02 0.54825725512E+02 0.72231606073E+02 0.88831796371E+02
 0.10402615518E+03 0.11875846657E+03 0.13311917280E+03 0.14451439453E+03 0.14896005101E+03
 0.14451439453E+03 0.13311917280E+03 0.11875846657E+03 0.10402615518E+03 0.88831796371E+02
 0.72231606073E+02 0.54825725512E+02 0.38981821492E+02 0.26980253198E+02 0.19293800303E+02
 0.14571973739E+02 0.11581838889E+02 0.97889025278E+01 0.87383096134E+01 0.81605644025E+01
 0.84561748953E+01 0.86321917461E+01 0.91653909838E+01 0.10132026206E+02 0.11774028572E+02
 0.14503477563E+02 0.18794215664E+02 0.25611243612E+02 0.36251032700E+02 0.50486930518E+02
 0.66430349109E+02 0.81920601958E+02 0.96142972691E+02 0.10960339937E+03 0.12227240680E+03
 0.13207646170E+03 0.13585782893E+03 0.13207646170E+03 0.12227240680E+03 0.10960339937E+03
 0.96142972691E+02 0.81920601958E+02 0.66430349109E+02 0.50486930518E+02 0.36251032700E+02