   4   4   0   0
  0.1444527E+02  0.3866000E-09  0.3866000E-09  0.3866000E-09  0.5000000E-15
  1.000000000000000E-004
  CAR 
 unknown system                          
     27.36388961     -1.90337086  301      9.21952524      1.00000000
     -1.903  0.0000E+00  0.0000E+00
     -1.806  0.0000E+00  0.0000E+00
     -1.708  0.0000E+00  0.0000E+00
     -1.611  0.0000E+00  0.0000E+00
     -1.513 -0.2727E-28 -0.2660E-29
     -1.416 -0.5190E-25 -0.5066E-26
     -1.318 -0.6113E-22 -0.5968E-23
     -1.220 -0.4451E-19 -0.4349E-20
     -1.123 -0.2002E-16 -0.1958E-17
     -1.025 -0.5385E-14 -0.5273E-15
     -0.928 -0.9149E-12 -0.8978E-13
     -0.830 -0.9538E-10 -0.9395E-11
     -0.733 -0.6076E-08 -0.6021E-09
     -0.635 -0.2350E-06 -0.2353E-07
     -0.538 -0.5463E-05 -0.5565E-06
     -0.440 -0.7490E-04 -0.7863E-05
     -0.342 -0.5828E-03 -0.6472E-04
     -0.245 -0.2324E-02 -0.2915E-03
     -0.147 -0.2828E-02 -0.5674E-03
     -0.050  0.1061E-01  0.4681E-03
      0.048  0.4399E-01  0.4760E-02
      0.145  0.6258E-01  0.1086E-01
      0.243  0.3236E-01  0.1402E-01
      0.340 -0.6248E-02  0.1341E-01
      0.438  0.4529E-01  0.1783E-01
      0.536  0.2298E+00  0.4025E-01
      0.633  0.3727E+00  0.7661E-01
      0.731  0.2644E+00  0.1024E+00
      0.828  0.6101E-01  0.1084E+00
      0.926  0.1307E+00  0.1211E+00
      1.023  0.5270E+00  0.1725E+00
      1.121  0.7600E+00  0.2467E+00
      1.218  0.4896E+00  0.2944E+00
      1.316  0.1781E+00  0.3118E+00
      1.414  0.2792E+00  0.3391E+00
      1.511  0.5056E+00  0.3884E+00
      1.609  0.4506E+00  0.4323E+00
      1.706  0.2212E+00  0.4539E+00
      1.804  0.6956E-01  0.4607E+00
      1.901  0.9135E-01  0.4696E+00
      1.999  0.2901E+00  0.4979E+00
      2.096  0.5201E+00  0.5486E+00
      2.194  0.6944E+00  0.6164E+00
      2.292  0.1059E+01  0.7197E+00
      2.389  0.1619E+01  0.8777E+00
      2.487  0.1840E+01  0.1057E+01
      2.584  0.1504E+01  0.1204E+01
      2.682  0.8126E+00  0.1283E+01
      2.779  0.3343E+00  0.1316E+01
      2.877  0.7859E+00  0.1393E+01
      2.975  0.1965E+01  0.1584E+01
      3.072  0.2807E+01  0.1858E+01
      3.170  0.2842E+01  0.2135E+01
      3.267  0.2469E+01  0.2376E+01
      3.365  0.1896E+01  0.2561E+01
      3.462  0.1897E+01  0.2746E+01
      3.560  0.3523E+01  0.3090E+01
      3.657  0.5409E+01  0.3618E+01
      3.755  0.5453E+01  0.4150E+01
      3.853  0.4841E+01  0.4622E+01
      3.950  0.5538E+01  0.5162E+01
      4.048  0.6798E+01  0.5825E+01
      4.145  0.7380E+01  0.6545E+01
      4.243  0.7137E+01  0.7242E+01
      4.340  0.6059E+01  0.7833E+01
      4.438  0.4845E+01  0.8305E+01
      4.535  0.4862E+01  0.8780E+01
      4.633  0.5876E+01  0.9353E+01
      4.731  0.6294E+01  0.9967E+01
      4.828  0.5660E+01  0.1052E+02
      4.926  0.4798E+01  0.1099E+02
      5.023  0.4424E+01  0.1142E+02
      5.121  0.4629E+01  0.1187E+02
      5.218  0.4733E+01  0.1233E+02
      5.316  0.4405E+01  0.1276E+02
      5.413  0.4547E+01  0.1321E+02
      5.511  0.5519E+01  0.1374E+02
      5.609  0.6503E+01  0.1438E+02
      5.706  0.6956E+01  0.1506E+02
      5.804  0.6748E+01  0.1572E+02
      5.901  0.6198E+01  0.1632E+02
      5.999  0.6613E+01  0.1696E+02
      6.096  0.7982E+01  0.1774E+02
      6.194  0.8405E+01  0.1856E+02
      6.291  0.8333E+01  0.1938E+02
      6.389  0.1015E+02  0.2037E+02
      6.487  0.1252E+02  0.2159E+02
      6.584  0.1188E+02  0.2275E+02
      6.682  0.8581E+01  0.2358E+02
      6.779  0.6293E+01  0.2420E+02
      6.877  0.6849E+01  0.2487E+02
      6.974  0.8538E+01  0.2570E+02
      7.072  0.9309E+01  0.2661E+02
      7.169  0.9350E+01  0.2752E+02
      7.267  0.9290E+01  0.2843E+02
      7.365  0.8422E+01  0.2925E+02
      7.462  0.6452E+01  0.2988E+02
      7.560  0.4906E+01  0.3036E+02
      7.657  0.4690E+01  0.3081E+02
      7.755  0.4964E+01  0.3130E+02
      7.852  0.4853E+01  0.3177E+02
      7.950  0.4510E+01  0.3221E+02
      8.047  0.4925E+01  0.3269E+02
      8.145  0.6498E+01  0.3332E+02
      8.243  0.8018E+01  0.3411E+02
      8.340  0.8252E+01  0.3491E+02
      8.438  0.7499E+01  0.3564E+02
      8.535  0.6431E+01  0.3627E+02
      8.633  0.5379E+01  0.3680E+02
      8.730  0.4513E+01  0.3724E+02
      8.828  0.4180E+01  0.3764E+02
      8.926  0.4917E+01  0.3812E+02
      9.023  0.6100E+01  0.3872E+02
      9.121  0.6632E+01  0.3937E+02
      9.218  0.6418E+01  0.3999E+02
      9.316  0.5675E+01  0.4055E+02
      9.413  0.4754E+01  0.4101E+02
      9.511  0.4019E+01  0.4140E+02
      9.608  0.3530E+01  0.4175E+02
      9.706  0.3554E+01  0.4209E+02
      9.804  0.3663E+01  0.4245E+02
      9.901  0.2759E+01  0.4272E+02
      9.999  0.1325E+01  0.4285E+02
     10.096  0.8033E+00  0.4293E+02
     10.194  0.1178E+01  0.4304E+02
     10.291  0.1325E+01  0.4317E+02
     10.389  0.9793E+00  0.4327E+02
     10.486  0.8228E+00  0.4335E+02
     10.584  0.9548E+00  0.4344E+02
     10.682  0.9390E+00  0.4353E+02
     10.779  0.9275E+00  0.4362E+02
     10.877  0.1216E+01  0.4374E+02
     10.974  0.1524E+01  0.4389E+02
     11.072  0.1656E+01  0.4405E+02
     11.169  0.1505E+01  0.4420E+02
     11.267  0.9303E+00  0.4429E+02
     11.364  0.4633E+00  0.4433E+02
     11.462  0.6102E+00  0.4439E+02
     11.560  0.9269E+00  0.4448E+02
     11.657  0.8500E+00  0.4457E+02
     11.755  0.6661E+00  0.4463E+02
     11.852  0.8179E+00  0.4471E+02
     11.950  0.1006E+01  0.4481E+02
     12.047  0.8655E+00  0.4489E+02
     12.145  0.6187E+00  0.4495E+02
     12.242  0.4985E+00  0.4500E+02
     12.340  0.3924E+00  0.4504E+02
     12.438  0.3693E+00  0.4508E+02
     12.535  0.6571E+00  0.4514E+02
     12.633  0.1212E+01  0.4526E+02
     12.730  0.1672E+01  0.4542E+02
     12.828  0.1678E+01  0.4559E+02
     12.925  0.1427E+01  0.4573E+02
     13.023  0.1259E+01  0.4585E+02
     13.120  0.1166E+01  0.4596E+02
     13.218  0.1001E+01  0.4606E+02
     13.316  0.7881E+00  0.4614E+02
     13.413  0.7669E+00  0.4621E+02
     13.511  0.9042E+00  0.4630E+02
     13.608  0.9199E+00  0.4639E+02
     13.706  0.1114E+01  0.4650E+02
     13.803  0.1842E+01  0.4668E+02
     13.901  0.2296E+01  0.4690E+02
     13.999  0.1875E+01  0.4708E+02
     14.096  0.1105E+01  0.4719E+02
     14.194  0.4155E+00  0.4723E+02
     14.291  0.4048E-01  0.4724E+02
     14.389  0.1536E+00  0.4725E+02
     14.486  0.5450E+00  0.4731E+02
     14.584  0.7078E+00  0.4737E+02
     14.681  0.4223E+00  0.4742E+02
     14.779  0.6704E-01  0.4742E+02
     14.877  0.6868E-01  0.4743E+02
     14.974  0.4755E+00  0.4748E+02
     15.072  0.1069E+01  0.4758E+02
     15.169  0.1499E+01  0.4773E+02
     15.267  0.1431E+01  0.4787E+02
     15.364  0.1137E+01  0.4798E+02
     15.462  0.1379E+01  0.4811E+02
     15.559  0.2037E+01  0.4831E+02
     15.657  0.2175E+01  0.4852E+02
     15.755  0.1818E+01  0.4870E+02
     15.852  0.1489E+01  0.4884E+02
     15.950  0.1059E+01  0.4895E+02
     16.047  0.8266E+00  0.4903E+02
     16.145  0.1345E+01  0.4916E+02
     16.242  0.1982E+01  0.4935E+02
     16.340  0.1646E+01  0.4951E+02
     16.437  0.6207E+00  0.4957E+02
     16.535 -0.4808E-01  0.4957E+02
     16.633 -0.1265E-01  0.4957E+02
     16.730  0.6719E+00  0.4963E+02
     16.828  0.1711E+01  0.4980E+02
     16.925  0.2270E+01  0.5002E+02
     17.023  0.1930E+01  0.5021E+02
     17.120  0.1148E+01  0.5032E+02
     17.218  0.4154E+00  0.5036E+02
     17.315  0.1161E+00  0.5037E+02
     17.413  0.4769E+00  0.5042E+02
     17.511  0.1108E+01  0.5053E+02
     17.608  0.1380E+01  0.5066E+02
     17.706  0.1329E+01  0.5079E+02
     17.803  0.1649E+01  0.5095E+02
     17.901  0.2612E+01  0.5121E+02
     17.998  0.3093E+01  0.5151E+02
     18.096  0.2198E+01  0.5172E+02
     18.193  0.9023E+00  0.5181E+02
     18.291  0.3835E+00  0.5185E+02
     18.389  0.5822E+00  0.5191E+02
     18.486  0.9993E+00  0.5200E+02
     18.584  0.1491E+01  0.5215E+02
     18.681  0.1807E+01  0.5233E+02
     18.779  0.1691E+01  0.5249E+02
     18.876  0.1510E+01  0.5264E+02
     18.974  0.1495E+01  0.5278E+02
     19.071  0.1228E+01  0.5290E+02
     19.169  0.6680E+00  0.5297E+02
     19.267  0.4527E+00  0.5301E+02
     19.364  0.8902E+00  0.5310E+02
     19.462  0.1450E+01  0.5324E+02
     19.559  0.1476E+01  0.5339E+02
     19.657  0.1114E+01  0.5349E+02
     19.754  0.1157E+01  0.5361E+02
     19.852  0.1819E+01  0.5378E+02
     19.950  0.2488E+01  0.5403E+02
     20.047  0.2754E+01  0.5430E+02
     20.145  0.2533E+01  0.5454E+02
     20.242  0.1919E+01  0.5473E+02
     20.340  0.1597E+01  0.5489E+02
     20.437  0.1875E+01  0.5507E+02
     20.535  0.1990E+01  0.5526E+02
     20.632  0.1526E+01  0.5541E+02
     20.730  0.8784E+00  0.5550E+02
     20.828  0.4561E+00  0.5554E+02
     20.925  0.6275E+00  0.5560E+02
     21.023  0.1450E+01  0.5575E+02
     21.120  0.2194E+01  0.5596E+02
     21.218  0.2150E+01  0.5617E+02
     21.315  0.1670E+01  0.5633E+02
     21.413  0.1669E+01  0.5649E+02
     21.510  0.2306E+01  0.5672E+02
     21.608  0.2764E+01  0.5699E+02
     21.706  0.2481E+01  0.5723E+02
     21.803  0.1869E+01  0.5741E+02
     21.901  0.1533E+01  0.5756E+02
     21.998  0.1509E+01  0.5771E+02
     22.096  0.1608E+01  0.5787E+02
     22.193  0.1734E+01  0.5804E+02
     22.291  0.1786E+01  0.5821E+02
     22.388  0.1735E+01  0.5838E+02
     22.486  0.1462E+01  0.5852E+02
     22.584  0.1029E+01  0.5862E+02
     22.681  0.8586E+00  0.5871E+02
     22.779  0.1058E+01  0.5881E+02
     22.876  0.1347E+01  0.5894E+02
     22.974  0.1398E+01  0.5908E+02
     23.071  0.1045E+01  0.5918E+02
     23.169  0.5367E+00  0.5923E+02
     23.266  0.3198E+00  0.5926E+02
     23.364  0.3956E+00  0.5930E+02
     23.462  0.3927E+00  0.5934E+02
     23.559  0.2031E+00  0.5936E+02
     23.657  0.3077E-01  0.5936E+02
     23.754 -0.1932E-01  0.5936E+02
     23.852 -0.1178E-01  0.5936E+02
     23.949 -0.6323E-02  0.5936E+02
     24.047 -0.1757E-01  0.5936E+02
     24.144 -0.3488E-01  0.5935E+02
     24.242  0.2386E-01  0.5936E+02
     24.340  0.2758E+00  0.5938E+02
     24.437  0.6768E+00  0.5945E+02
     24.535  0.1033E+01  0.5955E+02
     24.632  0.1104E+01  0.5966E+02
     24.730  0.7337E+00  0.5973E+02
     24.827  0.2199E+00  0.5975E+02
     24.925 -0.4637E-01  0.5975E+02
     25.023 -0.8299E-01  0.5974E+02
     25.120  0.4200E-01  0.5974E+02
     25.218  0.4276E+00  0.5978E+02
     25.315  0.8791E+00  0.5987E+02
     25.413  0.8901E+00  0.5996E+02
     25.510  0.4481E+00  0.6000E+02
     25.608  0.6372E-01  0.6001E+02
     25.705 -0.4191E-01  0.6000E+02
     25.803 -0.2358E-01  0.6000E+02
     25.901 -0.5318E-02  0.6000E+02
     25.998 -0.6480E-03  0.6000E+02
     26.096 -0.4585E-04  0.6000E+02
     26.193 -0.1937E-05  0.6000E+02
     26.291 -0.4951E-07  0.6000E+02
     26.388 -0.7719E-09  0.6000E+02
     26.486 -0.7372E-11  0.6000E+02
     26.583 -0.4312E-13  0.6000E+02
     26.681 -0.2913E-15  0.6000E+02
     26.779  0.0000E+00  0.6000E+02
     26.876  0.0000E+00  0.6000E+02
     26.974  0.0000E+00  0.6000E+02
     27.071  0.0000E+00  0.6000E+02
     27.169  0.0000E+00  0.6000E+02
     27.266  0.0000E+00  0.6000E+02
     27.364  0.0000E+00  0.6000E+02
