    4    4    1    1
  0.1444527E+02  0.3866000E-09  0.3866000E-09  0.3866000E-09  0.5000000E-15
  1.000000000000000E-004
  CAR 
 unknown system                          
     40     27     30
 
  0.0000000E+00  0.0000000E+00  0.0000000E+00  0.8000000E-02
    1        0.096629   1.000000
    2        2.586814   1.000000
    3        3.539659   1.000000
    4        3.552547   1.000000
    5        3.632461   1.000000
    6        3.725419   1.000000
    7        3.729240   1.000000
    8        6.206070   1.000000
    9        6.207086   1.000000
   10        6.348451   1.000000
   11        7.461245   1.000000
   12        7.588626   1.000000
   13        8.240067   1.000000
   14        8.394143   1.000000
   15        8.553757   1.000013
   16        9.247404   0.383297
   17        9.407956  -0.018035
   18        9.503747  -0.030975
   19        9.781990  -0.000257
   20       10.252054  -0.000000
   21       10.826213  -0.000000
   22       11.383932  -0.000000
   23       11.391419  -0.000000
   24       11.404519  -0.000000
   25       17.898030   0.000000
   26       18.144659   0.000000
   27       19.757281   0.000000
   28       20.285003   0.000000
   29       20.429831   0.000000
   30       20.668678   0.000000
 
  0.2000000E+00  0.0000000E+00  0.0000000E+00  0.1600000E-01
    1        0.563913   1.000000
    2        2.889014   1.000000
    3        3.699823   1.000000
    4        3.710621   1.000000
    5        3.908928   1.000000
    6        3.991672   1.000000
    7        4.058407   1.000000
    8        5.979388   1.000000
    9        6.350531   1.000000
   10        6.506587   1.000000
   11        7.356540   1.000000
   12        7.507162   1.000000
   13        7.679578   1.000000
   14        7.862472   1.000000
   15        8.004186   1.000000
   16        8.219113   1.000000
   17        9.018789   1.025505
   18        9.110411   0.894092
   19        9.249154   0.376144
   20        9.473635  -0.035154
   21        9.721503  -0.001108
   22       10.824612  -0.000000
   23       13.176100  -0.000000
   24       13.182026  -0.000000
   25       17.899660   0.000000
   26       18.014082   0.000000
   27       20.379095   0.000000
   28       20.421178   0.000000
   29       20.583563   0.000000
   30       20.981334   0.000000
 
  0.0000000E+00  0.2000000E+00  0.0000000E+00  0.1600000E-01
    1        0.614958   1.000000
    2        2.907731   1.000000
    3        3.659052   1.000000
    4        3.784914   1.000000
    5        3.851137   1.000000
    6        3.989196   1.000000
    7        4.086080   1.000000
    8        6.140451   1.000000
    9        6.377942   1.000000
   10        6.382325   1.000000
   11        7.285455   1.000000
   12        7.613759   1.000000
   13        7.629141   1.000000
   14        7.769321   1.000000
   15        8.282969   1.000000
   16        8.755956   1.002513
   17        9.025520   1.021730
   18        9.206478   0.555078
   19        9.230964   0.451685
   20        9.302655   0.179678
   21        9.483676  -0.034216
   22        9.702737  -0.001671
   23       13.286364  -0.000000
   24       13.402985  -0.000000
   25       17.422683   0.000000
   26       18.671180   0.000000
   27       20.314643   0.000000
   28       20.376275   0.000000
   29       20.579725   0.000000
   30       21.282706   0.000000
 
  0.0000000E+00  0.0000000E+00  0.2000000E+00  0.1600000E-01
    1        0.616648   1.000000
    2        2.919961   1.000000
    3        3.812817   1.000000
    4        3.859578   1.000000
    5        3.898424   1.000000
    6        3.905324   1.000000
    7        3.915574   1.000000
    8        5.960331   1.000000
    9        6.349513   1.000000
   10        6.507803   1.000000
   11        7.293701   1.000000
   12        7.581833   1.000000
   13        7.596535   1.000000
   14        7.945293   1.000000
   15        8.090030   1.000000
   16        8.526322   1.000005
   17        8.851294   1.012900
   18        9.138014   0.815192
   19        9.173564   0.688898
   20        9.309866   0.157570
   21        9.735144  -0.000811
   22       10.236606  -0.000000
   23       13.258136  -0.000000
   24       13.368839  -0.000000
   25       17.109115   0.000000
   26       18.879018   0.000000
   27       20.406147   0.000000
   28       20.429422   0.000000
   29       20.698233   0.000000
   30       21.205969   0.000000
 
  0.4000000E+00  0.0000000E+00  0.0000000E+00  0.1600000E-01
    1        1.676701   1.000000
    2        3.500313   1.000000
    3        3.800461   1.000000
    4        4.061398   1.000000
    5        4.712550   1.000000
    6        4.751498   1.000000
    7        4.843727   1.000000
    8        5.518496   1.000000
    9        6.042882   1.000000
   10        6.143242   1.000000
   11        6.853440   1.000000
   12        6.928030   1.000000
   13        6.964444   1.000000
   14        7.158699   1.000000
   15        7.338806   1.000000
   16        7.592901   1.000000
   17        8.205893   1.000000
   18        8.216315   1.000000
   19        8.248439   1.000000
   20        8.556958   1.000015
   21        9.350254   0.057363
   22       10.822551  -0.000000
   23       15.726996   0.000000
   24       15.802422   0.000000
   25       17.055201   0.000000
   26       18.026473   0.000000
   27       18.600946   0.000000
   28       18.723027   0.000000
   29       19.150788   0.000000
   30       21.816215   0.000000
 
  0.0000000E+00  0.4000000E+00  0.0000000E+00  0.1600000E-01
    1        1.988611   1.000000
    2        3.296875   1.000000
    3        3.781809   1.000000
    4        4.114943   1.000000
    5        4.647865   1.000000
    6        4.697632   1.000000
    7        4.971901   1.000000
    8        5.730211   1.000000
    9        6.342866   1.000000
   10        6.366829   1.000000
   11        6.814391   1.000000
   12        6.899075   1.000000
   13        6.919847   1.000000
   14        7.088592   1.000000
   15        7.565459   1.000000
   16        7.881231   1.000000
   17        7.889564   1.000000
   18        8.091179   1.000000
   19        8.195077   1.000000
   20        8.456537   1.000000
   21        9.144009   0.795684
   22        9.466163  -0.035447
   23       15.912000   0.000000
   24       15.961330   0.000000
   25       16.683194   0.000000
   26       18.466948   0.000000
   27       18.494058   0.000000
   28       18.620834   0.000000
   29       20.474824   0.000000
   30       20.729119   0.000000
 
  0.0000000E+00  0.0000000E+00  0.4000000E+00  0.1600000E-01
    1        2.003708   1.000000
    2        3.294764   1.000000
    3        3.991820   1.000000
    4        4.352875   1.000000
    5        4.643992   1.000000
    6        4.735579   1.000000
    7        4.748902   1.000000
    8        5.411908   1.000000
    9        6.035382   1.000000
   10        6.151629   1.000000
   11        6.822534   1.000000
   12        6.977672   1.000000
   13        6.981625   1.000000
   14        7.118317   1.000000
   15        7.389158   1.000000
   16        7.720589   1.000000
   17        8.023548   1.000000
   18        8.053633   1.000000
   19        8.431315   1.000000
   20        8.497286   1.000002
   21        8.942347   1.032276
   22       10.216099  -0.000000
   23       15.887530   0.000000
   24       16.017571   0.000000
   25       16.241098   0.000000
   26       18.439459   0.000000
   27       18.713990   0.000000
   28       18.983386   0.000000
   29       20.068670   0.000000
   30       21.087840   0.000000
 
  0.2000000E+00  0.2000000E+00  0.0000000E+00  0.3200000E-01
    1        1.060111   1.000000
    2        3.197665   1.000000
    3        3.930419   1.000000
    4        3.938031   1.000000
    5        4.109825   1.000000
    6        4.114083   1.000000
    7        4.395068   1.000000
    8        5.923826   1.000000
    9        6.401243   1.000000
   10        6.534113   1.000000
   11        7.057458   1.000000
   12        7.254419   1.000000
   13        7.280416   1.000000
   14        7.349703   1.000000
   15        7.805731   1.000000
   16        7.993897   1.000000
   17        8.358574   1.000000
   18        8.922937   1.028405
   19        8.977472   1.035425
   20        9.066725   0.980256
   21        9.739583  -0.000731
   22       10.897424  -0.000000
   23       11.886152  -0.000000
   24       14.551319  -0.000000
   25       16.954812   0.000000
   26       19.014316   0.000000
   27       20.036241   0.000000
   28       20.411439   0.000000
   29       21.038666   0.000000
   30       21.674290   0.000000
 
  0.0000000E+00  0.2000000E+00  0.2000000E+00  0.3200000E-01
    1        1.085989   1.000000
    2        3.232653   1.000000
    3        3.915664   1.000000
    4        3.983648   1.000000
    5        4.045297   1.000000
    6        4.226780   1.000000
    7        4.340656   1.000000
    8        5.906603   1.000000
    9        6.402613   1.000000
   10        6.536722   1.000000
   11        7.078855   1.000000
   12        7.232646   1.000000
   13        7.298264   1.000000
   14        7.325964   1.000000
   15        7.769334   1.000000
   16        8.102449   1.000000
   17        8.455893   1.000000
   18        8.724545   1.001294
   19        8.933891   1.030698
   20        8.934356   1.030790
   21        9.567870  -0.016768
   22       10.930310  -0.000000
   23       12.249992  -0.000000
   24       14.455252  -0.000000
   25       16.814967   0.000000
   26       19.063814   0.000000
   27       19.519258   0.000000
   28       20.940802   0.000000
   29       21.196695   0.000000
   30       21.922600   0.000000
 
  0.2000000E+00  0.0000000E+00  0.2000000E+00  0.3200000E-01
    1        1.060036   1.000000
    2        3.213031   1.000000
    3        3.940312   1.000000
    4        3.957395   1.000000
    5        4.070996   1.000000
    6        4.229008   1.000000
    7        4.329557   1.000000
    8        5.785560   1.000000
    9        6.460241   1.000000
   10        6.564085   1.000000
   11        7.028550   1.000000
   12        7.241143   1.000000
   13        7.242638   1.000000
   14        7.303969   1.000000
   15        7.802089   1.000000
   16        7.851807   1.000000
   17        8.230543   1.000000
   18        9.011167   1.028938
   19        9.072647   0.971308
   20        9.271021   0.289906
   21        9.858729  -0.000030
   22       11.148628  -0.000000
   23       11.547259  -0.000000
   24       14.544285  -0.000000
   25       16.922315   0.000000
   26       18.943687   0.000000
   27       19.980292   0.000000
   28       20.533939   0.000000
   29       21.111309   0.000000
   30       21.810433   0.000000
 
  0.4000000E+00  0.2000000E+00  0.0000000E+00  0.3200000E-01
    1        2.141015   1.000000
    2        3.775426   1.000000
    3        4.125760   1.000000
    4        4.302049   1.000000
    5        4.678869   1.000000
    6        4.840409   1.000000
    7        5.031002   1.000000
    8        5.474846   1.000000
    9        5.681341   1.000000
   10        6.094966   1.000000
   11        6.364616   1.000000
   12        6.484171   1.000000
   13        6.937403   1.000000
   14        7.190042   1.000000
   15        7.336276   1.000000
   16        7.678858   1.000000
   17        7.854180   1.000000
   18        8.417691   1.000000
   19        8.457797   1.000001
   20        8.952898   1.033902
   21        9.566634  -0.017026
   22        9.826507  -0.000077
   23       13.134037  -0.000000
   24       15.189291   0.000000
   25       16.920414   0.000000
   26       18.084518   0.000000
   27       19.554906   0.000000
   28       19.819034   0.000000
   29       21.823101   0.000000
   30       23.076660   0.000000
 
  0.0000000E+00  0.4000000E+00  0.2000000E+00  0.3200000E-01
    1        2.341980   1.000000
    2        3.638146   1.000000
    3        4.032300   1.000000
    4        4.309109   1.000000
    5        4.601653   1.000000
    6        4.817906   1.000000
    7        5.161435   1.000000
    8        5.635459   1.000000
    9        5.793837   1.000000
   10        6.272627   1.000000
   11        6.344944   1.000000
   12        6.499713   1.000000
   13        6.929669   1.000000
   14        7.151595   1.000000
   15        7.626492   1.000000
   16        7.704727   1.000000
   17        7.776451   1.000000
   18        8.196826   1.000000
   19        8.396693   1.000000
   20        8.964879   1.035119
   21        9.081679   0.956057
   22        9.388881  -0.001066
   23       13.599378  -0.000000
   24       15.148790   0.000000
   25       16.788534   0.000000
   26       18.363986   0.000000
   27       19.382295   0.000000
   28       19.567393   0.000000
   29       21.673020   0.000000
   30       23.303064   0.000000
 
  0.2000000E+00  0.0000000E+00  0.4000000E+00  0.3200000E-01
    1        2.378525   1.000000
    2        3.647312   1.000000
    3        4.250674   1.000000
    4        4.447238   1.000000
    5        4.635577   1.000000
    6        4.961498   1.000000
    7        4.961734   1.000000
    8        5.292269   1.000000
    9        5.574818   1.000000
   10        6.154277   1.000000
   11        6.423186   1.000000
   12        6.516689   1.000000
   13        6.961370   1.000000
   14        7.201056   1.000000
   15        7.357891   1.000000
   16        7.692946   1.000000
   17        7.993188   1.000000
   18        8.297239   1.000000
   19        8.470683   1.000001
   20        8.703868   1.000810
   21        9.296314   0.200110
   22        9.463304  -0.035453
   23       13.465262  -0.000000
   24       15.190556   0.000000
   25       16.836373   0.000000
   26       17.954296   0.000000
   27       19.368425   0.000000
   28       20.130462   0.000000
   29       21.941374   0.000000
   30       22.957503   0.000000
 
 -0.2000000E+00  0.4000000E+00  0.0000000E+00  0.3200000E-01
    1        2.376373   1.000000
    2        3.626553   1.000000
    3        4.080597   1.000000
    4        4.323750   1.000000
    5        4.620707   1.000000
    6        4.780434   1.000000
    7        5.145443   1.000000
    8        5.639170   1.000000
    9        5.965680   1.000000
   10        6.256296   1.000000
   11        6.263665   1.000000
   12        6.482948   1.000000
   13        6.927939   1.000000
   14        7.183633   1.000000
   15        7.533429   1.000000
   16        7.731340   1.000000
   17        7.809222   1.000000
   18        8.214827   1.000000
   19        8.470016   1.000001
   20        8.874430   1.017451
   21        8.981799   1.035247
   22        9.249363   0.375292
   23       13.514251  -0.000000
   24       15.181328   0.000000
   25       16.834660   0.000000
   26       18.329332   0.000000
   27       19.352362   0.000000
   28       19.752141   0.000000
   29       21.984500   0.000000
   30       22.982547   0.000000
 
 -0.4000000E+00  0.0000000E+00  0.2000000E+00  0.3200000E-01
    1        2.136894   1.000000
    2        3.813332   1.000000
    3        4.085185   1.000000
    4        4.271364   1.000000
    5        4.627921   1.000000
    6        4.884985   1.000000
    7        5.079262   1.000000
    8        5.423341   1.000000
    9        5.594916   1.000000
   10        6.159347   1.000000
   11        6.431455   1.000000
   12        6.527476   1.000000
   13        6.947449   1.000000
   14        7.203379   1.000000
   15        7.294731   1.000000
   16        7.668017   1.000000
   17        8.073985   1.000000
   18        8.167641   1.000000
   19        8.551864   1.000012
   20        8.979027   1.035379
   21        9.533815  -0.024387
   22        9.780270  -0.000268
   23       13.113227  -0.000000
   24       15.253915   0.000000
   25       16.872374   0.000000
   26       18.049316   0.000000
   27       19.458720   0.000000
   28       19.754313   0.000000
   29       21.933367   0.000000
   30       22.961751   0.000000
 
  0.0000000E+00  0.2000000E+00  0.4000000E+00  0.3200000E-01
    1        2.350086   1.000000
    2        3.620863   1.000000
    3        4.252935   1.000000
    4        4.478852   1.000000
    5        4.651231   1.000000
    6        4.922055   1.000000
    7        4.933778   1.000000
    8        5.356311   1.000000
    9        5.564605   1.000000
   10        6.100993   1.000000
   11        6.338840   1.000000
   12        6.511818   1.000000
   13        6.964455   1.000000
   14        7.154211   1.000000
   15        7.456213   1.000000
   16        7.712510   1.000000
   17        7.775617   1.000000
   18        8.318677   1.000000
   19        8.623299   1.000104
   20        8.645006   1.000187
   21        9.481008  -0.034519
   22        9.581365  -0.014080
   23       13.560555  -0.000000
   24       15.092230   0.000000
   25       16.845639   0.000000
   26       18.008381   0.000000
   27       19.487759   0.000000
   28       20.009660   0.000000
   29       21.549959   0.000000
   30       23.414759   0.000000
 
  0.4000000E+00  0.4000000E+00  0.0000000E+00  0.3200000E-01
    1        3.286543   1.000000
    2        4.203975   1.000000
    3        4.474867   1.000000
    4        4.811557   1.000000
    5        4.875406   1.000000
    6        5.090164   1.000000
    7        5.210001   1.000000
    8        5.330093   1.000000
    9        5.387445   1.000000
   10        5.867648   1.000000
   11        6.003583   1.000000
   12        6.276513   1.000000
   13        6.916000   1.000000
   14        7.085421   1.000000
   15        7.103280   1.000000
   16        7.337841   1.000000
   17        7.526237   1.000000
   18        8.110843   1.000000
   19        8.419461   1.000000
   20        8.452935   1.000000
   21        9.172265   0.693918
   22       10.156214  -0.000000
   23       11.634073  -0.000000
   24       12.968149  -0.000000
   25       18.820340   0.000000
   26       18.949924   0.000000
   27       20.499643   0.000000
   28       21.182462   0.000000
   29       21.230294   0.000000
   30       21.655927   0.000000
 
  0.0000000E+00  0.4000000E+00  0.4000000E+00  0.3200000E-01
    1        3.181380   1.000000
    2        3.987473   1.000000
    3        4.375234   1.000000
    4        4.771943   1.000000
    5        4.990420   1.000000
    6        5.117374   1.000000
    7        5.137327   1.000000
    8        5.407127   1.000000
    9        5.425862   1.000000
   10        5.890176   1.000000
   11        6.091756   1.000000
   12        6.274522   1.000000
   13        6.912376   1.000000
   14        7.072911   1.000000
   15        7.159012   1.000000
   16        7.234172   1.000000
   17        7.424467   1.000000
   18        8.059138   1.000000
   19        8.643163   1.000178
   20        8.696532   1.000682
   21        9.238014   0.422138
   22        9.989648  -0.000000
   23       12.196939  -0.000000
   24       13.028431  -0.000000
   25       18.563712   0.000000
   26       18.690191   0.000000
   27       20.380978   0.000000
   28       20.513724   0.000000
   29       21.056409   0.000000
   30       22.112514   0.000000
 
  0.4000000E+00  0.0000000E+00  0.4000000E+00  0.3200000E-01
    1        3.254277   1.000000
    2        4.356419   1.000000
    3        4.429729   1.000000
    4        4.682482   1.000000
    5        4.762567   1.000000
    6        5.005865   1.000000
    7        5.058095   1.000000
    8        5.271199   1.000000
    9        5.580352   1.000000
   10        6.023949   1.000000
   11        6.149680   1.000000
   12        6.383147   1.000000
   13        6.870105   1.000000
   14        7.085707   1.000000
   15        7.096845   1.000000
   16        7.346566   1.000000
   17        7.828104   1.000000
   18        7.972419   1.000000
   19        8.216766   1.000000
   20        8.317560   1.000000
   21        9.363565   0.033273
   22       10.554266  -0.000000
   23       11.181052  -0.000000
   24       12.855763  -0.000000
   25       18.729084   0.000000
   26       18.906269   0.000000
   27       20.696265   0.000000
   28       21.018018   0.000000
   29       21.421506   0.000000
   30       21.479542   0.000000
 
  0.2000000E+00  0.2000000E+00  0.2000000E+00  0.6400000E-01
    1        1.474187   1.000000
    2        3.432383   1.000000
    3        4.001164   1.000000
    4        4.138593   1.000000
    5        4.194222   1.000000
    6        4.565459   1.000000
    7        4.692056   1.000000
    8        5.734426   1.000000
    9        6.460499   1.000000
   10        6.551126   1.000000
   11        6.666709   1.000000
   12        6.854347   1.000000
   13        7.042970   1.000000
   14        7.301024   1.000000
   15        7.409866   1.000000
   16        7.630201   1.000000
   17        8.329521   1.000000
   18        8.405609   1.000000
   19        8.546914   1.000011
   20        9.113207   0.886954
   21        9.845268  -0.000045
   22       11.838683  -0.000000
   23       12.504502  -0.000000
   24       12.725940  -0.000000
   25       17.658911   0.000000
   26       17.894928   0.000000
   27       18.610239   0.000000
   28       21.111386   0.000000
   29       21.522421   0.000000
   30       21.688565   0.000000
 
  0.4000000E+00  0.2000000E+00  0.2000000E+00  0.6400000E-01
    1        2.393927   1.000000
    2        3.731054   1.000000
    3        4.219677   1.000000
    4        4.559169   1.000000
    5        4.574034   1.000000
    6        4.851977   1.000000
    7        5.361242   1.000000
    8        5.550842   1.000000
    9        5.818811   1.000000
   10        6.020164   1.000000
   11        6.383470   1.000000
   12        6.490946   1.000000
   13        6.692975   1.000000
   14        7.044197   1.000000
   15        7.120489   1.000000
   16        7.574381   1.000000
   17        8.130803   1.000000
   18        8.215380   1.000000
   19        8.654720   1.000241
   20        9.039988   1.010994
   21        9.529488  -0.025387
   22        9.803546  -0.000145
   23       13.816744  -0.000000
   24       13.833257  -0.000000
   25       15.537070   0.000000
   26       16.279826   0.000000
   27       20.114737   0.000000
   28       21.507391   0.000000
   29       22.092545   0.000000
   30       22.353994   0.000000
 
  0.2000000E+00  0.4000000E+00  0.2000000E+00  0.6400000E-01
    1        2.560628   1.000000
    2        3.632593   1.000000
    3        4.031608   1.000000
    4        4.523007   1.000000
    5        4.686946   1.000000
    6        4.888120   1.000000
    7        5.542540   1.000000
    8        5.620298   1.000000
    9        5.802934   1.000000
   10        6.110026   1.000000
   11        6.474749   1.000000
   12        6.510434   1.000000
   13        6.615610   1.000000
   14        7.041651   1.000000
   15        7.197718   1.000000
   16        7.294230   1.000000
   17        8.194583   1.000000
   18        8.270407   1.000000
   19        8.452987   1.000000
   20        8.957794   1.034492
   21        9.385958   0.002175
   22        9.671445  -0.003166
   23       13.819153  -0.000000
   24       14.050422  -0.000000
   25       15.587439   0.000000
   26       16.150061   0.000000
   27       20.195470   0.000000
   28       21.577033   0.000000
   29       22.229610   0.000000
   30       22.396531   0.000000
 
  0.2000000E+00  0.2000000E+00  0.4000000E+00  0.6400000E-01
    1        2.564628   1.000000
    2        3.632438   1.000000
    3        4.177905   1.000000
    4        4.513869   1.000000
    5        4.700829   1.000000
    6        5.066463   1.000000
    7        5.203210   1.000000
    8        5.534918   1.000000
    9        5.767182   1.000000
   10        5.995594   1.000000
   11        6.375116   1.000000
   12        6.495121   1.000000
   13        6.700818   1.000000
   14        7.065235   1.000000
   15        7.160228   1.000000
   16        7.446605   1.000000
   17        8.208954   1.000000
   18        8.232154   1.000000
   19        8.577882   1.000028
   20        8.898588   1.022849
   21        9.466910  -0.035435
   22        9.751566  -0.000550
   23       13.824241  -0.000000
   24       13.991457  -0.000000
   25       15.571805   0.000000
   26       16.240178   0.000000
   27       20.102715   0.000000
   28       21.354326   0.000000
   29       22.191692   0.000000
   30       22.459514   0.000000
 
  0.4000000E+00  0.4000000E+00  0.2000000E+00  0.6400000E-01
    1        3.047451   1.000000
    2        3.556514   1.000000
    3        3.886724   1.000000
    4        4.268738   1.000000
    5        5.199702   1.000000
    6        5.500516   1.000000
    7        5.738571   1.000000
    8        5.920673   1.000000
    9        6.081039   1.000000
   10        6.133087   1.000000
   11        6.342318   1.000000
   12        6.515237   1.000000
   13        6.608920   1.000000
   14        6.729041   1.000000
   15        6.886047   1.000000
   16        6.961388   1.000000
   17        7.943662   1.000000
   18        8.377885   1.000000
   19        8.776476   1.003754
   20        9.104676   0.908122
   21        9.239846   0.414505
   22       10.278414  -0.000000
   23       11.515437  -0.000000
   24       12.720397  -0.000000
   25       15.809570   0.000000
   26       17.481874   0.000000
   27       17.910817   0.000000
   28       19.890073   0.000000
   29       22.768449   0.000000
   30       24.556747   0.000000
 
  0.2000000E+00  0.4000000E+00  0.4000000E+00  0.6400000E-01
    1        3.031367   1.000000
    2        3.594703   1.000000
    3        3.656589   1.000000
    4        4.280679   1.000000
    5        5.204083   1.000000
    6        5.500531   1.000000
    7        5.726181   1.000000
    8        5.971248   1.000000
    9        6.093080   1.000000
   10        6.129675   1.000000
   11        6.334256   1.000000
   12        6.522388   1.000000
   13        6.617041   1.000000
   14        6.730583   1.000000
   15        6.883982   1.000000
   16        6.947946   1.000000
   17        7.985371   1.000000
   18        8.409373   1.000000
   19        8.901239   1.023462
   20        9.088724   0.942778
   21        9.218003   0.506442
   22       10.160949  -0.000000
   23       11.996592  -0.000000
   24       12.906513  -0.000000
   25       15.549382   0.000000
   26       17.062855   0.000000
   27       17.942784   0.000000
   28       19.862082   0.000000
   29       22.858130   0.000000
   30       24.402844   0.000000
 
  0.4000000E+00  0.2000000E+00  0.4000000E+00  0.6400000E-01
    1        3.040798   1.000000
    2        3.587439   1.000000
    3        3.923347   1.000000
    4        4.109250   1.000000
    5        5.170997   1.000000
    6        5.401072   1.000000
    7        5.712359   1.000000
    8        6.077287   1.000000
    9        6.191696   1.000000
   10        6.225154   1.000000
   11        6.440313   1.000000
   12        6.462338   1.000000
   13        6.608996   1.000000
   14        6.784672   1.000000
   15        6.838483   1.000000
   16        6.896534   1.000000
   17        8.100432   1.000000
   18        8.142064   1.000000
   19        8.600929   1.000055
   20        9.234768   0.435711
   21        9.366502   0.028536
   22       10.645535  -0.000000
   23       11.067328  -0.000000
   24       12.657701  -0.000000
   25       15.782351   0.000000
   26       17.520841   0.000000
   27       17.898275   0.000000
   28       19.950465   0.000000
   29       22.632240   0.000000
   30       24.632328   0.000000
 
  0.4000000E+00  0.4000000E+00  0.4000000E+00  0.6400000E-01
    1        2.918656   1.000000
    2        3.044748   1.000000
    3        3.288178   1.000000
    4        3.660138   1.000000
    5        5.631556   1.000000
    6        5.746013   1.000000
    7        5.830629   1.000000
    8        6.115379   1.000000
    9        6.188607   1.000000
   10        6.419760   1.000000
   11        6.426332   1.000000
   12        6.617177   1.000000
   13        7.291418   1.000000
   14        7.351229   1.000000
   15        7.512153   1.000000
   16        7.845511   1.000000
   17        8.289126   1.000000
   18        8.703050   1.000795
   19        8.767283   1.003146
   20        9.186358   0.638225
   21        9.724930  -0.001025
   22       10.495531  -0.000000
   23       10.886798  -0.000000
   24       11.111557  -0.000000
   25       14.992143   0.000000
   26       15.387031   0.000000
   27       16.191426   0.000000
   28       17.708158   0.000000
   29       25.270106   0.000000
   30       25.363890   0.000000
