       N       E                     dE             d eps       ncg     rms          rms(c)
DAV:   1    -0.234799448510E+02   -0.23480E+02   -0.58441E-03  2186   0.790E-01    0.130E-01
DAV:   2    -0.234533568773E+02    0.26588E-01   -0.92233E-03  2146   0.125E+00    0.222E-01
DAV:   3    -0.234526933036E+02    0.66357E-03   -0.13184E-03  2270   0.933E-01    0.490E-02
DAV:   4    -0.234526880374E+02    0.52662E-05   -0.87146E-05  2404   0.161E-01    0.417E-02
DAV:   5    -0.234526815215E+02    0.65159E-05   -0.13345E-05  2168   0.103E-01    0.305E-02
DAV:   6    -0.234526804226E+02    0.10989E-05   -0.10661E-06  1014   0.164E-02    0.235E-02
DAV:   7    -0.234526798747E+02    0.54791E-06   -0.60853E-07  1002   0.939E-03
   1 F= -.23452680E+02 E0= -.23450580E+02  d E =-.630034E-02
