<?xml version="1.0" encoding="ISO-8859-1"?>
<modeling>
 <generator>
  <i name="program" type="string">vasp </i>
  <i name="version" type="string">6.2.0  </i>
  <i name="subversion" type="string">18Jan21 (build Mar 17 2021 09:06:54) complex                          serial </i>
  <i name="platform" type="string">LinuxIFC </i>
  <i name="date" type="string">2021 06 11 </i>
  <i name="time" type="string">11:56:46 </i>
 </generator>
 <incar>
  <i type="string" name="PREC">normal</i>
  <i type="int" name="ICHARG">     1</i>
  <i type="int" name="IBRION">    -1</i>
  <i name="EDIFF">      0.00000100</i>
  <i type="int" name="NSW">     0</i>
  <i name="ENCUT">    260.00000000</i>
  <i type="int" name="NBANDS">    30</i>
  <i type="int" name="ISMEAR">     1</i>
  <i name="SIGMA">      0.20000000</i>
  <i type="logical" name="LCHARG"> T  </i>
  <i type="int" name="KPAR">     1</i>
  <i type="int" name="NCORE">     1</i>
  <i type="string" name="GGA">PE</i>
 </incar>
 <primitive_cell>
  <structure name="primitive_cell" >
   <crystal>
    <varray name="basis" >
     <v>       3.86600000       0.00000000       0.00000000 </v>
     <v>       0.00000000       3.86600000       0.00000000 </v>
     <v>       0.00000000       0.00000000       3.86600000 </v>
    </varray>
    <i name="volume">     57.78106590 </i>
    <varray name="rec_basis" >
     <v>       0.25866529       0.00000000       0.00000000 </v>
     <v>       0.00000000       0.25866529       0.00000000 </v>
     <v>       0.00000000       0.00000000       0.25866529 </v>
    </varray>
   </crystal>
   <varray name="positions" >
    <v>       0.00000000       0.00000000       0.00000000 </v>
    <v>       0.50000000       0.50000000       0.00000000 </v>
    <v>       0.50000000       0.00000000       0.50000000 </v>
    <v>       0.00000000       0.50000000       0.50000000 </v>
   </varray>
  </structure>
  <varray name="primitive_index" >
   <v type="int" >        1 </v>
   <v type="int" >        2 </v>
   <v type="int" >        3 </v>
   <v type="int" >        4 </v>
  </varray>
 </primitive_cell>
 <kpoints>
  <generation param="Monkhorst-Pack">
   <v type="int" name="divisions">       5        5        5 </v>
   <v name="usershift">      0.00000000       0.00000000       0.00000000 </v>
   <v name="genvec1">      0.20000000       0.00000000       0.00000000 </v>
   <v name="genvec2">      0.00000000       0.20000000       0.00000000 </v>
   <v name="genvec3">      0.00000000       0.00000000       0.20000000 </v>
   <v name="shift">      0.00000000       0.00000000       0.00000000 </v>
  </generation>
  <varray name="kpointlist" >
   <v>       0.00000000       0.00000000       0.00000000 </v>
   <v>       0.20000000       0.00000000       0.00000000 </v>
   <v>       0.00000000       0.20000000       0.00000000 </v>
   <v>       0.00000000       0.00000000       0.20000000 </v>
   <v>       0.40000000       0.00000000       0.00000000 </v>
   <v>       0.00000000       0.40000000       0.00000000 </v>
   <v>       0.00000000       0.00000000       0.40000000 </v>
   <v>       0.20000000       0.20000000       0.00000000 </v>
   <v>       0.00000000       0.20000000       0.20000000 </v>
   <v>       0.20000000       0.00000000       0.20000000 </v>
   <v>       0.40000000       0.20000000       0.00000000 </v>
   <v>       0.00000000       0.40000000       0.20000000 </v>
   <v>       0.20000000       0.00000000       0.40000000 </v>
   <v>      -0.20000000       0.40000000       0.00000000 </v>
   <v>      -0.40000000       0.00000000       0.20000000 </v>
   <v>       0.00000000       0.20000000       0.40000000 </v>
   <v>       0.40000000       0.40000000       0.00000000 </v>
   <v>       0.00000000       0.40000000       0.40000000 </v>
   <v>       0.40000000       0.00000000       0.40000000 </v>
   <v>       0.20000000       0.20000000       0.20000000 </v>
   <v>       0.40000000       0.20000000       0.20000000 </v>
   <v>       0.20000000       0.40000000       0.20000000 </v>
   <v>       0.20000000       0.20000000       0.40000000 </v>
   <v>       0.40000000       0.40000000       0.20000000 </v>
   <v>       0.20000000       0.40000000       0.40000000 </v>
   <v>       0.40000000       0.20000000       0.40000000 </v>
   <v>       0.40000000       0.40000000       0.40000000 </v>
  </varray>
  <varray name="weights" >
   <v>       0.00800000 </v>
   <v>       0.01600000 </v>
   <v>       0.01600000 </v>
   <v>       0.01600000 </v>
   <v>       0.01600000 </v>
   <v>       0.01600000 </v>
   <v>       0.01600000 </v>
   <v>       0.03200000 </v>
   <v>       0.03200000 </v>
   <v>       0.03200000 </v>
   <v>       0.03200000 </v>
   <v>       0.03200000 </v>
   <v>       0.03200000 </v>
   <v>       0.03200000 </v>
   <v>       0.03200000 </v>
   <v>       0.03200000 </v>
   <v>       0.03200000 </v>
   <v>       0.03200000 </v>
   <v>       0.03200000 </v>
   <v>       0.06400000 </v>
   <v>       0.06400000 </v>
   <v>       0.06400000 </v>
   <v>       0.06400000 </v>
   <v>       0.06400000 </v>
   <v>       0.06400000 </v>
   <v>       0.06400000 </v>
   <v>       0.06400000 </v>
  </varray>
 </kpoints>
 <parameters>
  <separator name="general" >
   <i type="string" name="SYSTEM">unknown system</i>
   <i type="logical" name="LCOMPAT"> F  </i>
  </separator>
  <separator name="electronic" >
   <i type="string" name="PREC">normal</i>
   <i name="ENMAX">    260.00000000</i>
   <i name="ENAUG">    586.98000000</i>
   <i name="EDIFF">      0.00000100</i>
   <i type="int" name="IALGO">    38</i>
   <i type="int" name="IWAVPR">     0</i>
   <i type="int" name="NBANDS">    30</i>
   <i type="int" name="NBANDSLOW">    -1</i>
   <i type="int" name="NBANDSHIGH">    -1</i>
   <i name="NELECT">     40.00000000</i>
   <i type="int" name="TURBO">     0</i>
   <i type="int" name="IRESTART">     0</i>
   <i type="int" name="NREBOOT">     0</i>
   <i type="int" name="NMIN">     0</i>
   <i name="EREF">      0.00000000</i>
   <separator name="electronic smearing" >
    <i type="int" name="ISMEAR">     1</i>
    <i name="SIGMA">      0.20000000</i>
    <i name="KSPACING">      0.50000000</i>
    <i type="logical" name="KGAMMA"> T  </i>
    <i type="logical" name="KBLOWUP"> T  </i>
   </separator>
   <separator name="electronic projectors" >
    <i type="logical" name="LREAL"> F  </i>
    <v name="ROPT">      0.00000000      0.00000000      0.00000000      0.00000000</v>
    <i type="int" name="LMAXPAW">  -100</i>
    <i type="int" name="LMAXMIX">     2</i>
    <i type="logical" name="NLSPLINE"> F  </i>
   </separator>
   <separator name="electronic startup" >
    <i type="int" name="ISTART">     1</i>
    <i type="int" name="ICHARG">     1</i>
    <i type="int" name="INIWAV">     1</i>
   </separator>
   <separator name="electronic spin" >
    <i type="int" name="ISPIN">     1</i>
    <i type="logical" name="LNONCOLLINEAR"> F  </i>
    <v name="MAGMOM">      1.00000000      1.00000000      1.00000000      1.00000000</v>
    <i name="NUPDOWN">     -1.00000000</i>
    <i type="logical" name="LSORBIT"> F  </i>
    <v name="SAXIS">      0.00000000      0.00000000      1.00000000</v>
    <i type="logical" name="LSPIRAL"> F  </i>
    <v name="QSPIRAL">      0.00000000      0.00000000      0.00000000</v>
    <i type="logical" name="LZEROZ"> F  </i>
   </separator>
   <separator name="electronic exchange-correlation" >
    <i type="logical" name="LASPH"> F  </i>
    <i type="logical" name="LMETAGGA"> F  </i>
   </separator>
   <separator name="electronic convergence" >
    <i type="int" name="NELM">    60</i>
    <i type="int" name="NELMDL">     0</i>
    <i type="int" name="NELMIN">     2</i>
    <i name="ENINI">    260.00000000</i>
    <separator name="electronic convergence detail" >
     <i type="logical" name="LDIAG"> T  </i>
     <i type="logical" name="LSUBROT"> F  </i>
     <i name="WEIMIN">      0.00000000</i>
     <i name="EBREAK">      0.00000001</i>
     <i name="DEPER">      0.30000000</i>
     <i type="int" name="NRMM">     4</i>
     <i name="TIME">      0.40000000</i>
    </separator>
   </separator>
   <separator name="electronic mixer" >
    <i name="AMIX">      0.40000000</i>
    <i name="BMIX">      1.00000000</i>
    <i name="AMIN">      0.10000000</i>
    <i name="AMIX_MAG">      1.60000000</i>
    <i name="BMIX_MAG">      1.00000000</i>
    <separator name="electronic mixer details" >
     <i type="int" name="IMIX">     4</i>
     <i type="logical" name="MIXFIRST"> F  </i>
     <i type="int" name="MAXMIX">   -45</i>
     <i name="WC">    100.00000000</i>
     <i type="int" name="INIMIX">     1</i>
     <i type="int" name="MIXPRE">     1</i>
     <i type="int" name="MREMOVE">     5</i>
    </separator>
   </separator>
   <separator name="electronic dipolcorrection" >
    <i type="logical" name="LDIPOL"> F  </i>
    <i type="logical" name="LMONO"> F  </i>
    <i type="int" name="IDIPOL">     0</i>
    <i name="EPSILON">      1.00000000</i>
    <v name="DIPOL">   -100.00000000   -100.00000000   -100.00000000</v>
    <i name="EFIELD">      0.00000000</i>
   </separator>
  </separator>
  <separator name="grids" >
   <i type="int" name="NGX">    16</i>
   <i type="int" name="NGY">    16</i>
   <i type="int" name="NGZ">    16</i>
   <i type="int" name="NGXF">    32</i>
   <i type="int" name="NGYF">    32</i>
   <i type="int" name="NGZF">    32</i>
   <i type="logical" name="ADDGRID"> F  </i>
  </separator>
  <separator name="ionic" >
   <i type="int" name="NSW">     0</i>
   <i type="int" name="IBRION">    -1</i>
   <i type="int" name="MDALGO">     0</i>
   <i type="int" name="ISIF">     2</i>
   <i name="PSTRESS">      0.00000000</i>
   <i name="EDIFFG">      0.00001000</i>
   <i type="int" name="NFREE">     0</i>
   <i name="POTIM">      0.50000000</i>
   <i name="SMASS">     -3.00000000</i>
   <i name="SCALEE">      1.00000000</i>
  </separator>
  <separator name="ionic md" >
   <i name="TEBEG">      0.00010000</i>
   <i name="TEEND">      0.00010000</i>
   <i type="int" name="NBLOCK">     1</i>
   <i type="int" name="KBLOCK">     1</i>
   <i type="int" name="NPACO">   256</i>
   <i name="APACO">     16.00000000</i>
  </separator>
  <separator name="symmetry" >
   <i type="int" name="ISYM">     2</i>
   <i name="SYMPREC">      0.00001000</i>
  </separator>
  <separator name="dos" >
   <i type="int" name="LORBIT">     0</i>
   <v name="RWIGS">     -1.00000000     -1.00000000     -1.00000000     -1.00000000</v>
   <i type="int" name="NEDOS">   301</i>
   <i name="EMIN">     10.00000000</i>
   <i name="EMAX">    -10.00000000</i>
   <i name="EFERMI">      0.00000000</i>
  </separator>
  <separator name="writing" >
   <i type="int" name="NWRITE">     2</i>
   <i type="logical" name="LWAVE"> T  </i>
   <i type="logical" name="LDOWNSAMPLE"> F  </i>
   <i type="logical" name="LCHARG"> T  </i>
   <i type="logical" name="LPARD"> F  </i>
   <i type="logical" name="LVTOT"> F  </i>
   <i type="logical" name="LVHAR"> F  </i>
   <i type="logical" name="LELF"> F  </i>
   <i type="logical" name="LOPTICS"> F  </i>
   <v name="STM">      0.00000000      0.00000000      0.00000000      0.00000000      0.00000000      0.00000000      0.00000000</v>
  </separator>
  <separator name="performance" >
   <i type="int" name="NPAR">     1</i>
   <i type="int" name="NSIM">     4</i>
   <i type="int" name="NBLK">    -1</i>
   <i type="logical" name="LPLANE"> T  </i>
   <i type="logical" name="LSCALAPACK"> F  </i>
   <i type="logical" name="LSCAAWARE"> F  </i>
   <i type="logical" name="LSCALU"> F  </i>
   <i type="logical" name="LASYNC"> F  </i>
   <i type="logical" name="LORBITALREAL"> F  </i>
  </separator>
  <separator name="miscellaneous" >
   <i type="int" name="IDIOT">     3</i>
   <i type="int" name="PHON_NSTRUCT">    -1</i>
   <i type="logical" name="LMUSIC"> F  </i>
   <v name="POMASS">    106.42000000    192.22000000    195.08000000     63.54600000</v>
   <v name="DARWINR">      0.00000000      0.00000000      0.00000000      0.00000000</v>
   <v name="DARWINV">      1.00000000      1.00000000      1.00000000      1.00000000</v>
   <i type="logical" name="LCORR"> T  </i>
  </separator>
  <i type="logical" name="GGA_COMPAT"> T  </i>
  <i type="logical" name="LBERRY"> F  </i>
  <i type="int" name="ICORELEVEL">     0</i>
  <i type="logical" name="LDAU"> F  </i>
  <i type="int" name="I_CONSTRAINED_M">     0</i>
  <separator name="electronic exchange-correlation" >
   <i type="string" name="GGA">PE</i>
   <i type="int" name="VOSKOWN">     0</i>
   <i type="logical" name="LHFCALC"> F  </i>
   <i type="string" name="PRECFOCK"></i>
   <i type="logical" name="LSYMGRAD"> F  </i>
   <i type="logical" name="LHFONE"> F  </i>
   <i type="logical" name="LRHFCALC"> F  </i>
   <i type="logical" name="LTHOMAS"> F  </i>
   <i type="logical" name="LMODELHF"> F  </i>
   <i type="logical" name="LFOCKACE"> F  </i>
   <i name="ENCUT4O">     -1.00000000</i>
   <i type="int" name="EXXOEP">     0</i>
   <i type="int" name="FOURORBIT">     0</i>
   <i name="AEXX">      0.00000000</i>
   <i name="HFALPHA">      0.00000000</i>
   <i name="MCALPHA">      0.00000000</i>
   <i name="ALDAX">      1.00000000</i>
   <i name="AGGAX">      1.00000000</i>
   <i name="ALDAC">      1.00000000</i>
   <i name="AGGAC">      1.00000000</i>
   <i type="int" name="NKREDX">     1</i>
   <i type="int" name="NKREDY">     1</i>
   <i type="int" name="NKREDZ">     1</i>
   <i type="logical" name="SHIFTRED"> F  </i>
   <i type="logical" name="ODDONLY"> F  </i>
   <i type="logical" name="EVENONLY"> F  </i>
   <i type="int" name="LMAXFOCK">     0</i>
   <i type="int" name="NMAXFOCKAE">     0</i>
   <i type="logical" name="LFOCKAEDFT"> F  </i>
   <i name="HFSCREEN">      0.00000000</i>
   <i name="HFSCREENC">      0.00000000</i>
   <i type="int" name="NBANDSGWLOW">     0</i>
  </separator>
  <separator name="vdW DFT" >
   <i type="logical" name="LUSE_VDW"> F  </i>
   <i name="Zab_VDW">     -0.84910000</i>
   <i name="PARAM1">      0.12340000</i>
   <i name="PARAM2">      1.00000000</i>
   <i name="PARAM3">      0.00000000</i>
  </separator>
  <separator name="model GW" >
   <i type="int" name="MODEL_GW">     0</i>
   <i name="MODEL_EPS0">      8.66715988</i>
   <i name="MODEL_ALPHA">      1.00000000</i>
  </separator>
  <separator name="linear response parameters" >
   <i type="logical" name="LEPSILON"> F  </i>
   <i type="logical" name="LRPA"> F  </i>
   <i type="logical" name="LNABLA"> F  </i>
   <i type="logical" name="LVEL"> F  </i>
   <i type="int" name="KINTER">     0</i>
   <i name="CSHIFT">      0.10000000</i>
   <i name="OMEGAMAX">     -1.00000000</i>
   <i name="DEG_THRESHOLD">      0.00200000</i>
   <i name="RTIME">     -0.10000000</i>
   <i name="WPLASMAI">      0.00000000</i>
   <v name="DFIELD">      0.00000000      0.00000000      0.00000000</v>
   <v name="WPLASMA">      0.00000000      0.00000000      0.00000000      0.00000000      0.00000000      0.00000000      0.00000000      0.00000000      0.00000000</v>
  </separator>
  <separator name="orbital magnetization" >
   <i type="logical" name="NUCIND"> F  </i>
   <v name="MAGPOS">      0.00000000      0.00000000      0.00000000</v>
   <i type="logical" name="LNICSALL"> T  </i>
   <i type="logical" name="ORBITALMAG"> F  </i>
   <i type="logical" name="LMAGBLOCH"> F  </i>
   <i type="logical" name="LCHIMAG"> F  </i>
   <i type="logical" name="LGAUGE"> T  </i>
   <i type="int" name="MAGATOM">     0</i>
   <v name="MAGDIPOL">      0.00000000      0.00000000      0.00000000</v>
   <v name="AVECCONST">      0.00000000      0.00000000      0.00000000</v>
  </separator>
  <separator name="response functions" >
   <i type="logical" name="LFINITE_TEMPERATURE"> F  </i>
   <i type="logical" name="LADDER"> F  </i>
   <i type="logical" name="LRPAFORCE"> F  </i>
   <i type="logical" name="LFXC"> F  </i>
   <i type="logical" name="LHARTREE"> T  </i>
   <i type="int" name="IBSE">     0</i>
   <v type="int" name="KPOINT">    -1     0     0     0</v>
   <i type="logical" name="LTCTC"> F  </i>
   <i type="logical" name="LTCTE"> F  </i>
   <i type="logical" name="LTETE"> F  </i>
   <i type="logical" name="LTRIPLET"> F  </i>
   <i type="logical" name="LFXCEPS"> F  </i>
   <i type="logical" name="LFXHEG"> F  </i>
   <i type="int" name="NATURALO">     2</i>
   <i type="logical" name="LHOLEGF"> F  </i>
   <i type="logical" name="L2ORDER"> F  </i>
   <i type="logical" name="LDMP1"> F  </i>
   <i type="logical" name="LMP2LT"> F  </i>
   <i type="logical" name="LSMP2LT"> F  </i>
   <i type="logical" name="LGWLF"> F  </i>
   <i name="ENCUTGW">     -2.00000000</i>
   <i name="ENCUTGWSOFT">     -2.00000000</i>
   <i name="ENCUTLF">     -1.00000000</i>
   <i type="logical" name="LESF_SPLINES"> F  </i>
   <i type="int" name="LMAXMP2">    -1</i>
   <i name="SCISSOR">      0.00000000</i>
   <i type="int" name="NOMEGA">     0</i>
   <i type="int" name="NOMEGAR">     0</i>
   <i type="int" name="NBANDSGW">    -1</i>
   <i type="int" name="NBANDSO">    -1</i>
   <i type="int" name="NBANDSV">    -1</i>
   <i type="int" name="NELM">     1</i>
   <i type="int" name="NELMHF">     1</i>
   <i type="int" name="DIM">     3</i>
   <i type="int" name="IESPILON">     4</i>
   <i type="int" name="ANTIRES">     0</i>
   <i name="OMEGAMAX">    -30.00000000</i>
   <i name="OMEGAMIN">    -30.00000000</i>
   <i name="OMEGATL">   -200.00000000</i>
   <i type="int" name="OMEGAGRID">     0</i>
   <i name="CSHIFT">     -0.10000000</i>
   <i type="logical" name="LSELFENERGY"> F  </i>
   <i type="logical" name="LSPECTRAL"> F  </i>
   <i type="logical" name="LSPECTRALGW"> F  </i>
   <i type="logical" name="LSINGLES"> F  </i>
   <i type="logical" name="LFERMIGW"> F  </i>
   <i type="logical" name="ODDONLYGW"> F  </i>
   <i type="logical" name="EVENONLYGW"> F  </i>
   <i type="int" name="NKREDLFX">     1</i>
   <i type="int" name="NKREDLFY">     1</i>
   <i type="int" name="NKREDLFZ">     1</i>
   <i type="int" name="MAXMEM">  2800</i>
   <i type="int" name="TELESCOPE">     0</i>
   <i type="int" name="NTAUPAR">    -1</i>
   <i type="int" name="NOMEGAPAR">    -1</i>
   <i name="DAMP_NEWTON">      0.80000001</i>
   <i name="LAMBDA">      1.00000000</i>
  </separator>
  <separator name="External order field" >
   <i name="OFIELD_KAPPA">      0.00000000</i>
   <v name="OFIELD_K">      0.00000000      0.00000000      0.00000000</v>
   <i name="OFIELD_Q6_NEAR">      0.00000000</i>
   <i name="OFIELD_Q6_FAR">      0.00000000</i>
   <i name="OFIELD_A">      0.00000000</i>
  </separator>
 </parameters>
 <atominfo>
  <atoms>       4 </atoms>
  <types>       4 </types>
  <array name="atoms" >
   <dimension dim="1">ion</dimension>
   <field type="string">element</field>
   <field type="int">atomtype</field>
   <set>
    <rc><c>Pd</c><c>   1</c></rc>
    <rc><c>Ir</c><c>   2</c></rc>
    <rc><c>Pt</c><c>   3</c></rc>
    <rc><c>Cu</c><c>   4</c></rc>
   </set>
  </array>
  <array name="atomtypes" >
   <dimension dim="1">type</dimension>
   <field type="int">atomspertype</field>
   <field type="string">element</field>
   <field>mass</field>
   <field>valence</field>
   <field type="string">pseudopotential</field>
   <set>
    <rc><c>   1</c><c>Pd</c><c>    106.42000000</c><c>     10.00000000</c><c>  PAW_PBE Pd 04Jan2005                  </c></rc>
    <rc><c>   1</c><c>Ir</c><c>    192.22000000</c><c>      9.00000000</c><c>  PAW_PBE Ir 06Sep2000                  </c></rc>
    <rc><c>   1</c><c>Pt</c><c>    195.08000000</c><c>     10.00000000</c><c>  PAW_PBE Pt 04Feb2005                  </c></rc>
    <rc><c>   1</c><c>Cu</c><c>     63.54600000</c><c>     11.00000000</c><c>  PAW_PBE Cu 22Jun2005                  </c></rc>
   </set>
  </array>
 </atominfo>
 <structure name="initialpos" >
  <crystal>
   <varray name="basis" >
    <v>       3.86600000       0.00000000       0.00000000 </v>
    <v>       0.00000000       3.86600000       0.00000000 </v>
    <v>       0.00000000       0.00000000       3.86600000 </v>
   </varray>
   <i name="volume">     57.78106590 </i>
   <varray name="rec_basis" >
    <v>       0.25866529       0.00000000       0.00000000 </v>
    <v>       0.00000000       0.25866529       0.00000000 </v>
    <v>       0.00000000       0.00000000       0.25866529 </v>
   </varray>
  </crystal>
  <varray name="positions" >
   <v>       0.00000000       0.00000000       0.00000000 </v>
   <v>       0.50000000       0.50000000       0.00000000 </v>
   <v>       0.50000000       0.00000000       0.50000000 </v>
   <v>       0.00000000       0.50000000       0.50000000 </v>
  </varray>
 </structure>
 <calculation>
  <scstep>
   <time name="dav">    0.39    0.41</time>
   <time name="total">    0.43    0.45</time>
   <energy>
    <i name="alphaZ">    244.65455147 </i>
    <i name="ewald">  -3423.86860972 </i>
    <i name="hartreedc">   -596.31504713 </i>
    <i name="XCdc">      1.66438742 </i>
    <i name="pawpsdc">   3928.77909561 </i>
    <i name="pawaedc">  -3914.03066313 </i>
    <i name="eentropy">     -0.00570296 </i>
    <i name="bandstr">    245.92394724 </i>
    <i name="atom">   3489.71809635 </i>
    <i name="e_fr_energy">    -23.47994485 </i>
    <i name="e_wo_entrp">    -23.47424189 </i>
    <i name="e_0_energy">    -23.47804386 </i>
   </energy>
  </scstep>
  <scstep>
   <time name="dav">    0.36    0.36</time>
   <time name="total">    0.40    0.40</time>
   <energy>
    <i name="e_fr_energy">    -23.45335688 </i>
    <i name="e_wo_entrp">    -23.44660966 </i>
    <i name="e_0_energy">    -23.45110780 </i>
   </energy>
  </scstep>
  <scstep>
   <time name="dav">    0.38    0.38</time>
   <time name="total">    0.42    0.42</time>
   <energy>
    <i name="e_fr_energy">    -23.45269330 </i>
    <i name="e_wo_entrp">    -23.44645483 </i>
    <i name="e_0_energy">    -23.45061381 </i>
   </energy>
  </scstep>
  <scstep>
   <time name="dav">    0.39    0.39</time>
   <time name="total">    0.43    0.43</time>
   <energy>
    <i name="e_fr_energy">    -23.45268804 </i>
    <i name="e_wo_entrp">    -23.44631865 </i>
    <i name="e_0_energy">    -23.45056491 </i>
   </energy>
  </scstep>
  <scstep>
   <time name="dav">    0.37    0.37</time>
   <time name="total">    0.41    0.41</time>
   <energy>
    <i name="e_fr_energy">    -23.45268152 </i>
    <i name="e_wo_entrp">    -23.44637815 </i>
    <i name="e_0_energy">    -23.45058040 </i>
   </energy>
  </scstep>
  <scstep>
   <time name="dav">    0.22    0.22</time>
   <time name="total">    0.25    0.25</time>
   <energy>
    <i name="e_fr_energy">    -23.45268042 </i>
    <i name="e_wo_entrp">    -23.44637766 </i>
    <i name="e_0_energy">    -23.45057950 </i>
   </energy>
  </scstep>
  <scstep>
   <time name="dav">    0.22    0.22</time>
   <time name="total">    0.23    0.23</time>
   <energy>
    <i name="alphaZ">    244.65455147 </i>
    <i name="ewald">  -3423.86860972 </i>
    <i name="hartreedc">   -596.31865494 </i>
    <i name="XCdc">      1.66504358 </i>
    <i name="pawpsdc">   3928.90503123 </i>
    <i name="pawaedc">  -3914.18406481 </i>
    <i name="eentropy">     -0.00630034 </i>
    <i name="bandstr">    245.98222731 </i>
    <i name="atom">   3489.71809635 </i>
    <i name="e_fr_energy">    -23.45267987 </i>
    <i name="e_wo_entrp">    -23.44637953 </i>
    <i name="e_0_energy">    -23.45057976 </i>
   </energy>
  </scstep>
  <structure>
   <crystal>
    <varray name="basis" >
     <v>       3.86600000       0.00000000       0.00000000 </v>
     <v>       0.00000000       3.86600000       0.00000000 </v>
     <v>       0.00000000       0.00000000       3.86600000 </v>
    </varray>
    <i name="volume">     57.78106590 </i>
    <varray name="rec_basis" >
     <v>       0.25866529       0.00000000       0.00000000 </v>
     <v>       0.00000000       0.25866529       0.00000000 </v>
     <v>       0.00000000       0.00000000       0.25866529 </v>
    </varray>
   </crystal>
   <varray name="positions" >
    <v>       0.00000000       0.00000000       0.00000000 </v>
    <v>       0.50000000       0.50000000       0.00000000 </v>
    <v>       0.50000000       0.00000000       0.50000000 </v>
    <v>       0.00000000       0.50000000       0.50000000 </v>
   </varray>
  </structure>
  <varray name="forces" >
   <v>      -0.00000000      -0.00000000      -0.00000000 </v>
   <v>      -0.00000000      -0.00000000      -0.00000000 </v>
   <v>      -0.00000000      -0.00000000      -0.00000000 </v>
   <v>       0.00000000       0.00000000       0.00000000 </v>
  </varray>
  <varray name="stress" >
   <v>     -51.40454284       0.00000000       0.00000000 </v>
   <v>       0.00000000     -60.00115584       0.00000000 </v>
   <v>       0.00000000       0.00000000     -74.37171170 </v>
  </varray>
  <energy>
   <i name="e_fr_energy">    -23.45267987 </i>
   <i name="e_wo_entrp">    -23.44637953 </i>
   <i name="e_0_energy">    -23.45057976 </i>
  </energy>
  <time name="totalsc">    2.91    2.94</time>
  <eigenvalues>
   <array>
    <dimension dim="1">band</dimension>
    <dimension dim="2">kpoint</dimension>
    <dimension dim="3">spin</dimension>
    <field>eigene</field>
    <field>occ</field>
    <set>
     <set comment="spin 1">
      <set comment="kpoint 1">
       <r>    0.0966    1.0000 </r>
       <r>    2.5868    1.0000 </r>
       <r>    3.5397    1.0000 </r>
       <r>    3.5525    1.0000 </r>
       <r>    3.6325    1.0000 </r>
       <r>    3.7254    1.0000 </r>
       <r>    3.7292    1.0000 </r>
       <r>    6.2061    1.0000 </r>
       <r>    6.2071    1.0000 </r>
       <r>    6.3485    1.0000 </r>
       <r>    7.4612    1.0000 </r>
       <r>    7.5886    1.0000 </r>
       <r>    8.2401    1.0000 </r>
       <r>    8.3941    1.0000 </r>
       <r>    8.5538    1.0000 </r>
       <r>    9.2474    0.3833 </r>
       <r>    9.4080   -0.0180 </r>
       <r>    9.5037   -0.0310 </r>
       <r>    9.7820   -0.0003 </r>
       <r>   10.2521   -0.0000 </r>
       <r>   10.8262   -0.0000 </r>
       <r>   11.3839   -0.0000 </r>
       <r>   11.3914   -0.0000 </r>
       <r>   11.4045   -0.0000 </r>
       <r>   17.8980    0.0000 </r>
       <r>   18.1447    0.0000 </r>
       <r>   19.7573    0.0000 </r>
       <r>   20.2850    0.0000 </r>
       <r>   20.4298    0.0000 </r>
       <r>   20.6687    0.0000 </r>
      </set>
      <set comment="kpoint 2">
       <r>    0.5639    1.0000 </r>
       <r>    2.8890    1.0000 </r>
       <r>    3.6998    1.0000 </r>
       <r>    3.7106    1.0000 </r>
       <r>    3.9089    1.0000 </r>
       <r>    3.9917    1.0000 </r>
       <r>    4.0584    1.0000 </r>
       <r>    5.9794    1.0000 </r>
       <r>    6.3505    1.0000 </r>
       <r>    6.5066    1.0000 </r>
       <r>    7.3565    1.0000 </r>
       <r>    7.5072    1.0000 </r>
       <r>    7.6796    1.0000 </r>
       <r>    7.8625    1.0000 </r>
       <r>    8.0042    1.0000 </r>
       <r>    8.2191    1.0000 </r>
       <r>    9.0188    1.0255 </r>
       <r>    9.1104    0.8941 </r>
       <r>    9.2492    0.3761 </r>
       <r>    9.4736   -0.0352 </r>
       <r>    9.7215   -0.0011 </r>
       <r>   10.8246   -0.0000 </r>
       <r>   13.1761   -0.0000 </r>
       <r>   13.1820   -0.0000 </r>
       <r>   17.8997    0.0000 </r>
       <r>   18.0141    0.0000 </r>
       <r>   20.3791    0.0000 </r>
       <r>   20.4212    0.0000 </r>
       <r>   20.5836    0.0000 </r>
       <r>   20.9813    0.0000 </r>
      </set>
      <set comment="kpoint 3">
       <r>    0.6150    1.0000 </r>
       <r>    2.9077    1.0000 </r>
       <r>    3.6591    1.0000 </r>
       <r>    3.7849    1.0000 </r>
       <r>    3.8511    1.0000 </r>
       <r>    3.9892    1.0000 </r>
       <r>    4.0861    1.0000 </r>
       <r>    6.1405    1.0000 </r>
       <r>    6.3779    1.0000 </r>
       <r>    6.3823    1.0000 </r>
       <r>    7.2855    1.0000 </r>
       <r>    7.6138    1.0000 </r>
       <r>    7.6291    1.0000 </r>
       <r>    7.7693    1.0000 </r>
       <r>    8.2830    1.0000 </r>
       <r>    8.7560    1.0025 </r>
       <r>    9.0255    1.0217 </r>
       <r>    9.2065    0.5551 </r>
       <r>    9.2310    0.4517 </r>
       <r>    9.3027    0.1797 </r>
       <r>    9.4837   -0.0342 </r>
       <r>    9.7027   -0.0017 </r>
       <r>   13.2864   -0.0000 </r>
       <r>   13.4030   -0.0000 </r>
       <r>   17.4227    0.0000 </r>
       <r>   18.6712    0.0000 </r>
       <r>   20.3146    0.0000 </r>
       <r>   20.3763    0.0000 </r>
       <r>   20.5797    0.0000 </r>
       <r>   21.2827    0.0000 </r>
      </set>
      <set comment="kpoint 4">
       <r>    0.6166    1.0000 </r>
       <r>    2.9200    1.0000 </r>
       <r>    3.8128    1.0000 </r>
       <r>    3.8596    1.0000 </r>
       <r>    3.8984    1.0000 </r>
       <r>    3.9053    1.0000 </r>
       <r>    3.9156    1.0000 </r>
       <r>    5.9603    1.0000 </r>
       <r>    6.3495    1.0000 </r>
       <r>    6.5078    1.0000 </r>
       <r>    7.2937    1.0000 </r>
       <r>    7.5818    1.0000 </r>
       <r>    7.5965    1.0000 </r>
       <r>    7.9453    1.0000 </r>
       <r>    8.0900    1.0000 </r>
       <r>    8.5263    1.0000 </r>
       <r>    8.8513    1.0129 </r>
       <r>    9.1380    0.8152 </r>
       <r>    9.1736    0.6889 </r>
       <r>    9.3099    0.1576 </r>
       <r>    9.7351   -0.0008 </r>
       <r>   10.2366   -0.0000 </r>
       <r>   13.2581   -0.0000 </r>
       <r>   13.3688   -0.0000 </r>
       <r>   17.1091    0.0000 </r>
       <r>   18.8790    0.0000 </r>
       <r>   20.4061    0.0000 </r>
       <r>   20.4294    0.0000 </r>
       <r>   20.6982    0.0000 </r>
       <r>   21.2060    0.0000 </r>
      </set>
      <set comment="kpoint 5">
       <r>    1.6767    1.0000 </r>
       <r>    3.5003    1.0000 </r>
       <r>    3.8005    1.0000 </r>
       <r>    4.0614    1.0000 </r>
       <r>    4.7126    1.0000 </r>
       <r>    4.7515    1.0000 </r>
       <r>    4.8437    1.0000 </r>
       <r>    5.5185    1.0000 </r>
       <r>    6.0429    1.0000 </r>
       <r>    6.1432    1.0000 </r>
       <r>    6.8534    1.0000 </r>
       <r>    6.9280    1.0000 </r>
       <r>    6.9644    1.0000 </r>
       <r>    7.1587    1.0000 </r>
       <r>    7.3388    1.0000 </r>
       <r>    7.5929    1.0000 </r>
       <r>    8.2059    1.0000 </r>
       <r>    8.2163    1.0000 </r>
       <r>    8.2484    1.0000 </r>
       <r>    8.5570    1.0000 </r>
       <r>    9.3503    0.0574 </r>
       <r>   10.8226   -0.0000 </r>
       <r>   15.7270    0.0000 </r>
       <r>   15.8024    0.0000 </r>
       <r>   17.0552    0.0000 </r>
       <r>   18.0265    0.0000 </r>
       <r>   18.6009    0.0000 </r>
       <r>   18.7230    0.0000 </r>
       <r>   19.1508    0.0000 </r>
       <r>   21.8162    0.0000 </r>
      </set>
      <set comment="kpoint 6">
       <r>    1.9886    1.0000 </r>
       <r>    3.2969    1.0000 </r>
       <r>    3.7818    1.0000 </r>
       <r>    4.1149    1.0000 </r>
       <r>    4.6479    1.0000 </r>
       <r>    4.6976    1.0000 </r>
       <r>    4.9719    1.0000 </r>
       <r>    5.7302    1.0000 </r>
       <r>    6.3429    1.0000 </r>
       <r>    6.3668    1.0000 </r>
       <r>    6.8144    1.0000 </r>
       <r>    6.8991    1.0000 </r>
       <r>    6.9198    1.0000 </r>
       <r>    7.0886    1.0000 </r>
       <r>    7.5655    1.0000 </r>
       <r>    7.8812    1.0000 </r>
       <r>    7.8896    1.0000 </r>
       <r>    8.0912    1.0000 </r>
       <r>    8.1951    1.0000 </r>
       <r>    8.4565    1.0000 </r>
       <r>    9.1440    0.7957 </r>
       <r>    9.4662   -0.0354 </r>
       <r>   15.9120    0.0000 </r>
       <r>   15.9613    0.0000 </r>
       <r>   16.6832    0.0000 </r>
       <r>   18.4669    0.0000 </r>
       <r>   18.4941    0.0000 </r>
       <r>   18.6208    0.0000 </r>
       <r>   20.4748    0.0000 </r>
       <r>   20.7291    0.0000 </r>
      </set>
      <set comment="kpoint 7">
       <r>    2.0037    1.0000 </r>
       <r>    3.2948    1.0000 </r>
       <r>    3.9918    1.0000 </r>
       <r>    4.3529    1.0000 </r>
       <r>    4.6440    1.0000 </r>
       <r>    4.7356    1.0000 </r>
       <r>    4.7489    1.0000 </r>
       <r>    5.4119    1.0000 </r>
       <r>    6.0354    1.0000 </r>
       <r>    6.1516    1.0000 </r>
       <r>    6.8225    1.0000 </r>
       <r>    6.9777    1.0000 </r>
       <r>    6.9816    1.0000 </r>
       <r>    7.1183    1.0000 </r>
       <r>    7.3892    1.0000 </r>
       <r>    7.7206    1.0000 </r>
       <r>    8.0235    1.0000 </r>
       <r>    8.0536    1.0000 </r>
       <r>    8.4313    1.0000 </r>
       <r>    8.4973    1.0000 </r>
       <r>    8.9423    1.0323 </r>
       <r>   10.2161   -0.0000 </r>
       <r>   15.8875    0.0000 </r>
       <r>   16.0176    0.0000 </r>
       <r>   16.2411    0.0000 </r>
       <r>   18.4395    0.0000 </r>
       <r>   18.7140    0.0000 </r>
       <r>   18.9834    0.0000 </r>
       <r>   20.0687    0.0000 </r>
       <r>   21.0878    0.0000 </r>
      </set>
      <set comment="kpoint 8">
       <r>    1.0601    1.0000 </r>
       <r>    3.1977    1.0000 </r>
       <r>    3.9304    1.0000 </r>
       <r>    3.9380    1.0000 </r>
       <r>    4.1098    1.0000 </r>
       <r>    4.1141    1.0000 </r>
       <r>    4.3951    1.0000 </r>
       <r>    5.9238    1.0000 </r>
       <r>    6.4012    1.0000 </r>
       <r>    6.5341    1.0000 </r>
       <r>    7.0575    1.0000 </r>
       <r>    7.2544    1.0000 </r>
       <r>    7.2804    1.0000 </r>
       <r>    7.3497    1.0000 </r>
       <r>    7.8057    1.0000 </r>
       <r>    7.9939    1.0000 </r>
       <r>    8.3586    1.0000 </r>
       <r>    8.9229    1.0284 </r>
       <r>    8.9775    1.0354 </r>
       <r>    9.0667    0.9803 </r>
       <r>    9.7396   -0.0007 </r>
       <r>   10.8974   -0.0000 </r>
       <r>   11.8862   -0.0000 </r>
       <r>   14.5513   -0.0000 </r>
       <r>   16.9548    0.0000 </r>
       <r>   19.0143    0.0000 </r>
       <r>   20.0362    0.0000 </r>
       <r>   20.4114    0.0000 </r>
       <r>   21.0387    0.0000 </r>
       <r>   21.6743    0.0000 </r>
      </set>
      <set comment="kpoint 9">
       <r>    1.0860    1.0000 </r>
       <r>    3.2327    1.0000 </r>
       <r>    3.9157    1.0000 </r>
       <r>    3.9836    1.0000 </r>
       <r>    4.0453    1.0000 </r>
       <r>    4.2268    1.0000 </r>
       <r>    4.3407    1.0000 </r>
       <r>    5.9066    1.0000 </r>
       <r>    6.4026    1.0000 </r>
       <r>    6.5367    1.0000 </r>
       <r>    7.0789    1.0000 </r>
       <r>    7.2326    1.0000 </r>
       <r>    7.2983    1.0000 </r>
       <r>    7.3260    1.0000 </r>
       <r>    7.7693    1.0000 </r>
       <r>    8.1024    1.0000 </r>
       <r>    8.4559    1.0000 </r>
       <r>    8.7245    1.0013 </r>
       <r>    8.9339    1.0307 </r>
       <r>    8.9344    1.0308 </r>
       <r>    9.5679   -0.0168 </r>
       <r>   10.9303   -0.0000 </r>
       <r>   12.2500   -0.0000 </r>
       <r>   14.4553   -0.0000 </r>
       <r>   16.8150    0.0000 </r>
       <r>   19.0638    0.0000 </r>
       <r>   19.5193    0.0000 </r>
       <r>   20.9408    0.0000 </r>
       <r>   21.1967    0.0000 </r>
       <r>   21.9226    0.0000 </r>
      </set>
      <set comment="kpoint 10">
       <r>    1.0600    1.0000 </r>
       <r>    3.2130    1.0000 </r>
       <r>    3.9403    1.0000 </r>
       <r>    3.9574    1.0000 </r>
       <r>    4.0710    1.0000 </r>
       <r>    4.2290    1.0000 </r>
       <r>    4.3296    1.0000 </r>
       <r>    5.7856    1.0000 </r>
       <r>    6.4602    1.0000 </r>
       <r>    6.5641    1.0000 </r>
       <r>    7.0285    1.0000 </r>
       <r>    7.2411    1.0000 </r>
       <r>    7.2426    1.0000 </r>
       <r>    7.3040    1.0000 </r>
       <r>    7.8021    1.0000 </r>
       <r>    7.8518    1.0000 </r>
       <r>    8.2305    1.0000 </r>
       <r>    9.0112    1.0289 </r>
       <r>    9.0726    0.9713 </r>
       <r>    9.2710    0.2899 </r>
       <r>    9.8587   -0.0000 </r>
       <r>   11.1486   -0.0000 </r>
       <r>   11.5473   -0.0000 </r>
       <r>   14.5443   -0.0000 </r>
       <r>   16.9223    0.0000 </r>
       <r>   18.9437    0.0000 </r>
       <r>   19.9803    0.0000 </r>
       <r>   20.5339    0.0000 </r>
       <r>   21.1113    0.0000 </r>
       <r>   21.8104    0.0000 </r>
      </set>
      <set comment="kpoint 11">
       <r>    2.1410    1.0000 </r>
       <r>    3.7754    1.0000 </r>
       <r>    4.1258    1.0000 </r>
       <r>    4.3020    1.0000 </r>
       <r>    4.6789    1.0000 </r>
       <r>    4.8404    1.0000 </r>
       <r>    5.0310    1.0000 </r>
       <r>    5.4748    1.0000 </r>
       <r>    5.6813    1.0000 </r>
       <r>    6.0950    1.0000 </r>
       <r>    6.3646    1.0000 </r>
       <r>    6.4842    1.0000 </r>
       <r>    6.9374    1.0000 </r>
       <r>    7.1900    1.0000 </r>
       <r>    7.3363    1.0000 </r>
       <r>    7.6789    1.0000 </r>
       <r>    7.8542    1.0000 </r>
       <r>    8.4177    1.0000 </r>
       <r>    8.4578    1.0000 </r>
       <r>    8.9529    1.0339 </r>
       <r>    9.5666   -0.0170 </r>
       <r>    9.8265   -0.0001 </r>
       <r>   13.1340   -0.0000 </r>
       <r>   15.1893    0.0000 </r>
       <r>   16.9204    0.0000 </r>
       <r>   18.0845    0.0000 </r>
       <r>   19.5549    0.0000 </r>
       <r>   19.8190    0.0000 </r>
       <r>   21.8231    0.0000 </r>
       <r>   23.0767    0.0000 </r>
      </set>
      <set comment="kpoint 12">
       <r>    2.3420    1.0000 </r>
       <r>    3.6381    1.0000 </r>
       <r>    4.0323    1.0000 </r>
       <r>    4.3091    1.0000 </r>
       <r>    4.6017    1.0000 </r>
       <r>    4.8179    1.0000 </r>
       <r>    5.1614    1.0000 </r>
       <r>    5.6355    1.0000 </r>
       <r>    5.7938    1.0000 </r>
       <r>    6.2726    1.0000 </r>
       <r>    6.3449    1.0000 </r>
       <r>    6.4997    1.0000 </r>
       <r>    6.9297    1.0000 </r>
       <r>    7.1516    1.0000 </r>
       <r>    7.6265    1.0000 </r>
       <r>    7.7047    1.0000 </r>
       <r>    7.7765    1.0000 </r>
       <r>    8.1968    1.0000 </r>
       <r>    8.3967    1.0000 </r>
       <r>    8.9649    1.0351 </r>
       <r>    9.0817    0.9561 </r>
       <r>    9.3889   -0.0011 </r>
       <r>   13.5994   -0.0000 </r>
       <r>   15.1488    0.0000 </r>
       <r>   16.7885    0.0000 </r>
       <r>   18.3640    0.0000 </r>
       <r>   19.3823    0.0000 </r>
       <r>   19.5674    0.0000 </r>
       <r>   21.6730    0.0000 </r>
       <r>   23.3031    0.0000 </r>
      </set>
      <set comment="kpoint 13">
       <r>    2.3785    1.0000 </r>
       <r>    3.6473    1.0000 </r>
       <r>    4.2507    1.0000 </r>
       <r>    4.4472    1.0000 </r>
       <r>    4.6356    1.0000 </r>
       <r>    4.9615    1.0000 </r>
       <r>    4.9617    1.0000 </r>
       <r>    5.2923    1.0000 </r>
       <r>    5.5748    1.0000 </r>
       <r>    6.1543    1.0000 </r>
       <r>    6.4232    1.0000 </r>
       <r>    6.5167    1.0000 </r>
       <r>    6.9614    1.0000 </r>
       <r>    7.2011    1.0000 </r>
       <r>    7.3579    1.0000 </r>
       <r>    7.6929    1.0000 </r>
       <r>    7.9932    1.0000 </r>
       <r>    8.2972    1.0000 </r>
       <r>    8.4707    1.0000 </r>
       <r>    8.7039    1.0008 </r>
       <r>    9.2963    0.2001 </r>
       <r>    9.4633   -0.0355 </r>
       <r>   13.4653   -0.0000 </r>
       <r>   15.1906    0.0000 </r>
       <r>   16.8364    0.0000 </r>
       <r>   17.9543    0.0000 </r>
       <r>   19.3684    0.0000 </r>
       <r>   20.1305    0.0000 </r>
       <r>   21.9414    0.0000 </r>
       <r>   22.9575    0.0000 </r>
      </set>
      <set comment="kpoint 14">
       <r>    2.3764    1.0000 </r>
       <r>    3.6266    1.0000 </r>
       <r>    4.0806    1.0000 </r>
       <r>    4.3238    1.0000 </r>
       <r>    4.6207    1.0000 </r>
       <r>    4.7804    1.0000 </r>
       <r>    5.1454    1.0000 </r>
       <r>    5.6392    1.0000 </r>
       <r>    5.9657    1.0000 </r>
       <r>    6.2563    1.0000 </r>
       <r>    6.2637    1.0000 </r>
       <r>    6.4829    1.0000 </r>
       <r>    6.9279    1.0000 </r>
       <r>    7.1836    1.0000 </r>
       <r>    7.5334    1.0000 </r>
       <r>    7.7313    1.0000 </r>
       <r>    7.8092    1.0000 </r>
       <r>    8.2148    1.0000 </r>
       <r>    8.4700    1.0000 </r>
       <r>    8.8744    1.0175 </r>
       <r>    8.9818    1.0352 </r>
       <r>    9.2494    0.3753 </r>
       <r>   13.5143   -0.0000 </r>
       <r>   15.1813    0.0000 </r>
       <r>   16.8347    0.0000 </r>
       <r>   18.3293    0.0000 </r>
       <r>   19.3524    0.0000 </r>
       <r>   19.7521    0.0000 </r>
       <r>   21.9845    0.0000 </r>
       <r>   22.9825    0.0000 </r>
      </set>
      <set comment="kpoint 15">
       <r>    2.1369    1.0000 </r>
       <r>    3.8133    1.0000 </r>
       <r>    4.0852    1.0000 </r>
       <r>    4.2714    1.0000 </r>
       <r>    4.6279    1.0000 </r>
       <r>    4.8850    1.0000 </r>
       <r>    5.0793    1.0000 </r>
       <r>    5.4233    1.0000 </r>
       <r>    5.5949    1.0000 </r>
       <r>    6.1593    1.0000 </r>
       <r>    6.4315    1.0000 </r>
       <r>    6.5275    1.0000 </r>
       <r>    6.9474    1.0000 </r>
       <r>    7.2034    1.0000 </r>
       <r>    7.2947    1.0000 </r>
       <r>    7.6680    1.0000 </r>
       <r>    8.0740    1.0000 </r>
       <r>    8.1676    1.0000 </r>
       <r>    8.5519    1.0000 </r>
       <r>    8.9790    1.0354 </r>
       <r>    9.5338   -0.0244 </r>
       <r>    9.7803   -0.0003 </r>
       <r>   13.1132   -0.0000 </r>
       <r>   15.2539    0.0000 </r>
       <r>   16.8724    0.0000 </r>
       <r>   18.0493    0.0000 </r>
       <r>   19.4587    0.0000 </r>
       <r>   19.7543    0.0000 </r>
       <r>   21.9334    0.0000 </r>
       <r>   22.9618    0.0000 </r>
      </set>
      <set comment="kpoint 16">
       <r>    2.3501    1.0000 </r>
       <r>    3.6209    1.0000 </r>
       <r>    4.2529    1.0000 </r>
       <r>    4.4789    1.0000 </r>
       <r>    4.6512    1.0000 </r>
       <r>    4.9221    1.0000 </r>
       <r>    4.9338    1.0000 </r>
       <r>    5.3563    1.0000 </r>
       <r>    5.5646    1.0000 </r>
       <r>    6.1010    1.0000 </r>
       <r>    6.3388    1.0000 </r>
       <r>    6.5118    1.0000 </r>
       <r>    6.9645    1.0000 </r>
       <r>    7.1542    1.0000 </r>
       <r>    7.4562    1.0000 </r>
       <r>    7.7125    1.0000 </r>
       <r>    7.7756    1.0000 </r>
       <r>    8.3187    1.0000 </r>
       <r>    8.6233    1.0001 </r>
       <r>    8.6450    1.0002 </r>
       <r>    9.4810   -0.0345 </r>
       <r>    9.5814   -0.0141 </r>
       <r>   13.5606   -0.0000 </r>
       <r>   15.0922    0.0000 </r>
       <r>   16.8456    0.0000 </r>
       <r>   18.0084    0.0000 </r>
       <r>   19.4878    0.0000 </r>
       <r>   20.0097    0.0000 </r>
       <r>   21.5500    0.0000 </r>
       <r>   23.4148    0.0000 </r>
      </set>
      <set comment="kpoint 17">
       <r>    3.2865    1.0000 </r>
       <r>    4.2040    1.0000 </r>
       <r>    4.4749    1.0000 </r>
       <r>    4.8116    1.0000 </r>
       <r>    4.8754    1.0000 </r>
       <r>    5.0902    1.0000 </r>
       <r>    5.2100    1.0000 </r>
       <r>    5.3301    1.0000 </r>
       <r>    5.3874    1.0000 </r>
       <r>    5.8676    1.0000 </r>
       <r>    6.0036    1.0000 </r>
       <r>    6.2765    1.0000 </r>
       <r>    6.9160    1.0000 </r>
       <r>    7.0854    1.0000 </r>
       <r>    7.1033    1.0000 </r>
       <r>    7.3378    1.0000 </r>
       <r>    7.5262    1.0000 </r>
       <r>    8.1108    1.0000 </r>
       <r>    8.4195    1.0000 </r>
       <r>    8.4529    1.0000 </r>
       <r>    9.1723    0.6939 </r>
       <r>   10.1562   -0.0000 </r>
       <r>   11.6341   -0.0000 </r>
       <r>   12.9681   -0.0000 </r>
       <r>   18.8203    0.0000 </r>
       <r>   18.9499    0.0000 </r>
       <r>   20.4996    0.0000 </r>
       <r>   21.1825    0.0000 </r>
       <r>   21.2303    0.0000 </r>
       <r>   21.6559    0.0000 </r>
      </set>
      <set comment="kpoint 18">
       <r>    3.1814    1.0000 </r>
       <r>    3.9875    1.0000 </r>
       <r>    4.3752    1.0000 </r>
       <r>    4.7719    1.0000 </r>
       <r>    4.9904    1.0000 </r>
       <r>    5.1174    1.0000 </r>
       <r>    5.1373    1.0000 </r>
       <r>    5.4071    1.0000 </r>
       <r>    5.4259    1.0000 </r>
       <r>    5.8902    1.0000 </r>
       <r>    6.0918    1.0000 </r>
       <r>    6.2745    1.0000 </r>
       <r>    6.9124    1.0000 </r>
       <r>    7.0729    1.0000 </r>
       <r>    7.1590    1.0000 </r>
       <r>    7.2342    1.0000 </r>
       <r>    7.4245    1.0000 </r>
       <r>    8.0591    1.0000 </r>
       <r>    8.6432    1.0002 </r>
       <r>    8.6965    1.0007 </r>
       <r>    9.2380    0.4221 </r>
       <r>    9.9896   -0.0000 </r>
       <r>   12.1969   -0.0000 </r>
       <r>   13.0284   -0.0000 </r>
       <r>   18.5637    0.0000 </r>
       <r>   18.6902    0.0000 </r>
       <r>   20.3810    0.0000 </r>
       <r>   20.5137    0.0000 </r>
       <r>   21.0564    0.0000 </r>
       <r>   22.1125    0.0000 </r>
      </set>
      <set comment="kpoint 19">
       <r>    3.2543    1.0000 </r>
       <r>    4.3564    1.0000 </r>
       <r>    4.4297    1.0000 </r>
       <r>    4.6825    1.0000 </r>
       <r>    4.7626    1.0000 </r>
       <r>    5.0059    1.0000 </r>
       <r>    5.0581    1.0000 </r>
       <r>    5.2712    1.0000 </r>
       <r>    5.5804    1.0000 </r>
       <r>    6.0239    1.0000 </r>
       <r>    6.1497    1.0000 </r>
       <r>    6.3831    1.0000 </r>
       <r>    6.8701    1.0000 </r>
       <r>    7.0857    1.0000 </r>
       <r>    7.0968    1.0000 </r>
       <r>    7.3466    1.0000 </r>
       <r>    7.8281    1.0000 </r>
       <r>    7.9724    1.0000 </r>
       <r>    8.2168    1.0000 </r>
       <r>    8.3176    1.0000 </r>
       <r>    9.3636    0.0333 </r>
       <r>   10.5543   -0.0000 </r>
       <r>   11.1811   -0.0000 </r>
       <r>   12.8558   -0.0000 </r>
       <r>   18.7291    0.0000 </r>
       <r>   18.9063    0.0000 </r>
       <r>   20.6963    0.0000 </r>
       <r>   21.0180    0.0000 </r>
       <r>   21.4215    0.0000 </r>
       <r>   21.4795    0.0000 </r>
      </set>
      <set comment="kpoint 20">
       <r>    1.4742    1.0000 </r>
       <r>    3.4324    1.0000 </r>
       <r>    4.0012    1.0000 </r>
       <r>    4.1386    1.0000 </r>
       <r>    4.1942    1.0000 </r>
       <r>    4.5655    1.0000 </r>
       <r>    4.6921    1.0000 </r>
       <r>    5.7344    1.0000 </r>
       <r>    6.4605    1.0000 </r>
       <r>    6.5511    1.0000 </r>
       <r>    6.6667    1.0000 </r>
       <r>    6.8543    1.0000 </r>
       <r>    7.0430    1.0000 </r>
       <r>    7.3010    1.0000 </r>
       <r>    7.4099    1.0000 </r>
       <r>    7.6302    1.0000 </r>
       <r>    8.3295    1.0000 </r>
       <r>    8.4056    1.0000 </r>
       <r>    8.5469    1.0000 </r>
       <r>    9.1132    0.8870 </r>
       <r>    9.8453   -0.0000 </r>
       <r>   11.8387   -0.0000 </r>
       <r>   12.5045   -0.0000 </r>
       <r>   12.7259   -0.0000 </r>
       <r>   17.6589    0.0000 </r>
       <r>   17.8949    0.0000 </r>
       <r>   18.6102    0.0000 </r>
       <r>   21.1114    0.0000 </r>
       <r>   21.5224    0.0000 </r>
       <r>   21.6886    0.0000 </r>
      </set>
      <set comment="kpoint 21">
       <r>    2.3939    1.0000 </r>
       <r>    3.7311    1.0000 </r>
       <r>    4.2197    1.0000 </r>
       <r>    4.5592    1.0000 </r>
       <r>    4.5740    1.0000 </r>
       <r>    4.8520    1.0000 </r>
       <r>    5.3612    1.0000 </r>
       <r>    5.5508    1.0000 </r>
       <r>    5.8188    1.0000 </r>
       <r>    6.0202    1.0000 </r>
       <r>    6.3835    1.0000 </r>
       <r>    6.4909    1.0000 </r>
       <r>    6.6930    1.0000 </r>
       <r>    7.0442    1.0000 </r>
       <r>    7.1205    1.0000 </r>
       <r>    7.5744    1.0000 </r>
       <r>    8.1308    1.0000 </r>
       <r>    8.2154    1.0000 </r>
       <r>    8.6547    1.0002 </r>
       <r>    9.0400    1.0110 </r>
       <r>    9.5295   -0.0254 </r>
       <r>    9.8035   -0.0001 </r>
       <r>   13.8167   -0.0000 </r>
       <r>   13.8333   -0.0000 </r>
       <r>   15.5371    0.0000 </r>
       <r>   16.2798    0.0000 </r>
       <r>   20.1147    0.0000 </r>
       <r>   21.5074    0.0000 </r>
       <r>   22.0925    0.0000 </r>
       <r>   22.3540    0.0000 </r>
      </set>
      <set comment="kpoint 22">
       <r>    2.5606    1.0000 </r>
       <r>    3.6326    1.0000 </r>
       <r>    4.0316    1.0000 </r>
       <r>    4.5230    1.0000 </r>
       <r>    4.6869    1.0000 </r>
       <r>    4.8881    1.0000 </r>
       <r>    5.5425    1.0000 </r>
       <r>    5.6203    1.0000 </r>
       <r>    5.8029    1.0000 </r>
       <r>    6.1100    1.0000 </r>
       <r>    6.4747    1.0000 </r>
       <r>    6.5104    1.0000 </r>
       <r>    6.6156    1.0000 </r>
       <r>    7.0417    1.0000 </r>
       <r>    7.1977    1.0000 </r>
       <r>    7.2942    1.0000 </r>
       <r>    8.1946    1.0000 </r>
       <r>    8.2704    1.0000 </r>
       <r>    8.4530    1.0000 </r>
       <r>    8.9578    1.0345 </r>
       <r>    9.3860    0.0022 </r>
       <r>    9.6714   -0.0032 </r>
       <r>   13.8192   -0.0000 </r>
       <r>   14.0504   -0.0000 </r>
       <r>   15.5874    0.0000 </r>
       <r>   16.1501    0.0000 </r>
       <r>   20.1955    0.0000 </r>
       <r>   21.5770    0.0000 </r>
       <r>   22.2296    0.0000 </r>
       <r>   22.3965    0.0000 </r>
      </set>
      <set comment="kpoint 23">
       <r>    2.5646    1.0000 </r>
       <r>    3.6324    1.0000 </r>
       <r>    4.1779    1.0000 </r>
       <r>    4.5139    1.0000 </r>
       <r>    4.7008    1.0000 </r>
       <r>    5.0665    1.0000 </r>
       <r>    5.2032    1.0000 </r>
       <r>    5.5349    1.0000 </r>
       <r>    5.7672    1.0000 </r>
       <r>    5.9956    1.0000 </r>
       <r>    6.3751    1.0000 </r>
       <r>    6.4951    1.0000 </r>
       <r>    6.7008    1.0000 </r>
       <r>    7.0652    1.0000 </r>
       <r>    7.1602    1.0000 </r>
       <r>    7.4466    1.0000 </r>
       <r>    8.2090    1.0000 </r>
       <r>    8.2322    1.0000 </r>
       <r>    8.5779    1.0000 </r>
       <r>    8.8986    1.0228 </r>
       <r>    9.4669   -0.0354 </r>
       <r>    9.7516   -0.0005 </r>
       <r>   13.8242   -0.0000 </r>
       <r>   13.9915   -0.0000 </r>
       <r>   15.5718    0.0000 </r>
       <r>   16.2402    0.0000 </r>
       <r>   20.1027    0.0000 </r>
       <r>   21.3543    0.0000 </r>
       <r>   22.1917    0.0000 </r>
       <r>   22.4595    0.0000 </r>
      </set>
      <set comment="kpoint 24">
       <r>    3.0475    1.0000 </r>
       <r>    3.5565    1.0000 </r>
       <r>    3.8867    1.0000 </r>
       <r>    4.2687    1.0000 </r>
       <r>    5.1997    1.0000 </r>
       <r>    5.5005    1.0000 </r>
       <r>    5.7386    1.0000 </r>
       <r>    5.9207    1.0000 </r>
       <r>    6.0810    1.0000 </r>
       <r>    6.1331    1.0000 </r>
       <r>    6.3423    1.0000 </r>
       <r>    6.5152    1.0000 </r>
       <r>    6.6089    1.0000 </r>
       <r>    6.7290    1.0000 </r>
       <r>    6.8860    1.0000 </r>
       <r>    6.9614    1.0000 </r>
       <r>    7.9437    1.0000 </r>
       <r>    8.3779    1.0000 </r>
       <r>    8.7765    1.0038 </r>
       <r>    9.1047    0.9081 </r>
       <r>    9.2398    0.4145 </r>
       <r>   10.2784   -0.0000 </r>
       <r>   11.5154   -0.0000 </r>
       <r>   12.7204   -0.0000 </r>
       <r>   15.8096    0.0000 </r>
       <r>   17.4819    0.0000 </r>
       <r>   17.9108    0.0000 </r>
       <r>   19.8901    0.0000 </r>
       <r>   22.7684    0.0000 </r>
       <r>   24.5567    0.0000 </r>
      </set>
      <set comment="kpoint 25">
       <r>    3.0314    1.0000 </r>
       <r>    3.5947    1.0000 </r>
       <r>    3.6566    1.0000 </r>
       <r>    4.2807    1.0000 </r>
       <r>    5.2041    1.0000 </r>
       <r>    5.5005    1.0000 </r>
       <r>    5.7262    1.0000 </r>
       <r>    5.9712    1.0000 </r>
       <r>    6.0931    1.0000 </r>
       <r>    6.1297    1.0000 </r>
       <r>    6.3343    1.0000 </r>
       <r>    6.5224    1.0000 </r>
       <r>    6.6170    1.0000 </r>
       <r>    6.7306    1.0000 </r>
       <r>    6.8840    1.0000 </r>
       <r>    6.9479    1.0000 </r>
       <r>    7.9854    1.0000 </r>
       <r>    8.4094    1.0000 </r>
       <r>    8.9012    1.0235 </r>
       <r>    9.0887    0.9428 </r>
       <r>    9.2180    0.5064 </r>
       <r>   10.1609   -0.0000 </r>
       <r>   11.9966   -0.0000 </r>
       <r>   12.9065   -0.0000 </r>
       <r>   15.5494    0.0000 </r>
       <r>   17.0629    0.0000 </r>
       <r>   17.9428    0.0000 </r>
       <r>   19.8621    0.0000 </r>
       <r>   22.8581    0.0000 </r>
       <r>   24.4028    0.0000 </r>
      </set>
      <set comment="kpoint 26">
       <r>    3.0408    1.0000 </r>
       <r>    3.5874    1.0000 </r>
       <r>    3.9233    1.0000 </r>
       <r>    4.1092    1.0000 </r>
       <r>    5.1710    1.0000 </r>
       <r>    5.4011    1.0000 </r>
       <r>    5.7124    1.0000 </r>
       <r>    6.0773    1.0000 </r>
       <r>    6.1917    1.0000 </r>
       <r>    6.2252    1.0000 </r>
       <r>    6.4403    1.0000 </r>
       <r>    6.4623    1.0000 </r>
       <r>    6.6090    1.0000 </r>
       <r>    6.7847    1.0000 </r>
       <r>    6.8385    1.0000 </r>
       <r>    6.8965    1.0000 </r>
       <r>    8.1004    1.0000 </r>
       <r>    8.1421    1.0000 </r>
       <r>    8.6009    1.0001 </r>
       <r>    9.2348    0.4357 </r>
       <r>    9.3665    0.0285 </r>
       <r>   10.6455   -0.0000 </r>
       <r>   11.0673   -0.0000 </r>
       <r>   12.6577   -0.0000 </r>
       <r>   15.7824    0.0000 </r>
       <r>   17.5208    0.0000 </r>
       <r>   17.8983    0.0000 </r>
       <r>   19.9505    0.0000 </r>
       <r>   22.6322    0.0000 </r>
       <r>   24.6323    0.0000 </r>
      </set>
      <set comment="kpoint 27">
       <r>    2.9187    1.0000 </r>
       <r>    3.0447    1.0000 </r>
       <r>    3.2882    1.0000 </r>
       <r>    3.6601    1.0000 </r>
       <r>    5.6316    1.0000 </r>
       <r>    5.7460    1.0000 </r>
       <r>    5.8306    1.0000 </r>
       <r>    6.1154    1.0000 </r>
       <r>    6.1886    1.0000 </r>
       <r>    6.4198    1.0000 </r>
       <r>    6.4263    1.0000 </r>
       <r>    6.6172    1.0000 </r>
       <r>    7.2914    1.0000 </r>
       <r>    7.3512    1.0000 </r>
       <r>    7.5122    1.0000 </r>
       <r>    7.8455    1.0000 </r>
       <r>    8.2891    1.0000 </r>
       <r>    8.7031    1.0008 </r>
       <r>    8.7673    1.0031 </r>
       <r>    9.1864    0.6382 </r>
       <r>    9.7249   -0.0010 </r>
       <r>   10.4955   -0.0000 </r>
       <r>   10.8868   -0.0000 </r>
       <r>   11.1116   -0.0000 </r>
       <r>   14.9921    0.0000 </r>
       <r>   15.3870    0.0000 </r>
       <r>   16.1914    0.0000 </r>
       <r>   17.7082    0.0000 </r>
       <r>   25.2701    0.0000 </r>
       <r>   25.3639    0.0000 </r>
      </set>
     </set>
    </set>
   </array>
  </eigenvalues>
  <separator name="orbital magnetization" >
   <v name="MAGDIPOLOUT">      0.00000000      0.00000000      0.00000000</v>
  </separator>
  <dos>
   <i name="efermi">      9.21952524 </i>
   <total>
    <array>
     <dimension dim="1">gridpoints</dimension>
     <dimension dim="2">spin</dimension>
     <field>energy</field>
     <field>total</field>
     <field>integrated</field>
     <set>
      <set comment="spin 1">
       <r>    -1.9034     0.0000     0.0000 </r>
       <r>    -1.8058     0.0000     0.0000 </r>
       <r>    -1.7083     0.0000     0.0000 </r>
       <r>    -1.6107     0.0000     0.0000 </r>
       <r>    -1.5131    -0.0000    -0.0000 </r>
       <r>    -1.4156    -0.0000    -0.0000 </r>
       <r>    -1.3180    -0.0000    -0.0000 </r>
       <r>    -1.2205    -0.0000    -0.0000 </r>
       <r>    -1.1229    -0.0000    -0.0000 </r>
       <r>    -1.0254    -0.0000    -0.0000 </r>
       <r>    -0.9278    -0.0000    -0.0000 </r>
       <r>    -0.8302    -0.0000    -0.0000 </r>
       <r>    -0.7327    -0.0000    -0.0000 </r>
       <r>    -0.6351    -0.0000    -0.0000 </r>
       <r>    -0.5376    -0.0000    -0.0000 </r>
       <r>    -0.4400    -0.0001    -0.0000 </r>
       <r>    -0.3425    -0.0006    -0.0001 </r>
       <r>    -0.2449    -0.0023    -0.0003 </r>
       <r>    -0.1473    -0.0028    -0.0006 </r>
       <r>    -0.0498     0.0106     0.0005 </r>
       <r>     0.0478     0.0440     0.0048 </r>
       <r>     0.1453     0.0626     0.0109 </r>
       <r>     0.2429     0.0324     0.0140 </r>
       <r>     0.3405    -0.0062     0.0134 </r>
       <r>     0.4380     0.0453     0.0178 </r>
       <r>     0.5356     0.2298     0.0403 </r>
       <r>     0.6331     0.3727     0.0766 </r>
       <r>     0.7307     0.2644     0.1024 </r>
       <r>     0.8282     0.0610     0.1084 </r>
       <r>     0.9258     0.1307     0.1211 </r>
       <r>     1.0234     0.5270     0.1725 </r>
       <r>     1.1209     0.7600     0.2467 </r>
       <r>     1.2185     0.4896     0.2944 </r>
       <r>     1.3160     0.1781     0.3118 </r>
       <r>     1.4136     0.2792     0.3391 </r>
       <r>     1.5111     0.5056     0.3884 </r>
       <r>     1.6087     0.4506     0.4323 </r>
       <r>     1.7063     0.2212     0.4539 </r>
       <r>     1.8038     0.0696     0.4607 </r>
       <r>     1.9014     0.0914     0.4696 </r>
       <r>     1.9989     0.2901     0.4979 </r>
       <r>     2.0965     0.5201     0.5486 </r>
       <r>     2.1940     0.6944     0.6164 </r>
       <r>     2.2916     1.0593     0.7197 </r>
       <r>     2.3892     1.6192     0.8777 </r>
       <r>     2.4867     1.8402     1.0572 </r>
       <r>     2.5843     1.5043     1.2040 </r>
       <r>     2.6818     0.8126     1.2833 </r>
       <r>     2.7794     0.3343     1.3159 </r>
       <r>     2.8769     0.7859     1.3925 </r>
       <r>     2.9745     1.9651     1.5843 </r>
       <r>     3.0721     2.8065     1.8581 </r>
       <r>     3.1696     2.8421     2.1353 </r>
       <r>     3.2672     2.4694     2.3762 </r>
       <r>     3.3647     1.8957     2.5612 </r>
       <r>     3.4623     1.8969     2.7462 </r>
       <r>     3.5599     3.5229     3.0899 </r>
       <r>     3.6574     5.4092     3.6176 </r>
       <r>     3.7550     5.4530     4.1496 </r>
       <r>     3.8525     4.8413     4.6219 </r>
       <r>     3.9501     5.5381     5.1622 </r>
       <r>     4.0476     6.7978     5.8254 </r>
       <r>     4.1452     7.3800     6.5453 </r>
       <r>     4.2428     7.1367     7.2416 </r>
       <r>     4.3403     6.0592     7.8327 </r>
       <r>     4.4379     4.8448     8.3053 </r>
       <r>     4.5354     4.8619     8.7797 </r>
       <r>     4.6330     5.8764     9.3529 </r>
       <r>     4.7305     6.2944     9.9670 </r>
       <r>     4.8281     5.6601    10.5192 </r>
       <r>     4.9257     4.7977    10.9873 </r>
       <r>     5.0232     4.4237    11.4188 </r>
       <r>     5.1208     4.6289    11.8704 </r>
       <r>     5.2183     4.7326    12.3321 </r>
       <r>     5.3159     4.4050    12.7619 </r>
       <r>     5.4134     4.5469    13.2054 </r>
       <r>     5.5110     5.5188    13.7438 </r>
       <r>     5.6086     6.5029    14.3782 </r>
       <r>     5.7061     6.9565    15.0569 </r>
       <r>     5.8037     6.7477    15.7152 </r>
       <r>     5.9012     6.1975    16.3198 </r>
       <r>     5.9988     6.6134    16.9650 </r>
       <r>     6.0963     7.9823    17.7437 </r>
       <r>     6.1939     8.4048    18.5637 </r>
       <r>     6.2915     8.3328    19.3766 </r>
       <r>     6.3890    10.1459    20.3664 </r>
       <r>     6.4866    12.5173    21.5876 </r>
       <r>     6.5841    11.8790    22.7464 </r>
       <r>     6.6817     8.5812    23.5836 </r>
       <r>     6.7792     6.2933    24.1976 </r>
       <r>     6.8768     6.8493    24.8658 </r>
       <r>     6.9744     8.5381    25.6987 </r>
       <r>     7.0719     9.3094    26.6069 </r>
       <r>     7.1695     9.3495    27.5190 </r>
       <r>     7.2670     9.2897    28.4253 </r>
       <r>     7.3646     8.4221    29.2470 </r>
       <r>     7.4622     6.4521    29.8764 </r>
       <r>     7.5597     4.9063    30.3551 </r>
       <r>     7.6573     4.6905    30.8127 </r>
       <r>     7.7548     4.9636    31.2969 </r>
       <r>     7.8524     4.8530    31.7703 </r>
       <r>     7.9499     4.5101    32.2103 </r>
       <r>     8.0475     4.9253    32.6908 </r>
       <r>     8.1451     6.4982    33.3248 </r>
       <r>     8.2426     8.0183    34.1070 </r>
       <r>     8.3402     8.2524    34.9121 </r>
       <r>     8.4377     7.4991    35.6437 </r>
       <r>     8.5353     6.4310    36.2711 </r>
       <r>     8.6328     5.3792    36.7959 </r>
       <r>     8.7304     4.5134    37.2362 </r>
       <r>     8.8280     4.1797    37.6440 </r>
       <r>     8.9255     4.9173    38.1237 </r>
       <r>     9.0231     6.1000    38.7188 </r>
       <r>     9.1206     6.6316    39.3657 </r>
       <r>     9.2182     6.4175    39.9918 </r>
       <r>     9.3157     5.6753    40.5455 </r>
       <r>     9.4133     4.7540    41.0093 </r>
       <r>     9.5109     4.0192    41.4014 </r>
       <r>     9.6084     3.5305    41.7458 </r>
       <r>     9.7060     3.5537    42.0925 </r>
       <r>     9.8035     3.6634    42.4499 </r>
       <r>     9.9011     2.7591    42.7191 </r>
       <r>     9.9986     1.3251    42.8483 </r>
       <r>    10.0962     0.8033    42.9267 </r>
       <r>    10.1938     1.1775    43.0416 </r>
       <r>    10.2913     1.3252    43.1709 </r>
       <r>    10.3889     0.9793    43.2664 </r>
       <r>    10.4864     0.8228    43.3467 </r>
       <r>    10.5840     0.9548    43.4398 </r>
       <r>    10.6816     0.9390    43.5314 </r>
       <r>    10.7791     0.9275    43.6219 </r>
       <r>    10.8767     1.2156    43.7405 </r>
       <r>    10.9742     1.5242    43.8892 </r>
       <r>    11.0718     1.6556    44.0507 </r>
       <r>    11.1693     1.5055    44.1976 </r>
       <r>    11.2669     0.9303    44.2883 </r>
       <r>    11.3645     0.4633    44.3335 </r>
       <r>    11.4620     0.6102    44.3931 </r>
       <r>    11.5596     0.9269    44.4835 </r>
       <r>    11.6571     0.8500    44.5664 </r>
       <r>    11.7547     0.6661    44.6314 </r>
       <r>    11.8522     0.8179    44.7112 </r>
       <r>    11.9498     1.0061    44.8093 </r>
       <r>    12.0474     0.8655    44.8938 </r>
       <r>    12.1449     0.6187    44.9541 </r>
       <r>    12.2425     0.4985    45.0028 </r>
       <r>    12.3400     0.3924    45.0410 </r>
       <r>    12.4376     0.3693    45.0771 </r>
       <r>    12.5351     0.6571    45.1412 </r>
       <r>    12.6327     1.2124    45.2595 </r>
       <r>    12.7303     1.6725    45.4226 </r>
       <r>    12.8278     1.6780    45.5863 </r>
       <r>    12.9254     1.4266    45.7255 </r>
       <r>    13.0229     1.2590    45.8483 </r>
       <r>    13.1205     1.1658    45.9620 </r>
       <r>    13.2180     1.0014    46.0597 </r>
       <r>    13.3156     0.7881    46.1366 </r>
       <r>    13.4132     0.7669    46.2114 </r>
       <r>    13.5107     0.9042    46.2996 </r>
       <r>    13.6083     0.9199    46.3894 </r>
       <r>    13.7058     1.1144    46.4981 </r>
       <r>    13.8034     1.8423    46.6778 </r>
       <r>    13.9009     2.2959    46.9018 </r>
       <r>    13.9985     1.8755    47.0848 </r>
       <r>    14.0961     1.1054    47.1926 </r>
       <r>    14.1936     0.4155    47.2332 </r>
       <r>    14.2912     0.0405    47.2371 </r>
       <r>    14.3887     0.1536    47.2521 </r>
       <r>    14.4863     0.5450    47.3053 </r>
       <r>    14.5839     0.7078    47.3743 </r>
       <r>    14.6814     0.4223    47.4155 </r>
       <r>    14.7790     0.0670    47.4221 </r>
       <r>    14.8765     0.0687    47.4288 </r>
       <r>    14.9741     0.4755    47.4751 </r>
       <r>    15.0716     1.0695    47.5795 </r>
       <r>    15.1692     1.4987    47.7257 </r>
       <r>    15.2668     1.4312    47.8653 </r>
       <r>    15.3643     1.1372    47.9763 </r>
       <r>    15.4619     1.3789    48.1108 </r>
       <r>    15.5594     2.0371    48.3095 </r>
       <r>    15.6570     2.1748    48.5217 </r>
       <r>    15.7545     1.8182    48.6990 </r>
       <r>    15.8521     1.4890    48.8443 </r>
       <r>    15.9497     1.0587    48.9476 </r>
       <r>    16.0472     0.8266    49.0282 </r>
       <r>    16.1448     1.3446    49.1594 </r>
       <r>    16.2423     1.9815    49.3527 </r>
       <r>    16.3399     1.6460    49.5133 </r>
       <r>    16.4374     0.6207    49.5739 </r>
       <r>    16.5350    -0.0481    49.5692 </r>
       <r>    16.6326    -0.0126    49.5679 </r>
       <r>    16.7301     0.6719    49.6335 </r>
       <r>    16.8277     1.7113    49.8004 </r>
       <r>    16.9252     2.2704    50.0219 </r>
       <r>    17.0228     1.9301    50.2102 </r>
       <r>    17.1203     1.1479    50.3222 </r>
       <r>    17.2179     0.4154    50.3627 </r>
       <r>    17.3155     0.1161    50.3741 </r>
       <r>    17.4130     0.4769    50.4206 </r>
       <r>    17.5106     1.1078    50.5287 </r>
       <r>    17.6081     1.3801    50.6633 </r>
       <r>    17.7057     1.3287    50.7929 </r>
       <r>    17.8033     1.6495    50.9538 </r>
       <r>    17.9008     2.6124    51.2087 </r>
       <r>    17.9984     3.0928    51.5104 </r>
       <r>    18.0959     2.1984    51.7249 </r>
       <r>    18.1935     0.9023    51.8129 </r>
       <r>    18.2910     0.3835    51.8503 </r>
       <r>    18.3886     0.5822    51.9071 </r>
       <r>    18.4862     0.9993    52.0046 </r>
       <r>    18.5837     1.4915    52.1501 </r>
       <r>    18.6813     1.8072    52.3264 </r>
       <r>    18.7788     1.6907    52.4914 </r>
       <r>    18.8764     1.5096    52.6386 </r>
       <r>    18.9739     1.4953    52.7845 </r>
       <r>    19.0715     1.2282    52.9043 </r>
       <r>    19.1691     0.6680    52.9695 </r>
       <r>    19.2666     0.4527    53.0137 </r>
       <r>    19.3642     0.8902    53.1005 </r>
       <r>    19.4617     1.4497    53.2419 </r>
       <r>    19.5593     1.4760    53.3859 </r>
       <r>    19.6568     1.1143    53.4946 </r>
       <r>    19.7544     1.1569    53.6075 </r>
       <r>    19.8520     1.8192    53.7850 </r>
       <r>    19.9495     2.4880    54.0277 </r>
       <r>    20.0471     2.7542    54.2964 </r>
       <r>    20.1446     2.5333    54.5435 </r>
       <r>    20.2422     1.9187    54.7307 </r>
       <r>    20.3397     1.5969    54.8865 </r>
       <r>    20.4373     1.8748    55.0694 </r>
       <r>    20.5349     1.9901    55.2636 </r>
       <r>    20.6324     1.5264    55.4125 </r>
       <r>    20.7300     0.8784    55.4982 </r>
       <r>    20.8275     0.4561    55.5427 </r>
       <r>    20.9251     0.6275    55.6039 </r>
       <r>    21.0226     1.4503    55.7454 </r>
       <r>    21.1202     2.1937    55.9594 </r>
       <r>    21.2178     2.1503    56.1692 </r>
       <r>    21.3153     1.6701    56.3321 </r>
       <r>    21.4129     1.6689    56.4949 </r>
       <r>    21.5104     2.3061    56.7199 </r>
       <r>    21.6080     2.7638    56.9895 </r>
       <r>    21.7056     2.4809    57.2315 </r>
       <r>    21.8031     1.8693    57.4139 </r>
       <r>    21.9007     1.5331    57.5635 </r>
       <r>    21.9982     1.5094    57.7107 </r>
       <r>    22.0958     1.6077    57.8676 </r>
       <r>    22.1933     1.7338    58.0367 </r>
       <r>    22.2909     1.7856    58.2109 </r>
       <r>    22.3885     1.7347    58.3802 </r>
       <r>    22.4860     1.4621    58.5228 </r>
       <r>    22.5836     1.0294    58.6232 </r>
       <r>    22.6811     0.8586    58.7070 </r>
       <r>    22.7787     1.0581    58.8102 </r>
       <r>    22.8762     1.3465    58.9416 </r>
       <r>    22.9738     1.3985    59.0780 </r>
       <r>    23.0714     1.0455    59.1800 </r>
       <r>    23.1689     0.5367    59.2324 </r>
       <r>    23.2665     0.3198    59.2636 </r>
       <r>    23.3640     0.3956    59.3022 </r>
       <r>    23.4616     0.3927    59.3405 </r>
       <r>    23.5591     0.2031    59.3603 </r>
       <r>    23.6567     0.0308    59.3633 </r>
       <r>    23.7543    -0.0193    59.3614 </r>
       <r>    23.8518    -0.0118    59.3602 </r>
       <r>    23.9494    -0.0063    59.3596 </r>
       <r>    24.0469    -0.0176    59.3579 </r>
       <r>    24.1445    -0.0349    59.3545 </r>
       <r>    24.2420     0.0239    59.3568 </r>
       <r>    24.3396     0.2758    59.3837 </r>
       <r>    24.4372     0.6768    59.4498 </r>
       <r>    24.5347     1.0332    59.5506 </r>
       <r>    24.6323     1.1035    59.6582 </r>
       <r>    24.7298     0.7337    59.7298 </r>
       <r>    24.8274     0.2199    59.7513 </r>
       <r>    24.9250    -0.0464    59.7467 </r>
       <r>    25.0225    -0.0830    59.7386 </r>
       <r>    25.1201     0.0420    59.7427 </r>
       <r>    25.2176     0.4276    59.7844 </r>
       <r>    25.3152     0.8791    59.8702 </r>
       <r>    25.4127     0.8901    59.9570 </r>
       <r>    25.5103     0.4481    60.0008 </r>
       <r>    25.6079     0.0637    60.0070 </r>
       <r>    25.7054    -0.0419    60.0029 </r>
       <r>    25.8030    -0.0236    60.0006 </r>
       <r>    25.9005    -0.0053    60.0001 </r>
       <r>    25.9981    -0.0006    60.0000 </r>
       <r>    26.0956    -0.0000    60.0000 </r>
       <r>    26.1932    -0.0000    60.0000 </r>
       <r>    26.2908    -0.0000    60.0000 </r>
       <r>    26.3883    -0.0000    60.0000 </r>
       <r>    26.4859    -0.0000    60.0000 </r>
       <r>    26.5834    -0.0000    60.0000 </r>
       <r>    26.6810    -0.0000    60.0000 </r>
       <r>    26.7785     0.0000    60.0000 </r>
       <r>    26.8761     0.0000    60.0000 </r>
       <r>    26.9737     0.0000    60.0000 </r>
       <r>    27.0712     0.0000    60.0000 </r>
       <r>    27.1688     0.0000    60.0000 </r>
       <r>    27.2663     0.0000    60.0000 </r>
       <r>    27.3639     0.0000    60.0000 </r>
      </set>
     </set>
    </array>
   </total>
  </dos>
 </calculation>
 <structure name="finalpos" >
  <crystal>
   <varray name="basis" >
    <v>       3.86600000       0.00000000       0.00000000 </v>
    <v>       0.00000000       3.86600000       0.00000000 </v>
    <v>       0.00000000       0.00000000       3.86600000 </v>
   </varray>
   <i name="volume">     57.78106590 </i>
   <varray name="rec_basis" >
    <v>       0.25866529       0.00000000       0.00000000 </v>
    <v>       0.00000000       0.25866529       0.00000000 </v>
    <v>       0.00000000       0.00000000       0.25866529 </v>
   </varray>
  </crystal>
  <varray name="positions" >
   <v>       0.00000000       0.00000000       0.00000000 </v>
   <v>       0.50000000       0.50000000       0.00000000 </v>
   <v>       0.50000000       0.00000000       0.50000000 </v>
   <v>       0.00000000       0.50000000       0.50000000 </v>
  </varray>
 </structure>
</modeling>
