unknown system                          
   1.00000000000000     
     2.236800    0.000000    0.000000
    -1.118400    1.937126    0.000000
     0.000000    0.000000    3.936000
   Fe
     2
Direct
  0.000000  0.000000  0.000000
  0.333333  0.666667  0.500000
 
   20   20   32
  143.05      136.12      117.35      91.766      65.137      42.046      25.094      14.904      10.372      9.1315    
  8.8558      9.1315      10.372      14.904      25.094      42.046      65.137      91.766      117.35      136.12    
  136.12      136.12      123.30      101.26      75.465      51.063      31.585      18.592      11.802      9.4113    
  8.8428      8.8428      9.4112      11.802      18.591      31.584      51.062      75.467      101.27      123.31    
  117.35      123.28      117.35      101.26      79.260      56.291      36.396      21.929      13.437      9.8250    
  8.8404      8.5730      8.8402      9.8251      13.437      21.928      36.394      56.290      79.262      101.27    
  91.765      101.20      101.20      91.766      75.465      56.291      38.172      23.912      14.746      10.290    
  8.8463      8.3626      8.3625      8.8463      10.291      14.746      23.912      38.170      56.288      75.463    
  65.131      75.374      79.135      75.379      65.137      51.063      36.396      23.912      15.246      10.603    
  8.8664      8.2283      7.9988      8.2282      8.8664      10.604      15.247      23.914      36.396      51.060    
  42.045      50.986      56.155      56.156      50.988      42.046      31.585      21.929      14.746      10.603    
  8.8794      8.1657      7.7819      7.7819      8.1654      8.8787      10.603      14.747      21.932      31.587    
  25.098      31.552      36.311      38.063      36.309      31.549      25.094      18.592      13.437      10.290    
  8.8664      8.1657      7.7113      7.5560      7.7115      8.1651      8.8646      10.289      13.437      18.594    
  14.904      18.599      21.920      23.884      23.882      21.916      18.596      14.904      11.802      9.8250    
  8.8463      8.2283      7.7819      7.5560      7.5564      7.7827      8.2282      8.8445      9.8218      11.799    
  10.368      11.829      13.482      14.794      15.293      14.793      13.482      11.831      10.372      9.4113    
  8.8404      8.3626      7.9988      7.7819      7.7115      7.7827      8.0004      8.3643      8.8404      9.4086    
  9.1314      9.4456      9.8911      10.380      10.705      10.706      10.382      9.8943      9.4482      9.1315    
  8.8428      8.5730      8.3625      8.2282      8.1654      8.1651      8.2282      8.3643      8.5763      8.8455    
  8.8596      8.8830      8.9141      8.9499      8.9920      9.0139      8.9937      8.9517      8.9140      8.8803    
  8.8558      8.8428      8.8402      8.8463      8.8664      8.8787      8.8646      8.8445      8.8404      8.8455    
  9.1314      8.8830      8.6509      8.4737      8.3660      8.3192      8.3195      8.3660      8.4720      8.6476    
  8.8804      9.1315      9.4112      9.8251      10.291      10.604      10.603      10.289      9.8218      9.4086    
  10.368      9.4456      8.9141      8.4737      8.1422      7.9479      7.8854      7.9472      8.1406      8.4720    
  8.9141      9.4483      10.372      11.802      13.437      14.746      15.247      14.747      13.437      11.799    
  14.904      11.829      9.8911      8.9499      8.3660      7.9479      7.7378      7.7374      7.9472      8.3661    
  8.9516      9.8942      11.831      14.904      18.591      21.928      23.912      23.914      21.932      18.594    
  25.098      18.599      13.482      10.380      8.9920      8.3192      7.8854      7.7374      7.8853      8.3198    
  8.9937      10.382      13.482      18.597      25.094      31.584      36.394      38.170      36.396      31.587    
  42.045      31.552      21.920      14.794      10.705      9.0139      8.3195      7.9472      7.9472      8.3198    
  9.0147      10.705      14.793      21.917      31.550      42.046      51.062      56.290      56.288      51.060    
  65.131      50.986      36.311      23.884      15.293      10.706      8.9937      8.3660      8.1406      8.3661    
  8.9937      10.705      15.292      23.882      36.311      50.989      65.137      75.467      79.262      75.463    
  91.765      75.374      56.155      38.063      23.882      14.793      10.382      8.9517      8.4720      8.4721    
  8.9516      10.382      14.793      23.882      38.065      56.157      75.377      91.766      101.27      101.27    
  117.35      101.20      79.135      56.156      36.309      21.916      13.482      9.8943      8.9140      8.6476    
  8.9141      9.8942      13.482      21.917      36.311      56.157      79.133      101.20      117.35      123.31    
  136.12      123.28      101.20      75.379      50.988      31.549      18.596      11.831      9.4482      8.8803    
  8.8804      9.4483      11.831      18.597      31.550      50.989      75.377      101.20      123.27      136.12    
  134.69      128.18      110.51      86.400      61.299      39.561      23.677      14.224      10.097      8.9762    
  8.7051      8.9763      10.097      14.225      23.677      39.561      61.299      86.400      110.51      128.18    
  128.18      128.18      116.11      95.346      71.023      48.028      29.729      17.613      11.371      9.2208    
  8.6815      8.6814      9.2207      11.371      17.612      29.728      48.027      71.024      95.350      116.11    
  110.51      116.09      110.51      95.346      74.596      52.941      34.227      20.697      12.847      9.5738    
  8.6730      8.4119      8.6728      9.5738      12.847      20.696      34.225      52.940      74.598      95.350    
  86.399      95.298      95.299      86.400      71.023      52.941      35.889      22.536      14.037      9.9771    
  8.6749      8.2050      8.2049      8.6749      9.9776      14.038      22.536      35.888      52.939      71.020    
  61.294      70.959      74.508      70.963      61.299      48.028      34.227      22.536      14.493      10.251    
  8.6871      8.0743      7.8530      8.0742      8.6871      10.252      14.495      22.538      34.227      48.025    
  39.561      47.984      52.859      52.861      47.986      39.561      29.729      20.697      14.037      10.251    
  8.6961      8.0139      7.6448      7.6448      8.0136      8.6955      10.251      14.039      20.700      29.731    
  23.680      29.730      34.203      35.852      34.202      29.727      23.677      17.613      12.847      9.9771    
  8.6871      8.0139      7.5772      7.4287      7.5774      8.0133      8.6855      9.9755      12.847      17.615    
  14.224      17.652      20.748      22.584      22.583      20.745      17.649      14.224      11.371      9.5738    
  8.6749      8.0743      7.6448      7.4287      7.4291      7.6454      8.0742      8.6732      9.5708      11.369    
  10.093      11.427      12.948      14.161      14.623      14.160      12.948      11.429      10.097      9.2208    
  8.6730      8.2050      7.8530      7.6448      7.5774      7.6454      7.8545      8.2066      8.6730      9.2183    
  8.9762      9.2818      9.6918      10.139      10.437      10.437      10.141      9.6947      9.2843      8.9763    
  8.6815      8.4119      8.2049      8.0742      8.0136      8.0133      8.0742      8.2066      8.4150      8.6839    
  8.7087      8.7474      8.7967      8.8483      8.8959      8.9184      8.8975      8.8500      8.7965      8.7449    
  8.7051      8.6814      8.6728      8.6749      8.6871      8.6955      8.6855      8.6732      8.6730      8.6839    
  8.9762      8.7474      8.5390      8.3850      8.2954      8.2583      8.2586      8.2954      8.3834      8.5359    
  8.7450      8.9763      9.2207      9.5738      9.9776      10.252      10.251      9.9755      9.5708      9.2183    
  10.093      9.2818      8.7967      8.3850      8.0796      7.9030      7.8466      7.9023      8.0781      8.3835    
  8.7967      9.2844      10.097      11.371      12.847      14.038      14.495      14.039      12.847      11.369    
  14.224      11.427      9.6918      8.8483      8.2954      7.9030      7.7072      7.7069      7.9023      8.2955    
  8.8500      9.6946      11.429      14.225      17.612      20.696      22.536      22.538      20.700      17.615    
  23.680      17.652      12.948      10.139      8.8959      8.2583      7.8466      7.7069      7.8465      8.2589    
  8.8975      10.141      12.947      17.649      23.677      29.728      34.225      35.888      34.227      29.731    
  39.561      29.730      20.748      14.161      10.437      8.9184      8.2586      7.9023      7.9023      8.2589    
  8.9191      10.437      14.159      20.745      29.728      39.561      48.027      52.940      52.939      48.025    
  61.294      47.984      34.203      22.584      14.623      10.437      8.8975      8.2954      8.0781      8.2955    
  8.8975      10.437      14.622      22.583      34.203      47.987      61.299      71.024      74.598      71.020    
  86.399      70.959      52.859      35.852      22.583      14.160      10.141      8.8500      8.3834      8.3835    
  8.8500      10.141      14.159      22.583      35.853      52.862      70.962      86.400      95.350      95.350    
  110.51      95.298      74.508      52.861      34.202      20.745      12.948      9.6947      8.7965      8.5359    
  8.7967      9.6946      12.947      20.745      34.203      52.862      74.506      95.294      110.51      116.11    
  128.18      116.09      95.299      70.963      47.986      29.727      17.649      11.429      9.2843      8.7449    
  8.7450      9.2844      11.429      17.649      29.728      47.987      70.962      95.294      116.08      128.18    
  112.50      107.06      92.290      72.105      51.089      32.994      19.985      12.496      9.4085      8.5528    
  8.2973      8.5528      9.4085      12.496      19.985      32.994      51.089      72.105      92.290      107.06    
  107.06      107.06      96.968      79.579      59.192      39.978      24.859      15.094      10.292      8.7283    
  8.2468      8.2467      8.7282      10.292      15.094      24.858      39.978      59.194      79.583      96.972    
  92.293      96.967      92.290      79.579      62.172      44.046      28.513      17.505      11.355      8.9411    
  8.2205      7.9792      8.2203      8.9411      11.356      17.504      28.512      44.045      62.174      79.583    
  72.104      79.578      79.578      72.105      59.192      44.046      29.869      18.956      12.233      9.1919    
  8.2119      7.7805      7.7804      8.2119      9.1922      12.234      18.956      29.868      44.044      59.190    
  51.085      59.202      62.186      59.206      51.089      39.978      28.513      18.956      12.573      9.3682    
  8.2119      7.6577      7.4597      7.6576      8.2119      9.3686      12.574      18.958      28.513      39.976    
  32.994      40.022      44.107      44.108      40.024      32.994      24.859      17.505      12.233      9.3682    
  8.2133      7.6016      7.2735      7.2736      7.6014      8.2128      9.3681      12.235      17.507      24.861    
  19.988      24.948      28.649      30.018      28.647      24.946      19.985      15.094      11.355      9.1919    
  8.2119      7.6016      7.2137      7.0837      7.2139      7.6011      8.2106      9.1906      11.356      15.096    
  12.496      15.213      17.709      19.202      19.201      17.706      15.211      12.496      10.292      8.9411    
  8.2119      7.6577      7.2735      7.0837      7.0840      7.2740      7.6576      8.2106      8.9387      10.290    
  9.4055      10.420      11.595      12.546      12.911      12.545      11.595      10.422      9.4085      8.7283    
  8.2205      7.7805      7.4597      7.2736      7.2139      7.2740      7.4608      7.7818      8.2205      8.7263    
  8.5527      8.8545      9.1855      9.5292      9.7567      9.7572      9.5308      9.1879      8.8565      8.5528    
  8.2468      7.9792      7.7804      7.6576      7.6014      7.6011      7.6576      7.7818      7.9817      8.2488    
  8.3003      8.3744      8.4635      8.5517      8.6179      8.6435      8.6191      8.5530      8.4634      8.3724    
  8.2973      8.2467      8.2203      8.2119      8.2119      8.2128      8.2106      8.2106      8.2205      8.2488    
  8.5527      8.3744      8.2231      8.1221      8.0721      8.0559      8.0561      8.0722      8.1208      8.2206    
  8.3725      8.5528      8.7282      8.9411      9.1922      9.3686      9.3681      9.1906      8.9387      8.7263    
  9.4055      8.8545      8.4635      8.1221      7.8777      7.7411      7.6985      7.7406      7.8766      8.1209    
  8.4635      8.8566      9.4085      10.292      11.356      12.234      12.574      12.235      11.356      10.290    
  12.496      10.420      9.1855      8.5517      8.0721      7.7411      7.5790      7.5787      7.7406      8.0722    
  8.5530      9.1878      10.422      12.496      15.094      17.504      18.956      18.958      17.507      15.096    
  19.988      15.213      11.595      9.5292      8.6179      8.0559      7.6985      7.5787      7.6983      8.0563    
  8.6191      9.5304      11.595      15.211      19.985      24.858      28.512      29.868      28.513      24.861    
  32.994      24.948      17.709      12.546      9.7567      8.6435      8.0561      7.7406      7.7406      8.0563    
  8.6440      9.7568      12.545      17.707      24.946      32.994      39.978      44.045      44.044      39.976    
  51.085      40.022      28.649      19.202      12.911      9.7572      8.6191      8.0722      7.8766      8.0722    
  8.6191      9.7568      12.910      19.201      28.649      40.025      51.089      59.194      62.174      59.190    
  72.104      59.202      44.107      30.018      19.201      12.545      9.5308      8.5530      8.1208      8.1209    
  8.5530      9.5304      12.545      19.201      30.019      44.108      59.204      72.105      79.583      79.583    
  92.293      79.578      62.186      44.108      28.647      17.706      11.595      9.1879      8.4634      8.2206    
  8.4635      9.1878      11.595      17.707      28.649      44.108      62.185      79.574      92.290      96.972    
  107.06      96.967      79.578      59.206      40.024      24.946      15.211      10.422      8.8565      8.3724    
  8.3725      8.8566      10.422      15.211      24.946      40.025      59.204      79.574      96.963      107.06    
  83.394      79.349      68.357      53.330      37.760      24.564      15.402      10.461      8.6056      7.9717    
  7.7463      7.9717      8.6056      10.461      15.402      24.564      37.760      53.330      68.357      79.349    
  79.350      79.349      71.829      58.862      43.697      29.556      18.711      12.052      9.0504      8.0863    
  7.6618      7.6617      8.0862      9.0505      12.052      18.710      29.555      43.698      58.864      71.832    
  68.359      71.851      68.357      58.862      45.886      32.486      21.237      13.586      9.6155      8.1813    
  7.6074      7.4000      7.6072      8.1813      9.6156      13.586      21.236      32.486      45.887      58.864    
  53.329      58.920      58.921      53.330      43.697      32.486      22.182      14.529      10.105      8.2744    
  7.5777      7.2095      7.2094      7.5776      8.2745      10.105      14.529      22.181      32.485      43.696    
  37.757      43.802      46.030      43.804      37.760      29.556      21.237      14.529      10.298      8.3428    
  7.5644      7.0924      6.9292      7.0924      7.5644      8.3430      10.299      14.530      21.237      29.554    
  24.563      29.711      32.728      32.729      29.712      24.564      18.711      13.586      10.105      8.3428    
  7.5609      7.0387      6.7697      6.7698      7.0387      7.5606      8.3427      10.105      13.588      18.712    
  15.404      18.908      21.570      22.563      21.569      18.907      15.402      12.052      9.6155      8.2744    
  7.5644      7.0387      6.7189      6.6139      6.7191      7.0385      7.5636      8.2735      9.6156      12.054    
  10.461      12.268      13.976      15.015      15.014      13.974      12.267      10.461      9.0504      8.1813    
  7.5777      7.0924      6.7697      6.6139      6.6141      6.7700      7.0923      7.5767      8.1797      9.0491    
  8.6034      9.2622      10.019      10.642      10.883      10.641      10.019      9.2636      8.6056      8.0863    
  7.6074      7.2095      6.9292      6.7698      6.7191      6.7700      6.9298      7.2103      7.6074      8.0849    
  7.9717      8.2883      8.5727      8.8154      8.9669      8.9672      8.8164      8.5743      8.2897      7.9717    
  7.6618      7.4000      7.2094      7.0924      7.0387      7.0385      7.0923      7.2103      7.4018      7.6632    
  7.7483      7.8601      7.9867      8.1066      8.1939      8.2263      8.1947      8.1075      7.9865      7.8587    
  7.7463      7.6617      7.6072      7.5776      7.5644      7.5606      7.5636      7.5767      7.6074      7.6632    
  7.9716      7.8601      7.7758      7.7314      7.7203      7.7232      7.7234      7.7204      7.7305      7.7741    
  7.8588      7.9717      8.0862      8.1813      8.2745      8.3430      8.3427      8.2735      8.1797      8.0849    
  8.6034      8.2883      7.9867      7.7314      7.5562      7.4621      7.4337      7.4619      7.5555      7.7306    
  7.9867      8.2898      8.6056      9.0505      9.6156      10.105      10.299      10.105      9.6156      9.0491    
  10.461      9.2622      8.5727      8.1066      7.7203      7.4621      7.3384      7.3382      7.4619      7.7204    
  8.1075      8.5743      9.2635      10.461      12.052      13.586      14.529      14.530      13.588      12.054    
  15.404      12.268      10.019      8.8154      8.1939      7.7232      7.4337      7.3382      7.4336      7.7234    
  8.1947      8.8162      10.019      12.267      15.402      18.710      21.236      22.181      21.237      18.712    
  24.563      18.908      13.976      10.642      8.9669      8.2263      7.7234      7.4619      7.4619      7.7234    
  8.2266      8.9670      10.641      13.975      18.907      24.564      29.555      32.486      32.485      29.554    
  37.757      29.711      21.570      15.015      10.883      8.9672      8.1947      7.7204      7.5555      7.7204    
  8.1947      8.9670      10.882      15.014      21.570      29.713      37.760      43.698      45.887      43.696    
  53.329      43.802      32.728      22.563      15.014      10.641      8.8164      8.1075      7.7305      7.7306    
  8.1075      8.8162      10.641      15.014      22.563      32.730      43.803      53.330      58.864      58.864    
  68.359      58.920      46.030      32.729      21.569      13.974      10.019      8.5743      7.9865      7.7741    
  7.9867      8.5743      10.019      13.975      21.570      32.730      46.029      58.918      68.357      71.832    
  79.350      71.851      58.921      43.804      29.712      18.907      12.267      9.2636      8.2897      7.8587    
  7.8588      8.2897      9.2635      12.267      18.907      29.713      43.803      58.918      71.848      79.349    
  54.846      52.170      44.912      35.051      24.999      16.773      11.425      8.8374      7.8855      7.3692    
  7.1871      7.3692      7.8855      8.8374      11.425      16.773      24.999      35.051      44.912      52.170    
  52.171      52.170      47.188      38.632      28.742      19.758      13.210      9.5347      8.0527      7.4122    
  7.0665      7.0664      7.4122      8.0528      9.5348      13.210      19.757      28.743      38.634      47.189    
  44.913      47.230      44.912      38.632      30.133      21.539      14.620      10.254      8.2322      7.4462    
  6.9765      6.8134      6.9763      7.4462      8.2323      10.254      14.620      21.539      30.133      38.634    
  35.051      38.744      38.744      35.051      28.742      21.539      15.157      10.714      8.3969      7.4647    
  6.9160      6.6276      6.6275      6.9159      7.4648      8.3970      10.714      15.156      21.538      28.742    
  24.998      28.930      30.390      28.931      24.999      19.758      14.620      10.714      8.4653      7.4713    
  6.8818      6.5107      6.3867      6.5107      6.8818      7.4713      8.4655      10.714      14.620      19.757    
  16.773      20.010      21.939      21.939      20.010      16.773      13.210      10.254      8.3969      7.4713    
  6.8707      6.4555      6.2507      6.2508      6.4556      6.8706      7.4712      8.3974      10.255      13.210    
  11.427      13.502      15.124      15.738      15.124      13.501      11.425      9.5347      8.2322      7.4647    
  6.8818      6.4555      6.2074      6.1276      6.2075      6.4554      6.8813      7.4643      8.2323      9.5356    
  8.8373      9.8358      10.807      11.410      11.410      10.806      9.8351      8.8374      8.0527      7.4462    
  6.9160      6.5107      6.2507      6.1276      6.1277      6.2508      6.5106      6.9155      7.4454      8.0519    
  7.8842      8.3419      8.7853      9.1361      9.2714      9.1357      8.7853      8.3428      7.8855      7.4122    
  6.9765      6.6276      6.3867      6.2508      6.2075      6.2508      6.3870      6.6280      6.9765      7.4114    
  7.3691      7.6868      7.9774      8.1981      8.3170      8.3171      8.1986      7.9782      7.6876      7.3692    
  7.0665      6.8134      6.6275      6.5107      6.4556      6.4554      6.5106      6.6280      6.8144      7.0673    
  7.1883      7.3337      7.4890      7.6306      7.7311      7.7678      7.7316      7.6310      7.4888      7.3329    
  7.1871      7.0664      6.9763      6.9159      6.8818      6.8706      6.8813      6.9155      6.9765      7.0673    
  7.3691      7.3337      7.3194      7.3298      7.3542      7.3738      7.3740      7.3543      7.3293      7.3184    
  7.3330      7.3692      7.4122      7.4462      7.4648      7.4713      7.4712      7.4643      7.4454      7.4114    
  7.8842      7.6868      7.4890      7.3298      7.2272      7.1763      7.1618      7.1762      7.2270      7.3294    
  7.4890      7.6877      7.8855      8.0528      8.2323      8.3970      8.4655      8.3974      8.2323      8.0519    
  8.8373      8.3419      7.9774      7.6306      7.3542      7.1763      7.0932      7.0931      7.1761      7.3543    
  7.6311      7.9782      8.3427      8.8374      9.5348      10.254      10.714      10.714      10.255      9.5356    
  11.427      9.8358      8.7853      8.1981      7.7311      7.3738      7.1618      7.0931      7.1617      7.3739    
  7.7316      8.1985      8.7852      9.8349      11.425      13.210      14.620      15.156      14.620      13.210    
  16.773      13.502      10.807      9.1361      8.3170      7.7678      7.3740      7.1762      7.1761      7.3739    
  7.7679      8.3171      9.1356      10.806      13.501      16.773      19.757      21.539      21.538      19.757    
  24.998      20.010      15.124      11.410      9.2714      8.3171      7.7316      7.3543      7.2270      7.3543    
  7.7316      8.3171      9.2712      11.410      15.124      20.011      24.999      28.743      30.133      28.742    
  35.051      28.930      21.939      15.738      11.410      9.1357      8.1986      7.6310      7.3293      7.3294    
  7.6311      8.1985      9.1356      11.410      15.738      21.939      28.930      35.051      38.634      38.634    
  44.913      38.744      30.390      21.939      15.124      10.806      8.7853      7.9782      7.4888      7.3184    
  7.4890      7.9782      8.7852      10.806      15.124      21.939      30.390      38.743      44.912      47.189    
  52.171      47.230      38.744      28.931      20.010      13.501      9.8351      8.3428      7.6876      7.3329    
  7.3330      7.6877      8.3427      9.8349      13.501      20.011      28.930      38.743      47.229      52.170    
  32.105      30.568      26.431      20.915      15.498      11.354      8.9378      7.8652      7.2513      6.8580    
  6.7254      6.8580      7.2513      7.8652      8.9378      11.354      15.498      20.915      26.431      30.568    
  30.568      30.568      27.708      22.861      17.416      12.722      9.5945      8.0407      7.3181      6.8213    
  6.5667      6.5666      6.8213      7.3182      8.0409      9.5946      12.722      17.416      22.862      27.708    
  26.431      27.761      26.431      22.861      18.139      13.566      10.151      8.2261      7.3547      6.7901    
  6.4382      6.3211      6.4381      6.7900      7.3548      8.2262      10.150      13.566      18.139      22.862    
  20.915      23.002      23.002      20.915      17.416      13.566      10.369      8.3536      7.3676      6.7639    
  6.3441      6.1360      6.1360      6.3440      6.7639      7.3676      8.3535      10.369      13.566      17.415    
  15.498      17.650      18.461      17.651      15.498      12.722      10.151      8.3536      7.3712      6.7481    
  6.2865      6.0149      5.9270      6.0149      6.2865      6.7481      7.3712      8.3537      10.151      12.721    
  11.354      13.031      14.058      14.058      13.031      11.354      9.5945      8.2261      7.3676      6.7481    
  6.2671      5.9556      5.8074      5.8075      5.9557      6.2671      6.7481      7.3678      8.2266      9.5949    
  8.9383      9.9467      10.761      11.074      10.761      9.9464      8.9378      8.0407      7.3547      6.7639    
  6.2865      5.9556      5.7689      5.7097      5.7690      5.9556      6.2864      6.7638      7.3548      8.0411    
  7.8651      8.4043      8.8934      9.1947      9.1946      8.8930      8.4040      7.8652      7.3181      6.7901    
  6.3441      6.0149      5.8074      5.7097      5.7097      5.8074      6.0148      6.3439      6.7897      7.3178    
  7.2507      7.6743      8.0310      8.2688      8.3535      8.2686      8.0310      7.6747      7.2513      6.8213    
  6.4382      6.1360      5.9270      5.8075      5.7690      5.8074      5.9270      6.1362      6.4382      6.8210    
  6.8579      7.1667      7.4545      7.6779      7.8002      7.8002      7.6780      7.4547      7.1670      6.8580    
  6.5667      6.3211      6.1360      6.0149      5.9557      5.9556      6.0148      6.1361      6.3215      6.5670    
  6.7259      6.9057      7.0897      7.2528      7.3666      7.4076      7.3667      7.2529      7.0896      6.9053    
  6.7254      6.5666      6.4381      6.3440      6.2865      6.2671      6.2864      6.3439      6.4382      6.5670    
  6.8579      6.9057      6.9677      7.0388      7.1040      7.1437      7.1437      7.1041      7.0387      6.9673    
  6.9054      6.8580      6.8213      6.7900      6.7639      6.7481      6.7481      6.7638      6.7897      6.8210    
  7.2507      7.1667      7.0897      7.0388      7.0181      7.0164      7.0183      7.0165      7.0181      7.0387    
  7.0897      7.1671      7.2513      7.3182      7.3548      7.3676      7.3712      7.3678      7.3548      7.3178    
  7.8651      7.6743      7.4545      7.2528      7.1040      7.0164      6.9789      6.9789      7.0164      7.1041    
  7.2530      7.4548      7.6746      7.8652      8.0409      8.2262      8.3535      8.3537      8.2266      8.0411    
  8.9383      8.4043      8.0310      7.6779      7.3666      7.1437      7.0183      6.9789      7.0181      7.1436    
  7.3667      7.6781      8.0309      8.4039      8.9378      9.5946      10.150      10.369      10.151      9.5949    
  11.354      9.9467      8.8934      8.2688      7.8002      7.4076      7.1437      7.0165      7.0164      7.1436    
  7.4076      7.8002      8.2686      8.8929      9.9463      11.354      12.722      13.566      13.566      12.721    
  15.498      13.031      10.761      9.1947      8.3535      7.8002      7.3667      7.1041      7.0181      7.1041    
  7.3667      7.8002      8.3535      9.1947      10.761      13.031      15.498      17.416      18.139      17.415    
  20.915      17.650      14.058      11.074      9.1946      8.2686      7.6780      7.2529      7.0387      7.0387    
  7.2530      7.6781      8.2686      9.1947      11.075      14.058      17.650      20.915      22.862      22.862    
  26.431      23.002      18.461      14.058      10.761      8.8930      8.0310      7.4547      7.0896      6.9673    
  7.0897      7.4548      8.0309      8.8929      10.761      14.058      18.461      23.002      26.431      27.708    
  30.568      27.761      23.002      17.651      13.031      9.9464      8.4040      7.6747      7.1670      6.9053    
  6.9054      7.1671      7.6746      8.4039      9.9463      13.031      17.650      23.002      27.761      30.568    
  17.408      16.696      14.811      12.395      10.184      8.6580      7.8116      7.2220      6.7736      6.5061    
  6.4190      6.5061      6.7736      7.2220      7.8115      8.6580      10.184      12.395      14.811      16.696    
  16.696      16.696      15.372      13.191      10.869      9.0344      7.9238      7.2626      6.7410      6.3894    
  6.2183      6.2183      6.3894      6.7410      7.2627      7.9239      9.0345      10.869      13.191      15.372    
  14.811      15.426      14.811      13.191      11.137      9.2841      8.0216      7.2796      6.7112      6.2945    