    2    2    1    1
  0.8527270E+01  0.2236800E-09  0.2236800E-09  0.3936000E-09  0.5000000E-15
  1.000000000000000E-004
  CAR 
 unknown system                          
     16     96     40
 
  0.0000000E+00  0.0000000E+00  0.0000000E+00  0.7513148E-03
    1       -0.816907   1.000000
    2        3.044149   1.000000
    3        6.288596   1.000000
    4        7.068895   1.000000
    5        7.068911   1.000000
    6        7.478435   1.000000
    7        7.478452   1.000000
    8        8.309449   1.000000
    9        8.698660   1.006955
   10        8.698670   1.006956
   11       10.082235  -0.000000
   12       10.082246  -0.000000
   13       18.304991   0.000000
   14       34.081006   0.000000
   15       34.541433   0.000000
   16       37.559311   0.000000
   17       41.480787   0.000000
   18       41.480811   0.000000
   19       42.157003   0.000000
   20       42.157028   0.000000
   21       43.472315   0.000000
   22       44.241826   0.000000
   23       44.241836   0.000000
   24       45.348734   0.000000
   25       48.942438   0.000000
   26       48.942446   0.000000
   27       50.325083   0.000000
   28       54.099765   0.000000
   29       54.099826   0.000000
   30       55.567201   0.000000
   31       55.567252   0.000000
   32       59.007218   0.000000
   33       65.268869   0.000000
   34       66.228861   0.000000
   35       66.228886   0.000000
   36       66.625356   0.000000
   37       67.518546   0.000000
   38       70.495340   0.000000
   39       70.495378   0.000000
   40       73.692805   0.000000
 
  0.9090909E-01  0.9347027E-17  0.0000000E+00  0.4507889E-02
    1       -0.435597   1.000000
    2        3.335135   1.000000
    3        6.290180   1.000000
    4        6.994193   1.000000
    5        7.250038   1.000000
    6        7.312335   1.000000
    7        7.330149   1.000000
    8        7.704643   1.000000
    9        8.504823   1.000088
   10        8.549006   1.000287
   11       10.127723  -0.000000
   12       11.420152  -0.000000
   13       18.303200   0.000000
   14       33.196381   0.000000
   15       34.923551   0.000000
   16       36.284557   0.000000
   17       38.284196   0.000000
   18       39.850938   0.000000
   19       40.193918   0.000000
   20       43.044827   0.000000
   21       43.793225   0.000000
   22       45.320073   0.000000
   23       45.548882   0.000000
   24       45.978042   0.000000
   25       50.051436   0.000000
   26       50.159058   0.000000
   27       51.225314   0.000000
   28       51.448462   0.000000
   29       54.516199   0.000000
   30       57.347578   0.000000
   31       57.883815   0.000000
   32       60.205921   0.000000
   33       64.627372   0.000000
   34       65.002131   0.000000
   35       65.415428   0.000000
   36       66.492448   0.000000
   37       66.832361   0.000000
   38       70.667994   0.000000
   39       72.661770   0.000000
   40       73.691986   0.000000
 
  0.1818182E+00 -0.9128136E-17  0.0000000E+00  0.4507889E-02
    1        0.626230   1.000000
    2        3.997185   1.000000
    3        5.890533   1.000000
    4        6.049380   1.000000
    5        6.772287   1.000000
    6        7.510118   1.000000
    7        8.003862   1.000000
    8        8.040610   1.000000
    9        8.199988   1.000000
   10        8.341571   1.000000
   11       10.203823  -0.000000
   12       13.567282  -0.000000
   13       18.369064   0.000000
   14       29.778964   0.000000
   15       34.966462   0.000000
   16       35.128696   0.000000
   17       35.146339   0.000000
   18       35.982259   0.000000
   19       41.134563   0.000000
   20       42.303906   0.000000
   21       42.986810   0.000000
   22       43.064047   0.000000
   23       46.668709   0.000000
   24       48.089796   0.000000
   25       50.785834   0.000000
   26       51.358741   0.000000
   27       52.769527   0.000000
   28       55.222121   0.000000
   29       58.358337   0.000000
   30       59.592582   0.000000
   31       60.569832   0.000000
   32       62.160680   0.000000
   33       63.318627   0.000000
   34       63.833893   0.000000
   35       64.340225   0.000000
   36       64.750096   0.000000
   37       68.315717   0.000000
   38       71.348641   0.000000
   39       73.553261   0.000000
   40       73.743015   0.000000
 
  0.2727273E+00  0.2188911E-18  0.0000000E+00  0.4507889E-02
    1        2.060577   1.000000
    2        4.212624   1.000000
    3        4.805860   1.000000
    4        6.041009   1.000000
    5        6.585494   1.000000
    6        7.466601   1.000000
    7        7.806440   1.000000
    8        8.494928   1.000066
    9        8.985826   0.922926
   10        9.234637   0.063860
   11       10.246036  -0.000000
   12       15.931818   0.000000
   13       18.522236   0.000000
   14       25.655492   0.000000
   15       31.383547   0.000000
   16       32.389435   0.000000
   17       33.496867   0.000000
   18       35.854975   0.000000
   19       39.759274   0.000000
   20       42.506307   0.000000
   21       42.749150   0.000000
   22       43.193801   0.000000
   23       44.183298   0.000000
   24       47.941106   0.000000
   25       54.254104   0.000000
   26       55.788561   0.000000
   27       56.509185   0.000000
   28       58.162382   0.000000
   29       59.037697   0.000000
   30       60.118305   0.000000
   31       61.920222   0.000000
   32       62.858477   0.000000
   33       63.662533   0.000000
   34       63.681293   0.000000
   35       64.685131   0.000000
   36       67.904715   0.000000
   37       68.470072   0.000000
   38       71.981033   0.000000
   39       72.954839   0.000000
   40       73.643537   0.000000
 
  0.3636364E+00 -0.7598130E-17  0.0000000E+00  0.4507889E-02
    1        3.146414   1.000000
    2        3.853948   1.000000
    3        4.064712   1.000000
    4        6.336889   1.000000
    5        6.967277   1.000000
    6        7.117525   1.000000
    7        7.486239   1.000000
    8        9.983093  -0.000000
    9       10.079672  -0.000000
   10       10.141152  -0.000000
   11       10.255762  -0.000000
   12       18.228003   0.000000
   13       18.411465   0.000000
   14       22.692654   0.000000
   15       27.970971   0.000000
   16       30.278856   0.000000
   17       30.784284   0.000000
   18       34.954463   0.000000
   19       38.560558   0.000000
   20       41.927322   0.000000
   21       42.307446   0.000000
   22       44.293337   0.000000
   23       44.874576   0.000000
   24       48.021824   0.000000
   25       55.886492   0.000000
   26       57.306953   0.000000
   27       57.739548   0.000000
   28       61.042827   0.000000
   29       61.148250   0.000000
   30       61.369487   0.000000
   31       62.656575   0.000000
   32       64.019749   0.000000
   33       64.661651   0.000000
   34       65.459091   0.000000
   35       66.046749   0.000000
   36       67.832382   0.000000
   37       72.010259   0.000000
   38       72.952385   0.000000
   39       72.972708   0.000000
   40       73.355691   0.000000
 
  0.4545455E+00 -0.2607329E-16  0.0000000E+00  0.4507889E-02
    1        3.321238   1.000000
    2        3.690250   1.000000
    3        3.698448   1.000000
    4        6.681068   1.000000
    5        7.044748   1.000000
    6        7.304768   1.000000
    7        7.420369   1.000000
    8       10.251772  -0.000000
    9       10.604970  -0.000000
   10       10.754093  -0.000000
   11       12.126105  -0.000000
   12       16.133060   0.000000
   13       20.711355   0.000000
   14       22.663496   0.000000
   15       25.243198   0.000000
   16       28.049383   0.000000
   17       29.082281   0.000000
   18       34.265285   0.000000
   19       38.162204   0.000000
   20       40.627204   0.000000
   21       42.147637   0.000000
   22       45.348244   0.000000
   23       47.188635   0.000000
   24       47.837923   0.000000
   25       52.565104   0.000000
   26       58.502665   0.000000
   27       58.942009   0.000000
   28       62.150772   0.000000
   29       62.221643   0.000000
   30       63.494058   0.000000
   31       64.288997   0.000000
   32       64.592668   0.000000
   33       65.829005   0.000000
   34       68.012165   0.000000
   35       68.301282   0.000000
   36       70.670579   0.000000
   37       71.305454   0.000000
   38       71.420085   0.000000
   39       74.251915   0.000000
   40       74.500407   0.000000
 
  0.9090909E-01  0.9090909E-01  0.0000000E+00  0.4507889E-02
    1        0.290618   1.000000
    2        3.840366   1.000000
    3        6.085652   1.000000
    4        6.253529   1.000000
    5        7.052866   1.000000
    6        7.094937   1.000000
    7        7.820031   1.000000
    8        7.986106   1.000000
    9        8.203802   1.000000
   10        8.509542   1.000100
   11       10.145124  -0.000000
   12       12.975517  -0.000000
   13       18.348472   0.000000
   14       31.387434   0.000000
   15       33.227628   0.000000
   16       35.477411   0.000000
   17       36.797245   0.000000
   18       38.939798   0.000000
   19       39.117151   0.000000
   20       41.251801   0.000000
   21       42.627196   0.000000
   22       46.931959   0.000000
   23       47.622377   0.000000
   24       48.651895   0.000000
   25       49.007145   0.000000
   26       49.739560   0.000000
   27       49.934857   0.000000
   28       55.614952   0.000000
   29       58.077787   0.000000
   30       59.015801   0.000000
   31       59.227400   0.000000
   32       61.764741   0.000000
   33       62.621032   0.000000
   34       64.542391   0.000000
   35       64.996119   0.000000
   36       66.051931   0.000000
   37       66.529001   0.000000
   38       71.770553   0.000000
   39       73.387927   0.000000
   40       73.873461   0.000000
 
  0.1818182E+00  0.9090909E-01  0.0000000E+00  0.9015778E-02
    1        1.580483   1.000000
    2        4.438649   1.000000
    3        5.205328   1.000000
    4        5.715153   1.000000
    5        6.689363   1.000000
    6        7.424042   1.000000
    7        7.663854   1.000000
    8        8.180582   1.000000
    9        8.725097   1.010570
   10        9.133926   0.387750
   11       10.147207  -0.000000
   12       15.116350   0.000000
   13       18.514822   0.000000
   14       27.751541   0.000000
   15       30.627663   0.000000
   16       33.207365   0.000000
   17       35.483845   0.000000
   18       36.647045   0.000000
   19       40.066017   0.000000
   20       40.328195   0.000000
   21       41.715984   0.000000
   22       46.424226   0.000000
   23       46.862692   0.000000
   24       48.284988   0.000000
   25       51.231089   0.000000
   26       51.884216   0.000000
   27       54.104098   0.000000
   28       58.789726   0.000000
   29       60.329775   0.000000
   30       60.410739   0.000000
   31       61.320521   0.000000
   32       62.616761   0.000000
   33       62.950551   0.000000
   34       64.035799   0.000000
   35       65.379148   0.000000
   36       65.706171   0.000000
   37       67.422612   0.000000
   38       72.384015   0.000000
   39       72.727099   0.000000
   40       73.899677   0.000000
 
  0.2727273E+00  0.9090909E-01  0.0000000E+00  0.9015778E-02
    1        2.971225   1.000000
    2        4.259385   1.000000
    3        4.393170   1.000000
    4        5.884174   1.000000
    5        6.809090   1.000000
    6        6.974773   1.000000
    7        7.705016   1.000000
    8        8.661029   1.003542
    9        9.721199  -0.000063
   10       10.136950  -0.000000
   11       10.348044  -0.000000
   12       17.506163   0.000000
   13       18.760881   0.000000
   14       23.928187   0.000000
   15       28.733729   0.000000
   16       29.740111   0.000000
   17       33.353650   0.000000
   18       34.345884   0.000000
   19       39.561876   0.000000
   20       40.844221   0.000000
   21       41.707003   0.000000
   22       46.064989   0.000000
   23       46.075608   0.000000
   24       49.166238   0.000000
   25       53.426810   0.000000
   26       55.861418   0.000000
   27       57.479064   0.000000
   28       57.883078   0.000000
   29       59.585612   0.000000
   30       61.944416   0.000000
   31       62.083070   0.000000
   32       64.229700   0.000000
   33       64.962649   0.000000
   34       65.589157   0.000000
   35       65.922951   0.000000
   36       67.099729   0.000000
   37       71.408243   0.000000
   38       71.746493   0.000000
   39       72.142912   0.000000
   40       74.245352   0.000000
 
  0.3636364E+00  0.9090909E-01  0.0000000E+00  0.9015778E-02
    1        3.581906   1.000000
    2        3.892348   1.000000
    3        3.942621   1.000000
    4        6.485342   1.000000
    5        6.712455   1.000000
    6        7.279163   1.000000
    7        7.290730   1.000000
    8        9.829222  -0.000002
    9       10.117120  -0.000000
   10       10.414541  -0.000000
   11       11.854019  -0.000000
   12       17.696329   0.000000
   13       19.973738   0.000000
   14       22.454319   0.000000
   15       26.656954   0.000000
   16       27.226440   0.000000
   17       30.011065   0.000000
   18       33.338338   0.000000
   19       38.587445   0.000000
   20       40.319059   0.000000
   21       42.958300   0.000000
   22       46.313094   0.000000
   23       47.168931   0.000000
   24       48.662837   0.000000
   25       54.479807   0.000000
   26       56.112181   0.000000
   27       58.145091   0.000000
   28       59.676959   0.000000
   29       61.674828   0.000000
   30       62.548236   0.000000
   31       63.321531   0.000000
   32       64.334832   0.000000
   33       64.805180   0.000000
   34       67.859314   0.000000
   35       69.300477   0.000000
   36       69.304293   0.000000
   37       70.167447   0.000000
   38       73.135662   0.000000
   39       73.714483   0.000000
   40       74.731979   0.000000
 
  0.4545455E+00  0.9090909E-01  0.0000000E+00  0.4507889E-02
    1        3.535239   1.000000
    2        3.724225   1.000000
    3        3.925537   1.000000
    4        6.638496   1.000000
    5        6.972385   1.000000
    6        7.119988   1.000000
    7        7.413560   1.000000
    8       10.107884  -0.000000
    9       10.492946  -0.000000
   10       10.523907  -0.000000
   11       13.260483  -0.000000
   12       15.857620   0.000000
   13       21.632490   0.000000
   14       23.108524   0.000000
   15       24.809357   0.000000
   16       26.368827   0.000000
   17       28.430382   0.000000
   18       32.972262   0.000000
   19       38.161282   0.000000
   20       40.153481   0.000000
   21       43.255786   0.000000
   22       47.075790   0.000000
   23       47.598794   0.000000
   24       48.832613   0.000000
   25       52.373454   0.000000
   26       57.595098   0.000000
   27       58.555165   0.000000
   28       60.298855   0.000000
   29       62.479792   0.000000
   30       62.927058   0.000000
   31       64.537239   0.000000
   32       64.637834   0.000000
   33       65.516795   0.000000
   34       67.113899   0.000000
   35       70.150962   0.000000
   36       71.826381   0.000000
   37       71.917602   0.000000
   38       72.080270   0.000000
   39       72.925009   0.000000
   40       76.103589   0.000000
 
  0.1818182E+00  0.1818182E+00  0.0000000E+00  0.4507889E-02
    1        2.949051   1.000000
    2        4.586402   1.000000
    3        4.945201   1.000000
    4        5.142952   1.000000
    5        6.793541   1.000000
    6        6.851787   1.000000
    7        7.890614   1.000000
    8        7.969078   1.000000
    9        9.691418  -0.000144
   10       10.004847  -0.000000
   11       10.433526  -0.000000
   12       17.221895   0.000000
   13       18.970177   0.000000
   14       25.553148   0.000000
   15       26.655725   0.000000
   16       31.122076   0.000000
   17       33.174636   0.000000
   18       35.872220   0.000000
   19       36.662596   0.000000
   20       41.158204   0.000000
   21       43.137210   0.000000
   22       47.855992   0.000000
   23       48.271068   0.000000
   24       49.939253   0.000000
   25       50.925899   0.000000
   26       53.106725   0.000000
   27       54.480993   0.000000
   28       59.197168   0.000000
   29       60.619153   0.000000
   30       61.058005   0.000000
   31       61.489666   0.000000
   32       64.357951   0.000000
   33       64.436713   0.000000
   34       65.795134   0.000000
   35       66.994676   0.000000
   36       68.537544   0.000000
   37       68.722888   0.000000
   38       71.505236   0.000000
   39       71.947781   0.000000
   40       75.121195   0.000000
 
  0.2727273E+00  0.1818182E+00  0.0000000E+00  0.9015778E-02
    1        4.132969   1.000000
    2        4.163050   1.000000
    3        4.536702   1.000000
    4        5.510504   1.000000
    5        6.536263   1.000000
    6        7.151781   1.000000
    7        7.379862   1.000000
    8        8.700610   1.007185
    9        9.884526  -0.000000
   10       10.335392  -0.000000
   11       12.034740  -0.000000
   12       19.400809   0.000000
   13       19.637051   0.000000
   14       22.624746   0.000000
   15       24.813260   0.000000
   16       28.563457   0.000000
   17       31.342171   0.000000
   18       32.260404   0.000000
   19       35.323962   0.000000
   20       43.414226   0.000000
   21       43.690540   0.000000
   22       47.707268   0.000000
   23       49.595678   0.000000
   24       51.293614   0.000000
   25       52.305290   0.000000
   26       54.158242   0.000000
   27       55.732455   0.000000
   28       57.223914   0.000000
   29       60.177395   0.000000
   30       61.823881   0.000000
   31       63.490597   0.000000
   32       64.181755   0.000000
   33       64.954122   0.000000
   34       67.442332   0.000000
   35       68.992693   0.000000
   36       69.397606   0.000000
   37       71.401143   0.000000
   38       72.433742   0.000000
   39       74.368206   0.000000
   40       76.016360   0.000000
 
  0.3636364E+00  0.1818182E+00  0.0000000E+00  0.9015778E-02
    1        3.955812   1.000000
    2        4.183263   1.000000
    3        4.486196   1.000000
    4        6.201047   1.000000
    5        6.535565   1.000000
    6        6.880538   1.000000
    7        7.486323   1.000000
    8        9.605369  -0.001204
    9        9.816379  -0.000003
   10       10.352519  -0.000000
   11       13.898493  -0.000000
   12       17.431522   0.000000
   13       22.075208   0.000000
   14       22.893131   0.000000
   15       23.933785   0.000000
   16       25.877555   0.000000
   17       29.179199   0.000000
   18       30.579324   0.000000
   19       34.642116   0.000000
   20       43.702512   0.000000
   21       45.443024   0.000000
   22       47.887008   0.000000
   23       49.321787   0.000000
   24       50.516798   0.000000
   25       54.660611   0.000000
   26       54.842193   0.000000
   27       56.569094   0.000000
   28       57.386904   0.000000
   29       61.359462   0.000000
   30       62.025112   0.000000
   31       62.896671   0.000000
   32       64.811800   0.000000
   33       64.867199   0.000000
   34       66.012667   0.000000
   35       69.749648   0.000000
   36       71.364421   0.000000
   37       72.688841   0.000000
   38       73.635241   0.000000
   39       74.525847   0.000000
   40       75.193391   0.000000
 
  0.2727273E+00  0.2727273E+00  0.0000000E+00  0.4507889E-02
    1        4.118222   1.000000
    2        4.767576   1.000000
    3        5.140905   1.000000
    4        5.242846   1.000000
    5        6.342885   1.000000
    6        6.882795   1.000000
    7        7.536362   1.000000
    8        9.035493   0.782651
    9        9.665289  -0.000287
   10       10.310432  -0.000000
   11       14.075599  -0.000000
   12       19.723308   0.000000
   13       20.305462   0.000000
   14       22.128482   0.000000
   15       23.869849   0.000000
   16       27.737826   0.000000
   17       28.344355   0.000000
   18       30.984909   0.000000
   19       31.915090   0.000000
   20       45.132073   0.000000
   21       46.161440   0.000000
   22       50.488600   0.000000
   23       51.566641   0.000000
   24       51.748465   0.000000
   25       52.235632   0.000000
   26       52.552250   0.000000
   27       55.707117   0.000000
   28       58.146882   0.000000
   29       58.291239   0.000000
   30       61.462782   0.000000
   31       62.406905   0.000000
   32       64.989520   0.000000
   33       65.253014   0.000000
   34       65.872821   0.000000
   35       70.122346   0.000000
   36       71.290949   0.000000
   37       71.429450   0.000000
   38       72.919076   0.000000
   39       74.857258   0.000000
   40       76.267132   0.000000
 
  0.3636364E+00  0.2727273E+00  0.0000000E+00  0.4507889E-02
    1        4.133614   1.000000
    2        4.874532   1.000000
    3        5.031428   1.000000
    4        5.632453   1.000000
    5        6.434387   1.000000
    6        6.504177   1.000000
    7        7.718393   1.000000
    8        9.515668  -0.006948
    9        9.582062  -0.001990
   10        9.906919  -0.000000
   11       15.975836   0.000000
   12       17.647430   0.000000
   13       19.914511   0.000000
   14       24.294502   0.000000
   15       24.853908   0.000000
   16       25.732120   0.000000
   17       27.748729   0.000000
   18       29.244335   0.000000
   19       31.273054   0.000000
   20       45.453688   0.000000
   21       48.611059   0.000000
   22       50.047584   0.000000
   23       50.622761   0.000000
   24       51.469848   0.000000
   25       52.878345   0.000000
   26       54.004644   0.000000
   27       57.362108   0.000000
   28       57.540842   0.000000
   29       57.951724   0.000000
   30       61.290473   0.000000
   31       62.039803   0.000000
   32       62.699227   0.000000
   33       65.188492   0.000000
   34       65.673251   0.000000
   35       69.462842   0.000000
   36       71.428602   0.000000
   37       73.416909   0.000000
   38       74.193716   0.000000
   39       74.336408   0.000000
   40       75.067828   0.000000
 
  0.0000000E+00  0.0000000E+00  0.9090909E-01  0.1502630E-02
    1       -0.723911   1.000000
    2        3.029240   1.000000
    3        6.257644   1.000000
    4        7.057715   1.000000
    5        7.057731   1.000000
    6        7.456215   1.000000
    7        7.456232   1.000000
    8        8.064692   1.000000
    9        8.749022   1.014797
   10        8.749032   1.014799
   11       10.070274  -0.000000
   12       10.070285  -0.000000
   13       18.691297   0.000000
   14       33.502913   0.000000
   15       34.684779   0.000000
   16       37.357939   0.000000
   17       41.498752   0.000000
   18       41.498776   0.000000
   19       42.149504   0.000000
   20       42.149529   0.000000
   21       43.658710   0.000000
   22       44.247617   0.000000
   23       44.247628   0.000000
   24       45.660939   0.000000
   25       48.680413   0.000000
   26       48.680424   0.000000
   27       50.609173   0.000000
   28       54.337725   0.000000
   29       54.337784   0.000000
   30       55.907466   0.000000
   31       55.907515   0.000000
   32       58.659711   0.000000
   33       65.014189   0.000000
   34       65.433709   0.000000
   35       66.113846   0.000000
   36       66.113871   0.000000
   37       69.127230   0.000000
   38       69.734008   0.000000
   39       69.734047   0.000000
   40       72.044642   0.000000
 
  0.9090909E-01  0.9347027E-17  0.9090909E-01  0.9015778E-02
    1       -0.345297   1.000000
    2        3.325126   1.000000
    3        6.278077   1.000000
    4        6.951962   1.000000
    5        7.027379   1.000000
    6        7.296848   1.000000
    7        7.409798   1.000000
    8        7.679545   1.000000
    9        8.562875   1.000407
   10        8.608780   1.001201
   11       10.111821  -0.000000
   12       11.252845  -0.000000
   13       18.730476   0.000000
   14       33.077906   0.000000
   15       34.556476   0.000000
   16       36.228783   0.000000
   17       38.350325   0.000000
   18       39.275482   0.000000
   19       40.803123   0.000000
   20       43.120171   0.000000
   21       43.562415   0.000000
   22       45.402031   0.000000
   23       45.643777   0.000000
   24       46.266724   0.000000
   25       49.749720   0.000000
   26       50.070178   0.000000
   27       51.685350   0.000000
   28       51.882142   0.000000
   29       54.442037   0.000000
   30       57.558967   0.000000
   31       58.123793   0.000000
   32       59.955044   0.000000
   33       63.420821   0.000000
   34       65.211616   0.000000
   35       65.236594   0.000000
   36       66.329776   0.000000
   37       67.968219   0.000000
   38       70.017143   0.000000
   39       71.495966   0.000000
   40       72.012417   0.000000
 
  0.1818182E+00 -0.9128136E-17  0.9090909E-01  0.9015778E-02
    1        0.705197   1.000000
    2        4.002406   1.000000
    3        5.789124   1.000000
    4        6.073689   1.000000
    5        6.729354   1.000000
    6        7.414274   1.000000
    7        7.932921   1.000000
    8        8.190007   1.000000
    9        8.240779   1.000000
   10        8.395730   1.000003
   11       10.180152  -0.000000
   12       13.198547  -0.000000
   13       18.921502   0.000000
   14       29.834961   0.000000
   15       34.254862   0.000000
   16       35.227865   0.000000
   17       35.534728   0.000000
   18       35.718900   0.000000
   19       40.815051   0.000000
   20       42.151755   0.000000
   21       42.680146   0.000000
   22       43.819974   0.000000
   23       46.935060   0.000000
   24       48.629366   0.000000
   25       51.048296   0.000000
   26       51.330959   0.000000
   27       52.613222   0.000000
   28       55.327302   0.000000
   29       57.821140   0.000000
   30       60.005184   0.000000
   31       60.788585   0.000000
   32       61.547170   0.000000
   33       62.615211   0.000000
   34       63.634342   0.000000
   35       64.634235   0.000000
   36       65.723189   0.000000
   37       68.292719   0.000000
   38       70.856882   0.000000
   39       71.890048   0.000000
   40       73.189054   0.000000
 
  0.2727273E+00  0.2188911E-18  0.9090909E-01  0.9015778E-02
    1        2.105312   1.000000
    2        4.225605   1.000000
    3        4.780202   1.000000
    4        6.036100   1.000000
    5        6.534608   1.000000
    6        7.510759   1.000000
    7        7.834584   1.000000
    8        8.536899   1.000209
    9        8.999874   0.889380
   10        9.215324   0.108244
   11       10.218076  -0.000000
   12       15.212328   0.000000
   13       19.371505   0.000000
   14       25.726380   0.000000
   15       31.020622   0.000000
   16       32.516654   0.000000
   17       33.715347   0.000000
   18       35.751440   0.000000
   19       39.494614   0.000000
   20       41.671122   0.000000
   21       41.867153   0.000000
   22       44.222123   0.000000
   23       45.055669   0.000000
   24       48.704441   0.000000
   25       54.388617   0.000000
   26       55.564940   0.000000
   27       56.149651   0.000000
   28       56.483512   0.000000
   29       60.212940   0.000000
   30       60.699777   0.000000
   31       62.147732   0.000000
   32       62.878331   0.000000
   33       63.103248   0.000000
   34       63.781054   0.000000
   35       65.181619   0.000000
   36       67.501960   0.000000
   37       68.562999   0.000000
   38       71.571703   0.000000
   39       71.825325   0.000000
   40       74.347734   0.000000
 
  0.3636364E+00 -0.7598130E-17  0.9090909E-01  0.9015778E-02
    1        3.102015   1.000000
    2        3.794223   1.000000
    3        4.225067   1.000000
    4        6.016243   1.000000
    5        7.109305   1.000000
    6        7.371749   1.000000
    7        7.528104   1.000000
    8        9.983118  -0.000000
    9       10.031158  -0.000000
   10       10.046819  -0.000000
   11       10.287040  -0.000000
   12       16.782566   0.000000
   13       19.860238   0.000000
   14       22.804255   0.000000
   15       27.650817   0.000000
   16       30.419059   0.000000
   17       31.111937   0.000000
   18       34.963473   0.000000
   19       38.498402   0.000000
   20       40.502604   0.000000
   21       42.782928   0.000000
   22       43.681062   0.000000
   23       45.722930   0.000000
   24       48.921085   0.000000
   25       54.579899   0.000000
   26       57.566192   0.000000
   27       58.469175   0.000000
   28       59.746294   0.000000
   29       60.763390   0.000000
   30       62.329485   0.000000
   31       62.929860   0.000000
   32       64.162752   0.000000
   33       64.870209   0.000000
   34       65.558671   0.000000
   35       66.030321   0.000000
   36       67.768497   0.000000
   37       71.127491   0.000000
   38       72.322355   0.000000
   39       72.843816   0.000000
   40       74.008112   0.000000
 
  0.4545455E+00 -0.2607329E-16  0.9090909E-01  0.9015778E-02
    1        3.280807   1.000000
    2        3.413133   1.000000
    3        4.086730   1.000000
    4        6.099289   1.000000
    5        7.349187   1.000000
    6        7.353488   1.000000
    7        7.800670   1.000000
    8       10.171040  -0.000000
    9       10.611243  -0.000000
   10       10.754948  -0.000000
   11       12.011461  -0.000000
   12       15.901730   0.000000
   13       20.651858   0.000000
   14       22.646464   0.000000
   15       25.406449   0.000000
   16       28.376211   0.000000
   17       29.233053   0.000000
   18       34.304369   0.000000
   19       38.123852   0.000000
   20       39.582633   0.000000
   21       43.192860   0.000000