 vasp.6.2.0 18Jan21 (build Mar 17 2021 09:06:54) complex                        
  
 executed on             LinuxIFC date 2021.09.09  11:58:20
 serial version


--------------------------------------------------------------------------------------------------------


 INCAR:
   ENCUT = 280.000000
   SIGMA = 0.200000
   EDIFF = 1.00e-06
   GGA = PE
   PREC = normal
   IBRION = 1
   ICHARG = 1
   ISIF = 2
   ISMEAR = 1
   KPAR = 1
   NBANDS = 40
   NSW = 0
   NCORE = 1
   LCHARG = .TRUE.

 POTCAR:    PAW_PBE Fe 06Sep2000                  
 POTCAR:    PAW_PBE Fe 06Sep2000                  
   SHA256 =  cd5a22d9368cc8b5cc476bea79732366149640da08ac9009b0e1b7fc627eea28 Fe/POTCAR             
   COPYR  = (c) Copyright 06Sep2000 Georg Kresse                                                    
   COPYR  = This file is part of the software VASP. Any use, copying, and all other rights are regul
   COPYR  = If you do not have a valid VASP license, you may not use, copy or distribute this file. 
   VRHFIN =Fe:  d7 s1                                                                               
   LEXCH  = PE                                                                                      
   EATOM  =   594.3153 eV,   43.6809 Ry                                                             
                                                                                                    
   TITEL  = PAW_PBE Fe 06Sep2000                                                                    
   LULTRA =        F    use ultrasoft PP ?                                                          
   IUNSCR =        1    unscreen: 0-lin 1-nonlin 2-no                                               
   RPACOR =    2.000    partial core radius                                                         
   POMASS =   55.847; ZVAL   =    8.000    mass and valenz                                          
   RCORE  =    2.300    outmost cutoff radius                                                       
   RWIGS  =    2.460; RWIGS  =    1.302    wigner-seitz radius (au A)                               
   ENMAX  =  267.882; ENMIN  =  200.911 eV                                                          
   RCLOC  =    1.701    cutoff for local pot                                                        
   LCOR   =        T    correct aug charges                                                         
   LPAW   =        T    paw PP                                                                      
   EAUG   =  511.368                                                                                
   DEXC   =    0.000                                                                                
   RMAX   =    2.356    core radius for proj-oper                                                   
   RAUG   =    1.300    factor for augmentation sphere                                              
   RDEP   =    2.442    radius for radial grids                                                     
   RDEPT  =    1.890    core radius for aug-charge                                                  
                                                                                                    
   Atomic configuration                                                                             
    9 entries                                                                                       
     n  l   j            E        occ.                                                              
     1  0  0.50     -6993.8440   2.0000                                                             
     2  0  0.50      -814.6047   2.0000                                                             
     2  1  1.50      -693.3689   6.0000                                                             
     3  0  0.50       -89.4732   2.0000                                                             
     3  1  1.50       -55.6373   6.0000                                                             
     3  2  2.50        -3.8151   7.0000                                                             
     4  0  0.50        -4.2551   1.0000                                                             
     4  1  1.50        -3.4015   0.0000                                                             
     4  3  2.50        -1.3606   0.0000                                                             
   Description                                                                                      
     l       E           TYP  RCUT    TYP  RCUT                                                     
     2     -3.8151135     23  2.300                                                                 
     2     -5.1756961     23  2.300                                                                 
     0     -4.2550963     23  2.300                                                                 
     0      7.2035603     23  2.300                                                                 
     1     -2.7211652     23  2.300                                                                 
     1     18.4316424     23  2.300                                                                 
  local pseudopotential read in
  partial core-charges read in
  partial kinetic energy density read in
  atomic valenz-charges read in
  non local Contribution for L=           2  read in
    real space projection operators read in
  non local Contribution for L=           2  read in
    real space projection operators read in
  non local Contribution for L=           0  read in
    real space projection operators read in
  non local Contribution for L=           0  read in
    real space projection operators read in
  non local Contribution for L=           1  read in
    real space projection operators read in
  non local Contribution for L=           1  read in
    real space projection operators read in
    PAW grid and wavefunctions read in
 
   number of l-projection  operators is LMAX  =           6
   number of lm-projection operators is LMMAX =          18
 
  PAW_PBE Fe 06Sep2000                  :
 energy of atom  1       EATOM= -594.3153
 kinetic energy error for atom=    0.0278 (will be added to EATOM!!)
 
 
 POSCAR: Fe
  positions in cartesian coordinates
  No initial velocities read in
 exchange correlation table for  LEXCH =        8
   RHO(1)=    0.500       N(1)  =     2000
   RHO(2)=  100.500       N(2)  =     4000
 


--------------------------------------------------------------------------------------------------------


 ion  position               nearest neighbor table
   1  0.000  0.000  0.000-   2 2.35   2 2.35   2 2.35   2 2.35   2 2.35   2 2.35
   2  0.333  0.667  0.500-   1 2.35   1 2.35   1 2.35   1 2.35   1 2.35   1 2.35
 
  LATTYP: Found a hexagonal cell.
 ALAT       =     2.2368000000
 C/A-ratio  =     1.7596566524
  
  Lattice vectors:
  
 A1 = (   2.2368000000,   0.0000000000,   0.0000000000)
 A2 = (  -1.1184000000,   1.9371256232,   0.0000000000)
 A3 = (   0.0000000000,   0.0000000000,   3.9360000000)


Analysis of symmetry for initial positions (statically):
=====================================================================
 Subroutine PRICEL returns:
 Original cell was already a primitive cell.
 

 Routine SETGRP: Setting up the symmetry group for a 
 hexagonal supercell.


 Subroutine GETGRP returns: Found 24 space group operations
 (whereof 12 operations were pure point group operations)
 out of a pool of 24 trial point group operations.


The static configuration has the point symmetry D_3h.
 The point group associated with its full space group is D_6h.


Analysis of symmetry for dynamics (positions and initial velocities):
=====================================================================
 Subroutine PRICEL returns:
 Original cell was already a primitive cell.
 

 Routine SETGRP: Setting up the symmetry group for a 
 hexagonal supercell.


 Subroutine GETGRP returns: Found 24 space group operations
 (whereof 12 operations were pure point group operations)
 out of a pool of 24 trial point group operations.


The dynamic configuration has the point symmetry D_3h.
 The point group associated with its full space group is D_6h.


 Subroutine INISYM returns: Found 24 space group operations
 (whereof 12 operations are pure point group operations),
 and found     1 'primitive' translations


----------------------------------------------------------------------------------------

                                     Primitive cell                                     

  volume of cell :      17.0545

  direct lattice vectors                    reciprocal lattice vectors
     2.236800000  0.000000000  0.000000000     0.447067239  0.258114391  0.000000000
    -1.118400000  1.937125623  0.000000000     0.000000000  0.516228781  0.000000000
     0.000000000  0.000000000  3.936000000     0.000000000  0.000000000  0.254065041

  length of vectors
     2.236800000  2.236800000  3.936000000     0.516228781  0.516228781  0.254065041

  position of ions in fractional coordinates (direct lattice)
     0.000000000  0.000000000  0.000000000
     0.333333333  0.666666667  0.500000000

  ion indices of the primitive-cell ions
   primitive index   ion index
                 1           1
                 2           2

----------------------------------------------------------------------------------------

 
 
 KPOINTS: KPOINTS created by Atomic Simulation Env

Automatic generation of k-mesh.
 Grid dimensions read from file:
 generate k-points for:   11   11   11

 Generating k-lattice:

  Cartesian coordinates                     Fractional coordinates (reciprocal lattice)
     0.040642476  0.023464945  0.000000000     0.090909091 -0.000000000  0.000000000
     0.000000000  0.046929889  0.000000000     0.000000000  0.090909091  0.000000000
     0.000000000  0.000000000  0.023096822     0.000000000  0.000000000  0.090909091

  Length of vectors
     0.046929889  0.046929889  0.023096822

  Shift w.r.t. Gamma in fractional coordinates (k-lattice)
     0.000000000  0.000000000  0.000000000

 
 Subroutine IBZKPT returns following result:
 ===========================================
 
 Found     96 irreducible k-points:
 
 Following reciprocal coordinates:
            Coordinates               Weight
  0.000000  0.000000  0.000000      1.000000
  0.090909  0.000000  0.000000      6.000000
  0.181818 -0.000000  0.000000      6.000000
  0.272727  0.000000  0.000000      6.000000
  0.363636 -0.000000  0.000000      6.000000
  0.454545 -0.000000  0.000000      6.000000
  0.090909  0.090909  0.000000      6.000000
  0.181818  0.090909  0.000000     12.000000
  0.272727  0.090909  0.000000     12.000000
  0.363636  0.090909  0.000000     12.000000
  0.454545  0.090909  0.000000      6.000000
  0.181818  0.181818  0.000000      6.000000
  0.272727  0.181818  0.000000     12.000000
  0.363636  0.181818  0.000000     12.000000
  0.272727  0.272727  0.000000      6.000000
  0.363636  0.272727  0.000000      6.000000
  0.000000  0.000000  0.090909      2.000000
  0.090909  0.000000  0.090909     12.000000
  0.181818 -0.000000  0.090909     12.000000
  0.272727  0.000000  0.090909     12.000000
  0.363636 -0.000000  0.090909     12.000000
  0.454545 -0.000000  0.090909     12.000000
  0.090909  0.090909  0.090909     12.000000
  0.181818  0.090909  0.090909     24.000000
  0.272727  0.090909  0.090909     24.000000
  0.363636  0.090909  0.090909     24.000000
  0.454545  0.090909  0.090909     12.000000
  0.181818  0.181818  0.090909     12.000000
  0.272727  0.181818  0.090909     24.000000
  0.363636  0.181818  0.090909     24.000000
  0.272727  0.272727  0.090909     12.000000
  0.363636  0.272727  0.090909     12.000000
  0.000000  0.000000  0.181818      2.000000
  0.090909  0.000000  0.181818     12.000000
  0.181818 -0.000000  0.181818     12.000000
  0.272727  0.000000  0.181818     12.000000
  0.363636 -0.000000  0.181818     12.000000
  0.454545 -0.000000  0.181818     12.000000
  0.090909  0.090909  0.181818     12.000000
  0.181818  0.090909  0.181818     24.000000
  0.272727  0.090909  0.181818     24.000000
  0.363636  0.090909  0.181818     24.000000
  0.454545  0.090909  0.181818     12.000000
  0.181818  0.181818  0.181818     12.000000
  0.272727  0.181818  0.181818     24.000000
  0.363636  0.181818  0.181818     24.000000
  0.272727  0.272727  0.181818     12.000000
  0.363636  0.272727  0.181818     12.000000
  0.000000  0.000000  0.272727      2.000000
  0.090909  0.000000  0.272727     12.000000
  0.181818 -0.000000  0.272727     12.000000
  0.272727  0.000000  0.272727     12.000000
  0.363636 -0.000000  0.272727     12.000000
  0.454545 -0.000000  0.272727     12.000000
  0.090909  0.090909  0.272727     12.000000
  0.181818  0.090909  0.272727     24.000000
  0.272727  0.090909  0.272727     24.000000
  0.363636  0.090909  0.272727     24.000000
  0.454545  0.090909  0.272727     12.000000
  0.181818  0.181818  0.272727     12.000000
  0.272727  0.181818  0.272727     24.000000
  0.363636  0.181818  0.272727     24.000000
  0.272727  0.272727  0.272727     12.000000
  0.363636  0.272727  0.272727     12.000000
  0.000000  0.000000  0.363636      2.000000
  0.090909  0.000000  0.363636     12.000000
  0.181818 -0.000000  0.363636     12.000000
  0.272727  0.000000  0.363636     12.000000
  0.363636 -0.000000  0.363636     12.000000
  0.454545 -0.000000  0.363636     12.000000
  0.090909  0.090909  0.363636     12.000000
  0.181818  0.090909  0.363636     24.000000
  0.272727  0.090909  0.363636     24.000000
  0.363636  0.090909  0.363636     24.000000
  0.454545  0.090909  0.363636     12.000000
  0.181818  0.181818  0.363636     12.000000
  0.272727  0.181818  0.363636     24.000000
  0.363636  0.181818  0.363636     24.000000
  0.272727  0.272727  0.363636     12.000000
  0.363636  0.272727  0.363636     12.000000
  0.000000  0.000000  0.454545      2.000000
  0.090909  0.000000  0.454545     12.000000
  0.181818 -0.000000  0.454545     12.000000
  0.272727  0.000000  0.454545     12.000000
  0.363636 -0.000000  0.454545     12.000000
  0.454545 -0.000000  0.454545     12.000000
  0.090909  0.090909  0.454545     12.000000
  0.181818  0.090909  0.454545     24.000000
  0.272727  0.090909  0.454545     24.000000
  0.363636  0.090909  0.454545     24.000000
  0.454545  0.090909  0.454545     12.000000
  0.181818  0.181818  0.454545     12.000000
  0.272727  0.181818  0.454545     24.000000
  0.363636  0.181818  0.454545     24.000000
  0.272727  0.272727  0.454545     12.000000
  0.363636  0.272727  0.454545     12.000000
 
 Following cartesian coordinates:
            Coordinates               Weight
  0.000000  0.000000  0.000000      1.000000
  0.040642  0.023465  0.000000      6.000000
  0.081285  0.046930  0.000000      6.000000
  0.121927  0.070395  0.000000      6.000000
  0.162570  0.093860  0.000000      6.000000
  0.203212  0.117325  0.000000      6.000000
  0.040642  0.070395  0.000000      6.000000
  0.081285  0.093860  0.000000     12.000000
  0.121927  0.117325  0.000000     12.000000
  0.162570  0.140790  0.000000     12.000000
  0.203212  0.164255  0.000000      6.000000
  0.081285  0.140790  0.000000      6.000000
  0.121927  0.164255  0.000000     12.000000
  0.162570  0.187720  0.000000     12.000000
  0.121927  0.211185  0.000000      6.000000
  0.162570  0.234649  0.000000      6.000000
  0.000000  0.000000  0.023097      2.000000
  0.040642  0.023465  0.023097     12.000000
  0.081285  0.046930  0.023097     12.000000
  0.121927  0.070395  0.023097     12.000000
  0.162570  0.093860  0.023097     12.000000
  0.203212  0.117325  0.023097     12.000000
  0.040642  0.070395  0.023097     12.000000
  0.081285  0.093860  0.023097     24.000000
  0.121927  0.117325  0.023097     24.000000
  0.162570  0.140790  0.023097     24.000000
  0.203212  0.164255  0.023097     12.000000
  0.081285  0.140790  0.023097     12.000000
  0.121927  0.164255  0.023097     24.000000
  0.162570  0.187720  0.023097     24.000000
  0.121927  0.211185  0.023097     12.000000
  0.162570  0.234649  0.023097     12.000000
  0.000000  0.000000  0.046194      2.000000
  0.040642  0.023465  0.046194     12.000000
  0.081285  0.046930  0.046194     12.000000
  0.121927  0.070395  0.046194     12.000000
  0.162570  0.093860  0.046194     12.000000
  0.203212  0.117325  0.046194     12.000000
  0.040642  0.070395  0.046194     12.000000
  0.081285  0.093860  0.046194     24.000000
  0.121927  0.117325  0.046194     24.000000
  0.162570  0.140790  0.046194     24.000000
  0.203212  0.164255  0.046194     12.000000
  0.081285  0.140790  0.046194     12.000000
  0.121927  0.164255  0.046194     24.000000
  0.162570  0.187720  0.046194     24.000000
  0.121927  0.211185  0.046194     12.000000
  0.162570  0.234649  0.046194     12.000000
  0.000000  0.000000  0.069290      2.000000
  0.040642  0.023465  0.069290     12.000000
  0.081285  0.046930  0.069290     12.000000
  0.121927  0.070395  0.069290     12.000000
  0.162570  0.093860  0.069290     12.000000
  0.203212  0.117325  0.069290     12.000000
  0.040642  0.070395  0.069290     12.000000
  0.081285  0.093860  0.069290     24.000000
  0.121927  0.117325  0.069290     24.000000
  0.162570  0.140790  0.069290     24.000000
  0.203212  0.164255  0.069290     12.000000
  0.081285  0.140790  0.069290     12.000000
  0.121927  0.164255  0.069290     24.000000
  0.162570  0.187720  0.069290     24.000000
  0.121927  0.211185  0.069290     12.000000
  0.162570  0.234649  0.069290     12.000000
  0.000000  0.000000  0.092387      2.000000
  0.040642  0.023465  0.092387     12.000000
  0.081285  0.046930  0.092387     12.000000
  0.121927  0.070395  0.092387     12.000000
  0.162570  0.093860  0.092387     12.000000
  0.203212  0.117325  0.092387     12.000000
  0.040642  0.070395  0.092387     12.000000
  0.081285  0.093860  0.092387     24.000000
  0.121927  0.117325  0.092387     24.000000
  0.162570  0.140790  0.092387     24.000000
  0.203212  0.164255  0.092387     12.000000
  0.081285  0.140790  0.092387     12.000000
  0.121927  0.164255  0.092387     24.000000
  0.162570  0.187720  0.092387     24.000000
  0.121927  0.211185  0.092387     12.000000
  0.162570  0.234649  0.092387     12.000000
  0.000000  0.000000  0.115484      2.000000
  0.040642  0.023465  0.115484     12.000000
  0.081285  0.046930  0.115484     12.000000
  0.121927  0.070395  0.115484     12.000000
  0.162570  0.093860  0.115484     12.000000
  0.203212  0.117325  0.115484     12.000000
  0.040642  0.070395  0.115484     12.000000
  0.081285  0.093860  0.115484     24.000000
  0.121927  0.117325  0.115484     24.000000
  0.162570  0.140790  0.115484     24.000000
  0.203212  0.164255  0.115484     12.000000
  0.081285  0.140790  0.115484     12.000000
  0.121927  0.164255  0.115484     24.000000
  0.162570  0.187720  0.115484     24.000000
  0.121927  0.211185  0.115484     12.000000
  0.162570  0.234649  0.115484     12.000000
 


--------------------------------------------------------------------------------------------------------




 Dimension of arrays:
   k-points           NKPTS =     96   k-points in BZ     NKDIM =     96   number of bands    NBANDS=     40
   number of dos      NEDOS =    301   number of ions     NIONS =      2
   non local maximal  LDIM  =      6   non local SUM 2l+1 LMDIM =     18
   total plane-waves  NPLWV =   1600
   max r-space proj   IRMAX =      1   max aug-charges    IRDMAX=   3541
   dimension x,y,z NGX =    10 NGY =   10 NGZ =   16
   dimension x,y,z NGXF=    20 NGYF=   20 NGZF=   32
   support grid    NGXF=    20 NGYF=   20 NGZF=   32
   ions per type =               2
   NGX,Y,Z   is equivalent  to a cutoff of   7.43,  7.43,  6.76 a.u.
   NGXF,Y,Z  is equivalent  to a cutoff of  14.86, 14.86, 13.52 a.u.

 SYSTEM =  unknown system                          
 POSCAR =  Fe                                      

 Startparameter for this run:
   NWRITE =      2    write-flag & timer
   PREC   = normal    normal or accurate (medium, high low for compatibility)
   ISTART =      0    job   : 0-new  1-cont  2-samecut
   ICHARG =      1    charge: 1-file 2-atom 10-const
   ISPIN  =      1    spin polarized calculation?
   LNONCOLLINEAR =      F non collinear calculations
   LSORBIT =      F    spin-orbit coupling
   INIWAV =      1    electr: 0-lowe 1-rand  2-diag
   LASPH  =      F    aspherical Exc in radial PAW
   METAGGA=      F    non-selfconsistent MetaGGA calc.

 Electronic Relaxation 1
   ENCUT  =  280.0 eV  20.58 Ry    4.54 a.u.   3.05  3.05  5.37*2*pi/ulx,y,z
   ENINI  =  280.0     initial cutoff
   ENAUG  =  511.4 eV  augmentation charge cutoff
   NELM   =     60;   NELMIN=  2; NELMDL= -5     # of ELM steps 
   EDIFF  = 0.1E-05   stopping-criterion for ELM
   LREAL  =      F    real-space projection
   NLSPLINE    = F    spline interpolate recip. space projectors
   LCOMPAT=      F    compatible to vasp.4.4
   GGA_COMPAT  = T    GGA compatible to vasp.4.4-vasp.4.6
   LMAXPAW     = -100 max onsite density
   LMAXMIX     =    2 max onsite mixed and CHGCAR
   VOSKOWN=      0    Vosko Wilk Nusair interpolation
   ROPT   =    0.00000
 Ionic relaxation
   EDIFFG = 0.1E-04   stopping-criterion for IOM
   NSW    =      0    number of steps for IOM
   NBLOCK =      1;   KBLOCK =      1    inner block; outer block 
   IBRION =     -1    ionic relax: 0-MD 1-quasi-New 2-CG
   NFREE  =      0    steps in history (QN), initial steepest desc. (CG)
   ISIF   =      2    stress and relaxation
   IWAVPR =      0    prediction:  0-non 1-charg 2-wave 3-comb
   ISYM   =      2    0-nonsym 1-usesym 2-fastsym
   LCORR  =      T    Harris-Foulkes like correction to forces

   POTIM  = 0.5000    time-step for ionic-motion
   TEIN   =    0.0    initial temperature
   TEBEG  =    0.0;   TEEND  =   0.0 temperature during run
   SMASS  =  -3.00    Nose mass-parameter (am)
   estimated Nose-frequenzy (Omega)   =  0.10E-29 period in steps = 0.13E+47 mass=  -0.114E-27a.u.
   SCALEE = 1.0000    scale energy and forces
   NPACO  =    256;   APACO  = 16.0  distance and # of slots for P.C.
   PSTRESS=    0.0 pullay stress

  Mass of Ions in am
   POMASS =  55.85
  Ionic Valenz
   ZVAL   =   8.00
  Atomic Wigner-Seitz radii
   RWIGS  =  -1.00
  virtual crystal weights 
   VCA    =   1.00
   NELECT =      16.0000    total number of electrons
   NUPDOWN=      -1.0000    fix difference up-down

 DOS related values:
   EMIN   =  10.00;   EMAX   =-10.00  energy-range for DOS
   EFERMI =   0.00
   ISMEAR =     1;   SIGMA  =   0.20  broadening in eV -4-tet -1-fermi 0-gaus

 Electronic relaxation 2 (details)
   IALGO  =     38    algorithm
   LDIAG  =      T    sub-space diagonalisation (order eigenvalues)
   LSUBROT=      F    optimize rotation matrix (better conditioning)
   TURBO    =      0    0=normal 1=particle mesh
   IRESTART =      0    0=no restart 2=restart with 2 vectors
   NREBOOT  =      0    no. of reboots
   NMIN     =      0    reboot dimension
   EREF     =   0.00    reference energy to select bands
   IMIX   =      4    mixing-type and parameters
     AMIX     =   0.40;   BMIX     =  1.00
     AMIX_MAG =   1.60;   BMIX_MAG =  1.00
     AMIN     =   0.10
     WC   =   100.;   INIMIX=   1;  MIXPRE=   1;  MAXMIX= -45

 Intra band minimization:
   WEIMIN = 0.0000     energy-eigenvalue tresh-hold
   EBREAK =  0.62E-08  absolut break condition
   DEPER  =   0.30     relativ break condition  

   TIME   =   0.40     timestep for ELM

  volume/ion in A,a.u.               =       8.53        57.54
  Fermi-wavevector in a.u.,A,eV,Ry     =   1.602636  3.028542 34.945764  2.568441
  Thomas-Fermi vector in A             =   2.699425
 
 Write flags
   LWAVE        =      T    write WAVECAR
   LDOWNSAMPLE  =      F    k-point downsampling of WAVECAR
   LCHARG       =      T    write CHGCAR
   LVTOT        =      F    write LOCPOT, total local potential
   LVHAR        =      F    write LOCPOT, Hartree potential only
   LELF         =      F    write electronic localiz. function (ELF)
   LORBIT       =      0    0 simple, 1 ext, 2 COOP (PROOUT), +10 PAW based schemes


 Dipole corrections
   LMONO  =      F    monopole corrections only (constant potential shift)
   LDIPOL =      F    correct potential (dipole corrections)
   IDIPOL =      0    1-x, 2-y, 3-z, 4-all directions 
   EPSILON=  1.0000000 bulk dielectric constant

 Exchange correlation treatment:
   GGA     =    PE    GGA type
   LEXCH   =     8    internal setting for exchange type
   VOSKOWN=      0    Vosko Wilk Nusair interpolation
   LHFCALC =     F    Hartree Fock is set to
   LHFONE  =     F    Hartree Fock one center treatment
   AEXX    =    0.0000 exact exchange contribution

 Linear response parameters
   LEPSILON=     F    determine dielectric tensor
   LRPA    =     F    only Hartree local field effects (RPA)
   LNABLA  =     F    use nabla operator in PAW spheres
   LVEL    =     F    velocity operator in full k-point grid
   LINTERFAST=   F  fast interpolation
   KINTER  =     0    interpolate to denser k-point grid
   CSHIFT  =0.1000    complex shift for real part using Kramers Kronig
   OMEGAMAX=  -1.0    maximum frequency
   DEG_THRESHOLD= 0.2000000E-02 threshold for treating states as degnerate
   RTIME   =   -0.100 relaxation time in fs
  (WPLASMAI=    0.000 imaginary part of plasma frequency in eV, 0.658/RTIME)
   DFIELD  = 0.0000000 0.0000000 0.0000000 field for delta impulse in time
 
 Orbital magnetization related:
   ORBITALMAG=     F  switch on orbital magnetization
   LCHIMAG   =     F  perturbation theory with respect to B field
   DQ        =  0.001000  dq finite difference perturbation B field
   LLRAUG    =     F  two centre corrections for induced B field



--------------------------------------------------------------------------------------------------------


 Static calculation
 charge density and potential will be updated during run
 non-spin polarized calculation
 Variant of blocked Davidson
 Davidson routine will perform the subspace rotation
 perform sub-space diagonalisation
    after iterative eigenvector-optimisation
 modified Broyden-mixing scheme, WC =      100.0
 initial mixing is a Kerker type mixing with AMIX =  0.4000 and BMIX =      1.0000
 Hartree-type preconditioning will be used
 using additional bands           32
 reciprocal scheme for non local part
 use partial core corrections
 calculate Harris-corrections to forces 
   (improved forces if not selfconsistent)
 use gradient corrections 
 use of overlap-Matrix (Vanderbilt PP)
 Methfessel and Paxton  Order N= 1 SIGMA  =   0.20


--------------------------------------------------------------------------------------------------------


  energy-cutoff  :      280.00
  volume of cell :       17.05
      direct lattice vectors                 reciprocal lattice vectors
     2.236800000  0.000000000  0.000000000     0.447067239  0.258114391  0.000000000
    -1.118400000  1.937125623  0.000000000     0.000000000  0.516228781  0.000000000
     0.000000000  0.000000000  3.936000000     0.000000000  0.000000000  0.254065041

  length of vectors
     2.236800000  2.236800000  3.936000000     0.516228781  0.516228781  0.254065041


 
 k-points in units of 2pi/SCALE and weight: KPOINTS created by Atomic Simulation Env
   0.00000000  0.00000000  0.00000000       0.001
   0.04064248  0.02346494  0.00000000       0.005
   0.08128495  0.04692989  0.00000000       0.005
   0.12192743  0.07039483  0.00000000       0.005
   0.16256991  0.09385978  0.00000000       0.005
   0.20321238  0.11732472  0.00000000       0.005
   0.04064248  0.07039483  0.00000000       0.005
   0.08128495  0.09385978  0.00000000       0.009
   0.12192743  0.11732472  0.00000000       0.009
   0.16256991  0.14078967  0.00000000       0.009
   0.20321238  0.16425461  0.00000000       0.005
   0.08128495  0.14078967  0.00000000       0.005
   0.12192743  0.16425461  0.00000000       0.009
   0.16256991  0.18771956  0.00000000       0.009
   0.12192743  0.21118450  0.00000000       0.005
   0.16256991  0.23464945  0.00000000       0.005
   0.00000000  0.00000000  0.02309682       0.002
   0.04064248  0.02346494  0.02309682       0.009
   0.08128495  0.04692989  0.02309682       0.009
   0.12192743  0.07039483  0.02309682       0.009
   0.16256991  0.09385978  0.02309682       0.009
   0.20321238  0.11732472  0.02309682       0.009
   0.04064248  0.07039483  0.02309682       0.009
   0.08128495  0.09385978  0.02309682       0.018
   0.12192743  0.11732472  0.02309682       0.018
   0.16256991  0.14078967  0.02309682       0.018
   0.20321238  0.16425461  0.02309682       0.009
   0.08128495  0.14078967  0.02309682       0.009
   0.12192743  0.16425461  0.02309682       0.018
   0.16256991  0.18771956  0.02309682       0.018
   0.12192743  0.21118450  0.02309682       0.009
   0.16256991  0.23464945  0.02309682       0.009
   0.00000000  0.00000000  0.04619364       0.002
   0.04064248  0.02346494  0.04619364       0.009
   0.08128495  0.04692989  0.04619364       0.009
   0.12192743  0.07039483  0.04619364       0.009
   0.16256991  0.09385978  0.04619364       0.009
   0.20321238  0.11732472  0.04619364       0.009
   0.04064248  0.07039483  0.04619364       0.009
   0.08128495  0.09385978  0.04619364       0.018
   0.12192743  0.11732472  0.04619364       0.018
   0.16256991  0.14078967  0.04619364       0.018
   0.20321238  0.16425461  0.04619364       0.009
   0.08128495  0.14078967  0.04619364       0.009
   0.12192743  0.16425461  0.04619364       0.018
   0.16256991  0.18771956  0.04619364       0.018
   0.12192743  0.21118450  0.04619364       0.009
   0.16256991  0.23464945  0.04619364       0.009
   0.00000000  0.00000000  0.06929047       0.002
   0.04064248  0.02346494  0.06929047       0.009
   0.08128495  0.04692989  0.06929047       0.009
   0.12192743  0.07039483  0.06929047       0.009
   0.16256991  0.09385978  0.06929047       0.009
   0.20321238  0.11732472  0.06929047       0.009
   0.04064248  0.07039483  0.06929047       0.009
   0.08128495  0.09385978  0.06929047       0.018
   0.12192743  0.11732472  0.06929047       0.018
   0.16256991  0.14078967  0.06929047       0.018
   0.20321238  0.16425461  0.06929047       0.009
   0.08128495  0.14078967  0.06929047       0.009
   0.12192743  0.16425461  0.06929047       0.018
   0.16256991  0.18771956  0.06929047       0.018
   0.12192743  0.21118450  0.06929047       0.009
   0.16256991  0.23464945  0.06929047       0.009
   0.00000000  0.00000000  0.09238729       0.002
   0.04064248  0.02346494  0.09238729       0.009
   0.08128495  0.04692989  0.09238729       0.009
   0.12192743  0.07039483  0.09238729       0.009
   0.16256991  0.09385978  0.09238729       0.009
   0.20321238  0.11732472  0.09238729       0.009
   0.04064248  0.07039483  0.09238729       0.009
   0.08128495  0.09385978  0.09238729       0.018
   0.12192743  0.11732472  0.09238729       0.018
   0.16256991  0.14078967  0.09238729       0.018
   0.20321238  0.16425461  0.09238729       0.009
   0.08128495  0.14078967  0.09238729       0.009
   0.12192743  0.16425461  0.09238729       0.018
   0.16256991  0.18771956  0.09238729       0.018
   0.12192743  0.21118450  0.09238729       0.009
   0.16256991  0.23464945  0.09238729       0.009
   0.00000000  0.00000000  0.11548411       0.002
   0.04064248  0.02346494  0.11548411       0.009
   0.08128495  0.04692989  0.11548411       0.009
   0.12192743  0.07039483  0.11548411       0.009
   0.16256991  0.09385978  0.11548411       0.009
   0.20321238  0.11732472  0.11548411       0.009
   0.04064248  0.07039483  0.11548411       0.009
   0.08128495  0.09385978  0.11548411       0.018
   0.12192743  0.11732472  0.11548411       0.018
   0.16256991  0.14078967  0.11548411       0.018
   0.20321238  0.16425461  0.11548411       0.009
   0.08128495  0.14078967  0.11548411       0.009
   0.12192743  0.16425461  0.11548411       0.018
   0.16256991  0.18771956  0.11548411       0.018
   0.12192743  0.21118450  0.11548411       0.009
   0.16256991  0.23464945  0.11548411       0.009
 
 k-points in reciprocal lattice and weights: KPOINTS created by Atomic Simulation Env
   0.00000000  0.00000000  0.00000000       0.001
   0.09090909  0.00000000  0.00000000       0.005
   0.18181818 -0.00000000  0.00000000       0.005
   0.27272727  0.00000000  0.00000000       0.005
   0.36363636 -0.00000000  0.00000000       0.005
   0.45454545 -0.00000000  0.00000000       0.005
   0.09090909  0.09090909  0.00000000       0.005
   0.18181818  0.09090909  0.00000000       0.009
   0.27272727  0.09090909  0.00000000       0.009
   0.36363636  0.09090909  0.00000000       0.009
   0.45454545  0.09090909  0.00000000       0.005
   0.18181818  0.18181818  0.00000000       0.005
   0.27272727  0.18181818  0.00000000       0.009
   0.36363636  0.18181818  0.00000000       0.009
   0.27272727  0.27272727  0.00000000       0.005
   0.36363636  0.27272727  0.00000000       0.005
   0.00000000  0.00000000  0.09090909       0.002
   0.09090909  0.00000000  0.09090909       0.009
   0.18181818 -0.00000000  0.09090909       0.009
   0.27272727  0.00000000  0.09090909       0.009
   0.36363636 -0.00000000  0.09090909       0.009
   0.45454545 -0.00000000  0.09090909       0.009
   0.09090909  0.09090909  0.09090909       0.009
   0.18181818  0.09090909  0.09090909       0.018
   0.27272727  0.09090909  0.09090909       0.018
   0.36363636  0.09090909  0.09090909       0.018
   0.45454545  0.09090909  0.09090909       0.009
   0.18181818  0.18181818  0.09090909       0.009
   0.27272727  0.18181818  0.09090909       0.018
   0.36363636  0.18181818  0.09090909       0.018
   0.27272727  0.27272727  0.09090909       0.009
   0.36363636  0.27272727  0.09090909       0.009
   0.00000000  0.00000000  0.18181818       0.002
   0.09090909  0.00000000  0.18181818       0.009
   0.18181818 -0.00000000  0.18181818       0.009
   0.27272727  0.00000000  0.18181818       0.009
   0.36363636 -0.00000000  0.18181818       0.009
   0.45454545 -0.00000000  0.18181818       0.009
   0.09090909  0.09090909  0.18181818       0.009
   0.18181818  0.09090909  0.18181818       0.018
   0.27272727  0.09090909  0.18181818       0.018
   0.36363636  0.09090909  0.18181818       0.018
   0.45454545  0.09090909  0.18181818       0.009
   0.18181818  0.18181818  0.18181818       0.009
   0.27272727  0.18181818  0.18181818       0.018
   0.36363636  0.18181818  0.18181818       0.018
   0.27272727  0.27272727  0.18181818       0.009
   0.36363636  0.27272727  0.18181818       0.009
   0.00000000  0.00000000  0.27272727       0.002
   0.09090909  0.00000000  0.27272727       0.009
   0.18181818 -0.00000000  0.27272727       0.009
   0.27272727  0.00000000  0.27272727       0.009
   0.36363636 -0.00000000  0.27272727       0.009
   0.45454545 -0.00000000  0.27272727       0.009
   0.09090909  0.09090909  0.27272727       0.009
   0.18181818  0.09090909  0.27272727       0.018
   0.27272727  0.09090909  0.27272727       0.018
   0.36363636  0.09090909  0.27272727       0.018
   0.45454545  0.09090909  0.27272727       0.009
   0.18181818  0.18181818  0.27272727       0.009
   0.27272727  0.18181818  0.27272727       0.018
   0.36363636  0.18181818  0.27272727       0.018
   0.27272727  0.27272727  0.27272727       0.009
   0.36363636  0.27272727  0.27272727       0.009
   0.00000000  0.00000000  0.36363636       0.002
   0.09090909  0.00000000  0.36363636       0.009
   0.18181818 -0.00000000  0.36363636       0.009
   0.27272727  0.00000000  0.36363636       0.009
   0.36363636 -0.00000000  0.36363636       0.009
   0.45454545 -0.00000000  0.36363636       0.009
   0.09090909  0.09090909  0.36363636       0.009
   0.18181818  0.09090909  0.36363636       0.018
   0.27272727  0.09090909  0.36363636       0.018
   0.36363636  0.09090909  0.36363636       0.018
   0.45454545  0.09090909  0.36363636       0.009
   0.18181818  0.18181818  0.36363636       0.009
   0.27272727  0.18181818  0.36363636       0.018
   0.36363636  0.18181818  0.36363636       0.018
   0.27272727  0.27272727  0.36363636       0.009
   0.36363636  0.27272727  0.36363636       0.009
   0.00000000  0.00000000  0.45454545       0.002
   0.09090909  0.00000000  0.45454545       0.009
   0.18181818 -0.00000000  0.45454545       0.009
   0.27272727  0.00000000  0.45454545       0.009
   0.36363636 -0.00000000  0.45454545       0.009
   0.45454545 -0.00000000  0.45454545       0.009
   0.09090909  0.09090909  0.45454545       0.009
   0.18181818  0.09090909  0.45454545       0.018
   0.27272727  0.09090909  0.45454545       0.018
   0.36363636  0.09090909  0.45454545       0.018
   0.45454545  0.09090909  0.45454545       0.009
   0.18181818  0.18181818  0.45454545       0.009
   0.27272727  0.18181818  0.45454545       0.018
   0.36363636  0.18181818  0.45454545       0.018
   0.27272727  0.27272727  0.45454545       0.009
   0.36363636  0.27272727  0.45454545       0.009
 
 position of ions in fractional coordinates (direct lattice) 
   0.00000000  0.00000000  0.00000000
   0.33333333  0.66666667  0.50000000
 
 position of ions in cartesian coordinates  (Angst):
   0.00000000  0.00000000  0.00000000
   0.00000000  1.29141708  1.96800000
 


--------------------------------------------------------------------------------------------------------


 k-point   1 :   0.0000 0.0000 0.0000  plane waves:     161
 k-point   2 :   0.0909 0.0000 0.0000  plane waves:     177
 k-point   3 :   0.1818-0.0000 0.0000  plane waves:     177
 k-point   4 :   0.2727 0.0000 0.0000  plane waves:     185
 k-point   5 :   0.3636-0.0000 0.0000  plane waves:     178
 k-point   6 :   0.4545-0.0000 0.0000  plane waves:     178
 k-point   7 :   0.0909 0.0909 0.0000  plane waves:     173
 k-point   8 :   0.1818 0.0909 0.0000  plane waves:     177
 k-point   9 :   0.2727 0.0909 0.0000  plane waves:     180
 k-point  10 :   0.3636 0.0909 0.0000  plane waves:     187
 k-point  11 :   0.4545 0.0909 0.0000  plane waves:     183
 k-point  12 :   0.1818 0.1818 0.0000  plane waves:     185
 k-point  13 :   0.2727 0.1818 0.0000  plane waves:     186
 k-point  14 :   0.3636 0.1818 0.0000  plane waves:     186
 k-point  15 :   0.2727 0.2727 0.0000  plane waves:     189
 k-point  16 :   0.3636 0.2727 0.0000  plane waves:     189
 k-point  17 :   0.0000 0.0000 0.0909  plane waves:     161
 k-point  18 :   0.0909 0.0000 0.0909  plane waves:     176
 k-point  19 :   0.1818-0.0000 0.0909  plane waves:     172
 k-point  20 :   0.2727 0.0000 0.0909  plane waves:     178
 k-point  21 :   0.3636-0.0000 0.0909  plane waves:     182
 k-point  22 :   0.4545-0.0000 0.0909  plane waves:     183
 k-point  23 :   0.0909 0.0909 0.0909  plane waves:     175
 k-point  24 :   0.1818 0.0909 0.0909  plane waves:     179
 k-point  25 :   0.2727 0.0909 0.0909  plane waves:     180
 k-point  26 :   0.3636 0.0909 0.0909  plane waves:     183
 k-point  27 :   0.4545 0.0909 0.0909  plane waves:     182
 k-point  28 :   0.1818 0.1818 0.0909  plane waves:     183
 k-point  29 :   0.2727 0.1818 0.0909  plane waves:     185
 k-point  30 :   0.3636 0.1818 0.0909  plane waves:     187
 k-point  31 :   0.2727 0.2727 0.0909  plane waves:     190
 k-point  32 :   0.3636 0.2727 0.0909  plane waves:     189
 k-point  33 :   0.0000 0.0000 0.1818  plane waves:     161
 k-point  34 :   0.0909 0.0000 0.1818  plane waves:     177
 k-point  35 :   0.1818-0.0000 0.1818  plane waves:     176
 k-point  36 :   0.2727 0.0000 0.1818  plane waves:     179
 k-point  37 :   0.3636-0.0000 0.1818  plane waves:     184
 k-point  38 :   0.4545-0.0000 0.1818  plane waves:     183
 k-point  39 :   0.0909 0.0909 0.1818  plane waves:     175
 k-point  40 :   0.1818 0.0909 0.1818  plane waves:     179
 k-point  41 :   0.2727 0.0909 0.1818  plane waves:     181
 k-point  42 :   0.3636 0.0909 0.1818  plane waves:     182
 k-point  43 :   0.4545 0.0909 0.1818  plane waves:     181
 k-point  44 :   0.1818 0.1818 0.1818  plane waves:     181
 k-point  45 :   0.2727 0.1818 0.1818  plane waves:     184
 k-point  46 :   0.3636 0.1818 0.1818  plane waves:     184
 k-point  47 :   0.2727 0.2727 0.1818  plane waves:     190
 k-point  48 :   0.3636 0.2727 0.1818  plane waves:     192
 k-point  49 :   0.0000 0.0000 0.2727  plane waves:     161
 k-point  50 :   0.0909 0.0000 0.2727  plane waves:     173
 k-point  51 :   0.1818-0.0000 0.2727  plane waves:     179
 k-point  52 :   0.2727 0.0000 0.2727  plane waves:     182
 k-point  53 :   0.3636-0.0000 0.2727  plane waves:     184
 k-point  54 :   0.4545-0.0000 0.2727  plane waves:     184
 k-point  55 :   0.0909 0.0909 0.2727  plane waves:     180
 k-point  56 :   0.1818 0.0909 0.2727  plane waves:     181
 k-point  57 :   0.2727 0.0909 0.2727  plane waves:     180
 k-point  58 :   0.3636 0.0909 0.2727  plane waves:     180
 k-point  59 :   0.4545 0.0909 0.2727  plane waves:     183
 k-point  60 :   0.1818 0.1818 0.2727  plane waves:     181
 k-point  61 :   0.2727 0.1818 0.2727  plane waves:     182
 k-point  62 :   0.3636 0.1818 0.2727  plane waves:     183
 k-point  63 :   0.2727 0.2727 0.2727  plane waves:     186
 k-point  64 :   0.3636 0.2727 0.2727  plane waves:     187
 k-point  65 :   0.0000 0.0000 0.3636  plane waves:     161
 k-point  66 :   0.0909 0.0000 0.3636  plane waves:     171
 k-point  67 :   0.1818-0.0000 0.3636  plane waves:     180
 k-point  68 :   0.2727 0.0000 0.3636  plane waves:     180
 k-point  69 :   0.3636-0.0000 0.3636  plane waves:     181
 k-point  70 :   0.4545-0.0000 0.3636  plane waves:     184
 k-point  71 :   0.0909 0.0909 0.3636  plane waves:     178
 k-point  72 :   0.1818 0.0909 0.3636  plane waves:     180
 k-point  73 :   0.2727 0.0909 0.3636  plane waves:     180
 k-point  74 :   0.3636 0.0909 0.3636  plane waves:     182
 k-point  75 :   0.4545 0.0909 0.3636  plane waves:     185
 k-point  76 :   0.1818 0.1818 0.3636  plane waves:     182
 k-point  77 :   0.2727 0.1818 0.3636  plane waves:     181
 k-point  78 :   0.3636 0.1818 0.3636  plane waves:     183
 k-point  79 :   0.2727 0.2727 0.3636  plane waves:     184
 k-point  80 :   0.3636 0.2727 0.3636  plane waves:     187
 k-point  81 :   0.0000 0.0000 0.4545  plane waves:     160
 k-point  82 :   0.0909 0.0000 0.4545  plane waves:     170
 k-point  83 :   0.1818-0.0000 0.4545  plane waves:     180
 k-point  84 :   0.2727 0.0000 0.4545  plane waves:     180
 k-point  85 :   0.3636-0.0000 0.4545  plane waves:     180
 k-point  86 :   0.4545-0.0000 0.4545  plane waves:     187
 k-point  87 :   0.0909 0.0909 0.4545  plane waves:     176
 k-point  88 :   0.1818 0.0909 0.4545  plane waves:     180
 k-point  89 :   0.2727 0.0909 0.4545  plane waves:     181
 k-point  90 :   0.3636 0.0909 0.4545  plane waves:     184
 k-point  91 :   0.4545 0.0909 0.4545  plane waves:     184
 k-point  92 :   0.1818 0.1818 0.4545  plane waves:     179
 k-point  93 :   0.2727 0.1818 0.4545  plane waves:     181
 k-point  94 :   0.3636 0.1818 0.4545  plane waves:     184
 k-point  95 :   0.2727 0.2727 0.4545  plane waves:     182
 k-point  96 :   0.3636 0.2727 0.4545  plane waves:     180

 maximum number of plane-waves:       192
 maximum index in each direction: 
   IXMAX=    2   IYMAX=    3   IZMAX=    5
   IXMIN=   -3   IYMIN=   -3   IZMIN=   -5


 total amount of memory used by VASP MPI-rank0    47420. kBytes
=======================================================================

   base      :      30000. kBytes
   nonl-proj :       2660. kBytes
   grid      :        721. kBytes
   one-center:         31. kBytes
   wavefun   :      14008. kBytes
 
     INWAV:  cpu time    0.0000: real time    0.0000
 Broyden mixing: mesh for mixing (old mesh)
   NGX =  5   NGY =  5   NGZ = 11
  (NGX  = 20   NGY  = 20   NGZ  = 32)
  gives a total of    275 points

 initial charge density was supplied:
 charge density of overlapping atoms calculated
 number of electron      16.0000000 magnetization 
 keeping initial charge density in first step


--------------------------------------------------------------------------------------------------------


 Maximum index for augmentation-charges         3269 (set IRDMAX)


--------------------------------------------------------------------------------------------------------


 First call to EWALD:  gamma=   0.689
 Maximum number of real-space cells 3x 3x 2
 Maximum number of reciprocal cells 2x 2x 4

    FEWALD:  cpu time    0.0009: real time    0.0009


--------------------------------------- Iteration      1(   1)  ---------------------------------------


    POTLOK:  cpu time    0.0031: real time    0.0031
    SETDIJ:  cpu time    0.0023: real time    0.0023
     EDDAV:  cpu time    0.7704: real time    0.8043
       DOS:  cpu time    0.0054: real time    0.0054
    --------------------------------------------
      LOOP:  cpu time    0.7812: real time    0.8151

 eigenvalue-minimisations  :  9416
 total energy-change (2. order) : 0.6027897E+02  (-0.2404785E+03)
 number of electron      16.0000000 magnetization 
 augmentation part       16.0000000 magnetization 

 Free energy of the ion-electron system (eV)
  ---------------------------------------------------
  alpha Z        PSCENC =       162.10058525
  Ewald energy   TEWEN  =     -1301.76417951
  -Hartree energ DENC   =      -181.52662562
  -exchange      EXHF   =         0.00000000
  -V(xc)+E(xc)   XCENC  =         9.69684380
  PAW double counting   =      1109.69170683    -1125.09647265
  entropy T*S    EENTRO =        -0.00140461
  eigenvalues    EBANDS =       198.60360466
  atomic energy  EATOM  =      1188.57490811
  Solvation  Ediel_sol  =         0.00000000
  ---------------------------------------------------
  free energy    TOTEN  =        60.27896627 eV

  energy without entropy =       60.28037087  energy(sigma->0) =       60.27943447


--------------------------------------------------------------------------------------------------------




--------------------------------------- Iteration      1(   2)  ---------------------------------------


     EDDAV:  cpu time    0.6284: real time    0.6284
       DOS:  cpu time    0.0058: real time    0.0058
    --------------------------------------------
      LOOP:  cpu time    0.6342: real time    0.6342

 eigenvalue-minimisations  :  7960
 total energy-change (2. order) :-0.7433286E+02  (-0.6341820E+02)
 number of electron      16.0000000 magnetization 
 augmentation part       16.0000000 magnetization 

 Free energy of the ion-electron system (eV)
  ---------------------------------------------------
  alpha Z        PSCENC =       162.10058525
  Ewald energy   TEWEN  =     -1301.76417951
  -Hartree energ DENC   =      -181.52662562
  -exchange      EXHF   =         0.00000000
  -V(xc)+E(xc)   XCENC  =         9.69684380
  PAW double counting   =      1109.69170683    -1125.09647265
  entropy T*S    EENTRO =         0.00065519
  eigenvalues    EBANDS =       124.26868598
  atomic energy  EATOM  =      1188.57490811
  Solvation  Ediel_sol  =         0.00000000
  ---------------------------------------------------
  free energy    TOTEN  =       -14.05389261 eV

  energy without entropy =      -14.05454780  energy(sigma->0) =      -14.05411101


--------------------------------------------------------------------------------------------------------




--------------------------------------- Iteration      1(   3)  ---------------------------------------


     EDDAV:  cpu time    0.7229: real time    0.7229
       DOS:  cpu time    0.0062: real time    0.0062
    --------------------------------------------
      LOOP:  cpu time    0.7291: real time    0.7291

 eigenvalue-minimisations  :  9584
 total energy-change (2. order) :-0.3930908E+01  (-0.3788039E+01)
 number of electron      16.0000000 magnetization 
 augmentation part       16.0000000 magnetization 

 Free energy of the ion-electron system (eV)
  ---------------------------------------------------
  alpha Z        PSCENC =       162.10058525
  Ewald energy   TEWEN  =     -1301.76417951
  -Hartree energ DENC   =      -181.52662562
  -exchange      EXHF   =         0.00000000
  -V(xc)+E(xc)   XCENC  =         9.69684380
  PAW double counting   =      1109.69170683    -1125.09647265
  entropy T*S    EENTRO =         0.00067981
  eigenvalues    EBANDS =       120.33775360
  atomic energy  EATOM  =      1188.57490811
  Solvation  Ediel_sol  =         0.00000000
  ---------------------------------------------------
  free energy    TOTEN  =       -17.98480037 eV

  energy without entropy =      -17.98548019  energy(sigma->0) =      -17.98502698


--------------------------------------------------------------------------------------------------------




--------------------------------------- Iteration      1(   4)  ---------------------------------------


     EDDAV:  cpu time    0.6521: real time    0.6521
       DOS:  cpu time    0.0058: real time    0.0058
    --------------------------------------------
      LOOP:  cpu time    0.6579: real time    0.6579

 eigenvalue-minimisations  :  8608
 total energy-change (2. order) :-0.1257519E-01  (-0.1257029E-01)
 number of electron      16.0000000 magnetization 
 augmentation part       16.0000000 magnetization 

 Free energy of the ion-electron system (eV)
  ---------------------------------------------------
  alpha Z        PSCENC =       162.10058525
  Ewald energy   TEWEN  =     -1301.76417951
  -Hartree energ DENC   =      -181.52662562
  -exchange      EXHF   =         0.00000000
  -V(xc)+E(xc)   XCENC  =         9.69684380
  PAW double counting   =      1109.69170683    -1125.09647265
  entropy T*S    EENTRO =         0.00068856
  eigenvalues    EBANDS =       120.32516966
  atomic energy  EATOM  =      1188.57490811
  Solvation  Ediel_sol  =         0.00000000
  ---------------------------------------------------
  free energy    TOTEN  =       -17.99737557 eV

  energy without entropy =      -17.99806413  energy(sigma->0) =      -17.99760509


--------------------------------------------------------------------------------------------------------




--------------------------------------- Iteration      1(   5)  ---------------------------------------


     EDDAV:  cpu time    0.7038: real time    0.7038
       DOS:  cpu time    0.0058: real time    0.0058
    CHARGE:  cpu time    0.0175: real time    0.0175
    MIXING:  cpu time    0.0001: real time    0.0001
    --------------------------------------------
      LOOP:  cpu time    0.7272: real time    0.7272

 eigenvalue-minimisations  :  9360
 total energy-change (2. order) :-0.6812113E-05  (-0.6811590E-05)
 number of electron      16.0000185 magnetization 
 augmentation part        7.2442006 magnetization 

 Broyden mixing:
  rms(total) = 0.20987E+01    rms(broyden)= 0.20987E+01
  rms(prec ) = 0.30537E+01
  weight for this iteration     100.00

 Free energy of the ion-electron system (eV)
  ---------------------------------------------------
  alpha Z        PSCENC =       162.10058525
  Ewald energy   TEWEN  =     -1301.76417951
  -Hartree energ DENC   =      -181.52662562
  -exchange      EXHF   =         0.00000000
  -V(xc)+E(xc)   XCENC  =         9.69684380
  PAW double counting   =      1109.69170683    -1125.09647265
  entropy T*S    EENTRO =         0.00068856
  eigenvalues    EBANDS =       120.32516285
  atomic energy  EATOM  =      1188.57490811
  Solvation  Ediel_sol  =         0.00000000
  ---------------------------------------------------
  free energy    TOTEN  =       -17.99738238 eV

  energy without entropy =      -17.99807094  energy(sigma->0) =      -17.99761190


--------------------------------------------------------------------------------------------------------




--------------------------------------- Iteration      1(   6)  ---------------------------------------


    POTLOK:  cpu time    0.0029: real time    0.0029
    SETDIJ:  cpu time    0.0022: real time    0.0022
     EDDAV:  cpu time    0.8313: real time    0.8313
       DOS:  cpu time    0.0063: real time    0.0063
    CHARGE:  cpu time    0.0171: real time    0.0171
    MIXING:  cpu time    0.0002: real time    0.0002
    --------------------------------------------
      LOOP:  cpu time    0.8599: real time    0.8600

 eigenvalue-minimisations  : 11296
 total energy-change (2. order) : 0.2478127E+01  (-0.1218134E+00)
 number of electron      16.0000216 magnetization 
 augmentation part        8.2857282 magnetization 

 Broyden mixing:
  rms(total) = 0.20003E+00    rms(broyden)= 0.19985E+00
  rms(prec ) = 0.21484E+00
  weight for this iteration     100.00

 eigenvalues of (default mixing * dielectric matrix)
  average eigenvalue GAMMA=   1.0751
  1.0751

 Free energy of the ion-electron system (eV)
  ---------------------------------------------------
  alpha Z        PSCENC =       162.10058525
  Ewald energy   TEWEN  =     -1301.76417951
  -Hartree energ DENC   =      -152.65242515
  -exchange      EXHF   =         0.00000000
  -V(xc)+E(xc)   XCENC  =         8.27082563
  PAW double counting   =      1372.47350894    -1385.38581154
  entropy T*S    EENTRO =         0.00085817
  eigenvalues    EBANDS =        92.86247454
  atomic energy  EATOM  =      1188.57490811
  Solvation  Ediel_sol  =         0.00000000
  ---------------------------------------------------
  free energy    TOTEN  =       -15.51925555 eV

  energy without entropy =      -15.52011372  energy(sigma->0) =      -15.51954161


--------------------------------------------------------------------------------------------------------




--------------------------------------- Iteration      1(   7)  ---------------------------------------


    POTLOK:  cpu time    0.0030: real time    0.0030
    SETDIJ:  cpu time    0.0021: real time    0.0021
     EDDAV:  cpu time    0.7109: real time    0.7109
       DOS:  cpu time    0.0063: real time    0.0063
    CHARGE:  cpu time    0.0172: real time    0.0172
    MIXING:  cpu time    0.0002: real time    0.0002
    --------------------------------------------
      LOOP:  cpu time    0.7396: real time    0.7396

 eigenvalue-minimisations  :  9512
 total energy-change (2. order) : 0.1083137E+00  (-0.4348298E-02)
 number of electron      16.0000213 magnetization 
 augmentation part        8.1773813 magnetization 

 Broyden mixing:
  rms(total) = 0.18404E+00    rms(broyden)= 0.18403E+00
  rms(prec ) = 0.24038E+00
  weight for this iteration     100.00

 eigenvalues of (default mixing * dielectric matrix)
  average eigenvalue GAMMA=   1.3299
  0.8748  1.7850

 Free energy of the ion-electron system (eV)
  ---------------------------------------------------
  alpha Z        PSCENC =       162.10058525
  Ewald energy   TEWEN  =     -1301.76417951
  -Hartree energ DENC   =      -152.62115116
  -exchange      EXHF   =         0.00000000
  -V(xc)+E(xc)   XCENC  =         8.29681296
  PAW double counting   =      1507.37621226    -1523.66807944
  entropy T*S    EENTRO =         0.00073014
  eigenvalues    EBANDS =        96.29321949
  atomic energy  EATOM  =      1188.57490811
  Solvation  Ediel_sol  =         0.00000000
  ---------------------------------------------------
  free energy    TOTEN  =       -15.41094189 eV

  energy without entropy =      -15.41167203  energy(sigma->0) =      -15.41118527


--------------------------------------------------------------------------------------------------------




--------------------------------------- Iteration      1(   8)  ---------------------------------------


    POTLOK:  cpu time    0.0029: real time    0.0029
    SETDIJ:  cpu time    0.0022: real time    0.0022
     EDDAV:  cpu time    0.7904: real time    0.7904
       DOS:  cpu time    0.0063: real time    0.0063
    CHARGE:  cpu time    0.0171: real time    0.0171
    MIXING:  cpu time    0.0002: real time    0.0002
    --------------------------------------------
      LOOP:  cpu time    0.8192: real time    0.8192

 eigenvalue-minimisations  : 10728
 total energy-change (2. order) : 0.4165383E-01  (-0.2276347E-03)
 number of electron      16.0000214 magnetization 
 augmentation part        8.2002915 magnetization 

 Broyden mixing:
  rms(total) = 0.49601E-01    rms(broyden)= 0.49592E-01
  rms(prec ) = 0.61479E-01
  weight for this iteration     100.00

 eigenvalues of (default mixing * dielectric matrix)
  average eigenvalue GAMMA=   1.5778
  2.7394  0.8827  1.1113

 Free energy of the ion-electron system (eV)
  ---------------------------------------------------
  alpha Z        PSCENC =       162.10058525
  Ewald energy   TEWEN  =     -1301.76417951
  -Hartree energ DENC   =      -149.79771641
  -exchange      EXHF   =         0.00000000
  -V(xc)+E(xc)   XCENC  =         8.18156780
  PAW double counting   =      1658.58878835    -1677.33940934
  entropy T*S    EENTRO =         0.00077291
  eigenvalues    EBANDS =        96.08539476
  atomic energy  EATOM  =      1188.57490811
  Solvation  Ediel_sol  =         0.00000000
  ---------------------------------------------------
  free energy    TOTEN  =       -15.36928806 eV

  energy without entropy =      -15.37006098  energy(sigma->0) =      -15.36954570


--------------------------------------------------------------------------------------------------------




--------------------------------------- Iteration      1(   9)  ---------------------------------------


    POTLOK:  cpu time    0.0028: real time    0.0028
    SETDIJ:  cpu time    0.0022: real time    0.0022
     EDDAV:  cpu time    0.7554: real time    0.7555
       DOS:  cpu time    0.0062: real time    0.0062
    CHARGE:  cpu time    0.0169: real time    0.0169
    MIXING:  cpu time    0.0002: real time    0.0002
    --------------------------------------------
      LOOP:  cpu time    0.7838: real time    0.7838

 eigenvalue-minimisations  : 10208
 total energy-change (2. order) : 0.3414504E-02  (-0.5021669E-04)
 number of electron      16.0000214 magnetization 
 augmentation part        8.2057116 magnetization 

 Broyden mixing:
  rms(total) = 0.79051E-02    rms(broyden)= 0.78982E-02
  rms(prec ) = 0.11085E-01
  weight for this iteration     100.00

 eigenvalues of (default mixing * dielectric matrix)
  average eigenvalue GAMMA=   1.6227
  2.7278  1.8905  0.8941  0.9783

 Free energy of the ion-electron system (eV)
  ---------------------------------------------------
  alpha Z        PSCENC =       162.10058525
  Ewald energy   TEWEN  =     -1301.76417951
  -Hartree energ DENC   =      -148.66662496
  -exchange      EXHF   =         0.00000000
  -V(xc)+E(xc)   XCENC  =         8.13809946
  PAW double counting   =      1735.38222480    -1755.26006570
  entropy T*S    EENTRO =         0.00076820
  eigenvalues    EBANDS =        96.12841079
  atomic energy  EATOM  =      1188.57490811
  Solvation  Ediel_sol  =         0.00000000
  ---------------------------------------------------
  free energy    TOTEN  =       -15.36587356 eV

  energy without entropy =      -15.36664176  energy(sigma->0) =      -15.36612963


--------------------------------------------------------------------------------------------------------




--------------------------------------- Iteration      1(  10)  ---------------------------------------


    POTLOK:  cpu time    0.0028: real time    0.0028
    SETDIJ:  cpu time    0.0021: real time    0.0021
     EDDAV:  cpu time    0.6504: real time    0.6505
       DOS:  cpu time    0.0066: real time    0.0066
    CHARGE:  cpu time    0.0171: real time    0.0171
    MIXING:  cpu time    0.0002: real time    0.0002
    --------------------------------------------
      LOOP:  cpu time    0.6793: real time    0.6793

 eigenvalue-minimisations  :  8520
 total energy-change (2. order) : 0.5933676E-04  (-0.1336935E-05)
 number of electron      16.0000214 magnetization 
 augmentation part        8.2051549 magnetization 

 Broyden mixing:
  rms(total) = 0.27054E-02    rms(broyden)= 0.27047E-02
  rms(prec ) = 0.38324E-02
  weight for this iteration     100.00

 eigenvalues of (default mixing * dielectric matrix)
  average eigenvalue GAMMA=   1.6712
  2.6573  2.4333  0.8903  1.0059  1.3694

 Free energy of the ion-electron system (eV)
  ---------------------------------------------------
  alpha Z        PSCENC =       162.10058525
  Ewald energy   TEWEN  =     -1301.76417951
  -Hartree energ DENC   =      -148.80389144
  -exchange      EXHF   =         0.00000000
  -V(xc)+E(xc)   XCENC  =         8.14487893
  PAW double counting   =      1734.05659518    -1753.79576035
  entropy T*S    EENTRO =         0.00076712
  eigenvalues    EBANDS =        96.12028248
  atomic energy  EATOM  =      1188.57490811
  Solvation  Ediel_sol  =         0.00000000
  ---------------------------------------------------
  free energy    TOTEN  =       -15.36581422 eV

  energy without entropy =      -15.36658134  energy(sigma->0) =      -15.36606993


--------------------------------------------------------------------------------------------------------




--------------------------------------- Iteration      1(  11)  ---------------------------------------


    POTLOK:  cpu time    0.0028: real time    0.0028
    SETDIJ:  cpu time    0.0022: real time    0.0022
     EDDAV:  cpu time    0.6563: real time    0.6563
       DOS:  cpu time    0.0065: real time    0.0064
    CHARGE:  cpu time    0.0170: real time    0.0170
    MIXING:  cpu time    0.0002: real time    0.0002
    --------------------------------------------
      LOOP:  cpu time    0.6850: real time    0.6850

 eigenvalue-minimisations  :  8528
 total energy-change (2. order) : 0.3565154E-04  (-0.4306653E-07)
 number of electron      16.0000214 magnetization 
 augmentation part        8.2049567 magnetization 

 Broyden mixing:
  rms(total) = 0.23506E-03    rms(broyden)= 0.23495E-03
  rms(prec ) = 0.42174E-03
  weight for this iteration     100.00

 eigenvalues of (default mixing * dielectric matrix)
  average eigenvalue GAMMA=   1.5889
  2.5796  2.5796  0.8913  1.0049  1.0049  1.4730

 Free energy of the ion-electron system (eV)
  ---------------------------------------------------
  alpha Z        PSCENC =       162.10058525
  Ewald energy   TEWEN  =     -1301.76417951
  -Hartree energ DENC   =      -148.87224267
  -exchange      EXHF   =         0.00000000
  -V(xc)+E(xc)   XCENC  =         8.14799127
  PAW double counting   =      1732.30085407    -1751.96866905
  entropy T*S    EENTRO =         0.00076734
  eigenvalues    EBANDS =        96.11420661
  atomic energy  EATOM  =      1188.57490811
  Solvation  Ediel_sol  =         0.00000000
  ---------------------------------------------------
  free energy    TOTEN  =       -15.36577857 eV

  energy without entropy =      -15.36654592  energy(sigma->0) =      -15.36603435


--------------------------------------------------------------------------------------------------------




--------------------------------------- Iteration      1(  12)  ---------------------------------------


    POTLOK:  cpu time    0.0030: real time    0.0030
    SETDIJ:  cpu time    0.0021: real time    0.0021
     EDDAV:  cpu time    0.5345: real time    0.5345
       DOS:  cpu time    0.0063: real time    0.0063
    CHARGE:  cpu time    0.0173: real time    0.0173
    MIXING:  cpu time    0.0002: real time    0.0002
    --------------------------------------------
      LOOP:  cpu time    0.5635: real time    0.5635

 eigenvalue-minimisations  :  6376
 total energy-change (2. order) : 0.1397049E-05  (-0.8274838E-08)
 number of electron      16.0000214 magnetization 
 augmentation part        8.2048939 magnetization 

 Broyden mixing:
  rms(total) = 0.12046E-03    rms(broyden)= 0.12032E-03
  rms(prec ) = 0.13448E-03
  weight for this iteration     100.00

 eigenvalues of (default mixing * dielectric matrix)
  average eigenvalue GAMMA=   1.6147
  2.5573  2.5573  1.9017  0.8922  0.9586  1.0133  1.4227

 Free energy of the ion-electron system (eV)
  ---------------------------------------------------
  alpha Z        PSCENC =       162.10058525
  Ewald energy   TEWEN  =     -1301.76417951
  -Hartree energ DENC   =      -148.88244119
  -exchange      EXHF   =         0.00000000
  -V(xc)+E(xc)   XCENC  =         8.14844250
  PAW double counting   =      1732.06945518    -1751.72781341
  entropy T*S    EENTRO =         0.00076742
  eigenvalues    EBANDS =        96.11449846
  atomic energy  EATOM  =      1188.57490811
  Solvation  Ediel_sol  =         0.00000000
  ---------------------------------------------------
  free energy    TOTEN  =       -15.36577718 eV

  energy without entropy =      -15.36654460  energy(sigma->0) =      -15.36603298


--------------------------------------------------------------------------------------------------------




--------------------------------------- Iteration      1(  13)  ---------------------------------------


    POTLOK:  cpu time    0.0029: real time    0.0029
    SETDIJ:  cpu time    0.0022: real time    0.0022
     EDDAV:  cpu time    0.4716: real time    0.4716
       DOS:  cpu time    0.0063: real time    0.0063
    CHARGE:  cpu time    0.0174: real time    0.0174
    MIXING:  cpu time    0.0003: real time    0.0003
    --------------------------------------------
      LOOP:  cpu time    0.5007: real time    0.5007

 eigenvalue-minimisations  :  5144
 total energy-change (2. order) :-0.1414360E-05  (-0.7468637E-09)
 number of electron      16.0000214 magnetization 
 augmentation part        8.2048926 magnetization 

 Broyden mixing:
  rms(total) = 0.25588E-04    rms(broyden)= 0.25579E-04
  rms(prec ) = 0.30511E-04
  weight for this iteration     100.00

 eigenvalues of (default mixing * dielectric matrix)
  average eigenvalue GAMMA=   1.5904
  2.5496  2.5496  2.1328  1.4458  0.8913  1.0101  1.0720  1.0720

 Free energy of the ion-electron system (eV)
  ---------------------------------------------------
  alpha Z        PSCENC =       162.10058525
  Ewald energy   TEWEN  =     -1301.76417951
  -Hartree energ DENC   =      -148.88095558
  -exchange      EXHF   =         0.00000000
  -V(xc)+E(xc)   XCENC  =         8.14836792
  PAW double counting   =      1732.14804548    -1751.80814928
  entropy T*S    EENTRO =         0.00076743
  eigenvalues    EBANDS =        96.11483159
  atomic energy  EATOM  =      1188.57490811
  Solvation  Ediel_sol  =         0.00000000
  ---------------------------------------------------
  free energy    TOTEN  =       -15.36577859 eV

  energy without entropy =      -15.36654601  energy(sigma->0) =      -15.36603440


--------------------------------------------------------------------------------------------------------




--------------------------------------- Iteration      1(  14)  ---------------------------------------


    POTLOK:  cpu time    0.0032: real time    0.0032
    SETDIJ:  cpu time    0.0022: real time    0.0021
     EDDAV:  cpu time    0.4456: real time    0.4456
       DOS:  cpu time    0.0065: real time    0.0065
    --------------------------------------------
      LOOP:  cpu time    0.4573: real time    0.4574

 eigenvalue-minimisations  :  4712
 total energy-change (2. order) :-0.2394961E-06  (-0.2271135E-10)
 number of electron      16.0000214 magnetization 
 augmentation part        8.2048926 magnetization 

 Free energy of the ion-electron system (eV)
  ---------------------------------------------------
  alpha Z        PSCENC =       162.10058525
  Ewald energy   TEWEN  =     -1301.76417951
  -Hartree energ DENC   =      -148.88054946
  -exchange      EXHF   =         0.00000000
  -V(xc)+E(xc)   XCENC  =         8.14834721
  PAW double counting   =      1732.17167334    -1751.83217598
  entropy T*S    EENTRO =         0.00076743
  eigenvalues    EBANDS =        96.11484477
  atomic energy  EATOM  =      1188.57490811
  Solvation  Ediel_sol  =         0.00000000
  ---------------------------------------------------
  free energy    TOTEN  =       -15.36577883 eV

  energy without entropy =      -15.36654625  energy(sigma->0) =      -15.36603464


--------------------------------------------------------------------------------------------------------




 average (electrostatic) potential at core
  the test charge radii are     1.0103
  (the norm of the test charge is              1.0000)
       1 -40.6304       2 -40.6305
 
 
 
 E-fermi :   9.1071     XC(G=0): -14.8626     alpha+bet :-18.1775

 Fermi energy:         9.1071335234

 k-point     1 :       0.0000    0.0000    0.0000
  band No.  band energies     occupation 
      1      -0.8169      2.00000
      2       3.0441      2.00000
      3       6.2886      2.00000
      4       7.0689      2.00000
      5       7.0689      2.00000
      6       7.4784      2.00000
      7       7.4785      2.00000
      8       8.3094      2.00000
      9       8.6987      2.01391
     10       8.6987      2.01391
     11      10.0822     -0.00000
     12      10.0822     -0.00000
     13      18.3050      0.00000
     14      34.0810      0.00000
     15      34.5414      0.00000
     16      37.5593      0.00000
     17      41.4808      0.00000
     18      41.4808      0.00000
     19      42.1570      0.00000
     20      42.1570      0.00000
     21      43.4723      0.00000
     22      44.2418      0.00000
     23      44.2418      0.00000
     24      45.3487      0.00000
     25      48.9424      0.00000
     26      48.9424      0.00000
     27      50.3251      0.00000
     28      54.0998      0.00000
     29      54.0998      0.00000
     30      55.5672      0.00000
     31      55.5673      0.00000
     32      59.0072      0.00000
     33      65.2689      0.00000
     34      66.2289      0.00000
     35      66.2289      0.00000
     36      66.6254      0.00000
     37      67.5185      0.00000
     38      70.4953      0.00000
     39      70.4954      0.00000
     40      73.6928      0.00000

 k-point     2 :       0.0909    0.0000    0.0000
  band No.  band energies     occupation 
      1      -0.4356      2.00000
      2       3.3351      2.00000
      3       6.2902      2.00000
      4       6.9942      2.00000
      5       7.2500      2.00000
      6       7.3123      2.00000
      7       7.3301      2.00000
      8       7.7046      2.00000
      9       8.5048      2.00018
     10       8.5490      2.00057
     11      10.1277     -0.00000
     12      11.4202     -0.00000
     13      18.3032      0.00000
     14      33.1964      0.00000
     15      34.9236      0.00000
     16      36.2846      0.00000
     17      38.2842      0.00000
     18      39.8509      0.00000
     19      40.1939      0.00000
     20      43.0448      0.00000
     21      43.7932      0.00000
     22      45.3201      0.00000
     23      45.5489      0.00000
     24      45.9780      0.00000
     25      50.0514      0.00000
     26      50.1591      0.00000
     27      51.2253      0.00000
     28      51.4485      0.00000
     29      54.5162      0.00000
     30      57.3476      0.00000
     31      57.8838      0.00000
     32      60.2059      0.00000
     33      64.6274      0.00000
     34      65.0021      0.00000
     35      65.4154      0.00000
     36      66.4924      0.00000
     37      66.8324      0.00000
     38      70.6680      0.00000
     39      72.6618      0.00000
     40      73.6920      0.00000

 k-point     3 :       0.1818   -0.0000    0.0000
  band No.  band energies     occupation 
      1       0.6262      2.00000
      2       3.9972      2.00000
      3       5.8905      2.00000
      4       6.0494      2.00000
      5       6.7723      2.00000
      6       7.5101      2.00000
      7       8.0039      2.00000
      8       8.0406      2.00000
      9       8.2000      2.00000
     10       8.3416      2.00000
     11      10.2038     -0.00000
     12      13.5673     -0.00000
     13      18.3691      0.00000
     14      29.7790      0.00000
     15      34.9665      0.00000
     16      35.1287      0.00000
     17      35.1463      0.00000
     18      35.9823      0.00000
     19      41.1346      0.00000
     20      42.3039      0.00000
     21      42.9868      0.00000
     22      43.0640      0.00000
     23      46.6687      0.00000
     24      48.0898      0.00000
     25      50.7858      0.00000
     26      51.3587      0.00000
     27      52.7695      0.00000
     28      55.2221      0.00000
     29      58.3583      0.00000
     30      59.5926      0.00000
     31      60.5698      0.00000
     32      62.1607      0.00000
     33      63.3186      0.00000
     34      63.8339      0.00000
     35      64.3402      0.00000
     36      64.7501      0.00000
     37      68.3157      0.00000
     38      71.3486      0.00000
     39      73.5533      0.00000
     40      73.7430      0.00000

 k-point     4 :       0.2727    0.0000    0.0000
  band No.  band energies     occupation 
      1       2.0606      2.00000
      2       4.2126      2.00000
      3       4.8059      2.00000
      4       6.0410      2.00000
      5       6.5855      2.00000
      6       7.4666      2.00000
      7       7.8064      2.00000
      8       8.4949      2.00013
      9       8.9858      1.84585
     10       9.2346      0.12772
     11      10.2460     -0.00000
     12      15.9318      0.00000
     13      18.5222      0.00000
     14      25.6555      0.00000
     15      31.3835      0.00000
     16      32.3894      0.00000
     17      33.4969      0.00000
     18      35.8550      0.00000
     19      39.7593      0.00000
     20      42.5063      0.00000
     21      42.7492      0.00000
     22      43.1938      0.00000
     23      44.1833      0.00000
     24      47.9411      0.00000
     25      54.2541      0.00000
     26      55.7886      0.00000
     27      56.5092      0.00000
     28      58.1624      0.00000
     29      59.0377      0.00000
     30      60.1183      0.00000
     31      61.9202      0.00000
     32      62.8585      0.00000
     33      63.6625      0.00000
     34      63.6813      0.00000
     35      64.6851      0.00000
     36      67.9047      0.00000
     37      68.4701      0.00000
     38      71.9810      0.00000
     39      72.9548      0.00000
     40      73.6435      0.00000

 k-point     5 :       0.3636   -0.0000    0.0000
  band No.  band energies     occupation 
      1       3.1464      2.00000
      2       3.8539      2.00000
      3       4.0647      2.00000
      4       6.3369      2.00000
      5       6.9673      2.00000
      6       7.1175      2.00000
      7       7.4862      2.00000
      8       9.9831     -0.00000
      9      10.0797     -0.00000
     10      10.1412     -0.00000
     11      10.2558     -0.00000
     12      18.2280      0.00000
     13      18.4115      0.00000
     14      22.6927      0.00000
     15      27.9710      0.00000
     16      30.2789      0.00000
     17      30.7843      0.00000
     18      34.9545      0.00000
     19      38.5606      0.00000
     20      41.9273      0.00000
     21      42.3074      0.00000
     22      44.2933      0.00000
     23      44.8746      0.00000
     24      48.0218      0.00000
     25      55.8865      0.00000
     26      57.3070      0.00000
     27      57.7395      0.00000
     28      61.0428      0.00000
     29      61.1483      0.00000
     30      61.3695      0.00000
     31      62.6566      0.00000
     32      64.0197      0.00000
     33      64.6617      0.00000
     34      65.4591      0.00000
     35      66.0467      0.00000
     36      67.8324      0.00000
     37      72.0103      0.00000
     38      72.9524      0.00000
     39      72.9727      0.00000
     40      73.3557      0.00000

 k-point     6 :       0.4545   -0.0000    0.0000
  band No.  band energies     occupation 
      1       3.3212      2.00000
      2       3.6902      2.00000
      3       3.6984      2.00000
      4       6.6811      2.00000
      5       7.0447      2.00000
      6       7.3048      2.00000
      7       7.4204      2.00000
      8      10.2518     -0.00000
      9      10.6050     -0.00000
     10      10.7541     -0.00000
     11      12.1261     -0.00000
     12      16.1331      0.00000
     13      20.7114      0.00000
     14      22.6635      0.00000
     15      25.2432      0.00000
     16      28.0494      0.00000
     17      29.0823      0.00000
     18      34.2653      0.00000
     19      38.1622      0.00000
     20      40.6272      0.00000
     21      42.1476      0.00000
     22      45.3482      0.00000
     23      47.1886      0.00000
     24      47.8379      0.00000
     25      52.5651      0.00000
     26      58.5027      0.00000
     27      58.9420      0.00000
     28      62.1508      0.00000
     29      62.2216      0.00000
     30      63.4941      0.00000
     31      64.2890      0.00000
     32      64.5927      0.00000
     33      65.8290      0.00000
     34      68.0122      0.00000
     35      68.3013      0.00000
     36      70.6706      0.00000
     37      71.3055      0.00000
     38      71.4201      0.00000
     39      74.2519      0.00000
     40      74.5004      0.00000

 k-point     7 :       0.0909    0.0909    0.0000
  band No.  band energies     occupation 
      1       0.2906      2.00000
      2       3.8404      2.00000
      3       6.0857      2.00000
      4       6.2535      2.00000
      5       7.0529      2.00000
      6       7.0949      2.00000
      7       7.8200      2.00000
      8       7.9861      2.00000
      9       8.2038      2.00000
     10       8.5095      2.00020
     11      10.1451     -0.00000
     12      12.9755     -0.00000
     13      18.3485      0.00000
     14      31.3874      0.00000
     15      33.2276      0.00000
     16      35.4774      0.00000
     17      36.7972      0.00000
     18      38.9398      0.00000
     19      39.1172      0.00000
     20      41.2518      0.00000
     21      42.6272      0.00000
     22      46.9320      0.00000
     23      47.6224      0.00000
     24      48.6519      0.00000
     25      49.0071      0.00000
     26      49.7396      0.00000
     27      49.9349      0.00000
     28      55.6150      0.00000
     29      58.0778      0.00000
     30      59.0158      0.00000
     31      59.2274      0.00000
     32      61.7647      0.00000
     33      62.6210      0.00000
     34      64.5424      0.00000
     35      64.9961      0.00000
     36      66.0519      0.00000
     37      66.5290      0.00000
     38      71.7706      0.00000
     39      73.3879      0.00000
     40      73.8735      0.00000

 k-point     8 :       0.1818    0.0909    0.0000
  band No.  band energies     occupation 
      1       1.5805      2.00000
      2       4.4386      2.00000
      3       5.2053      2.00000
      4       5.7152      2.00000
      5       6.6894      2.00000
      6       7.4240      2.00000
      7       7.6639      2.00000
      8       8.1806      2.00000
      9       8.7251      2.02114
     10       9.1339      0.77550
     11      10.1472     -0.00000
     12      15.1163      0.00000
     13      18.5148      0.00000
     14      27.7515      0.00000
     15      30.6277      0.00000
     16      33.2074      0.00000
     17      35.4838      0.00000
     18      36.6470      0.00000
     19      40.0660      0.00000
     20      40.3282      0.00000
     21      41.7160      0.00000
     22      46.4242      0.00000
     23      46.8627      0.00000
     24      48.2850      0.00000
     25      51.2311      0.00000
     26      51.8842      0.00000
     27      54.1041      0.00000
     28      58.7897      0.00000
     29      60.3298      0.00000
     30      60.4107      0.00000
     31      61.3205      0.00000
     32      62.6168      0.00000
     33      62.9506      0.00000
     34      64.0358      0.00000
     35      65.3791      0.00000
     36      65.7062      0.00000
[...]
     17      30.7155      0.00000
     18      31.7254      0.00000
     19      37.3855      0.00000
     20      38.0895      0.00000
     21      42.3668      0.00000
     22      42.9251      0.00000
     23      48.0962      0.00000
     24      49.1447      0.00000
     25      55.2259      0.00000
     26      57.0147      0.00000
     27      59.3645      0.00000
     28      60.2265      0.00000
     29      62.1503      0.00000
     30      63.2022      0.00000
     31      64.0802      0.00000
     32      64.1459      0.00000
     33      66.4016      0.00000
     34      66.8775      0.00000
     35      69.4614      0.00000
     36      69.8289      0.00000
     37      70.0947      0.00000
     38      71.5994      0.00000
     39      74.5147      0.00000
     40      75.0509      0.00000

 k-point    91 :       0.4545    0.0909    0.4545
  band No.  band energies     occupation 
      1       3.1976      2.00000
      2       3.3794      2.00000
      3       4.8125      2.00000
      4       4.9343      2.00000
      5       7.7610      2.00000
      6       8.2699      2.00000
      7       9.1235      0.86233
      8       9.5091     -0.01548
      9      10.3132     -0.00000
     10      10.3407     -0.00000
     11      13.0782     -0.00000
     12      13.6694     -0.00000
     13      20.6805      0.00000
     14      20.7447      0.00000
     15      29.2629      0.00000
     16      29.8729      0.00000
     17      31.1921      0.00000
     18      31.6175      0.00000
     19      37.1132      0.00000
     20      37.3264      0.00000
     21      41.6680      0.00000
     22      41.7613      0.00000
     23      48.2588      0.00000
     24      49.3452      0.00000
     25      55.5180      0.00000
     26      57.3274      0.00000
     27      61.6261      0.00000
     28      62.4384      0.00000
     29      62.7936      0.00000
     30      63.1386      0.00000
     31      63.2266      0.00000
     32      63.6461      0.00000
     33      67.3106      0.00000
     34      68.2592      0.00000
     35      69.5300      0.00000
     36      70.2506      0.00000
     37      72.0898      0.00000
     38      72.1184      0.00000
     39      75.6473      0.00000
     40      75.7944      0.00000

 k-point    92 :       0.1818    0.1818    0.4545
  band No.  band energies     occupation 
      1       3.5730      2.00000
      2       3.7973      2.00000
      3       5.6452      2.00000
      4       5.6643      2.00000
      5       6.2265      2.00000
      6       6.2625      2.00000
      7       8.1903      2.00000
      8       8.4943      2.00013
      9      10.0376     -0.00000
     10      10.2147     -0.00000
     11      10.8487     -0.00000
     12      11.4930     -0.00000
     13      27.1346      0.00000
     14      27.2668      0.00000
     15      27.7285      0.00000
     16      28.9254      0.00000
     17      29.4479      0.00000
     18      30.7058      0.00000
     19      41.4730      0.00000
     20      42.6399      0.00000
     21      43.5202      0.00000
     22      44.8107      0.00000
     23      46.9587      0.00000
     24      47.1245      0.00000
     25      54.1275      0.00000
     26      54.6792      0.00000
     27      57.6790      0.00000
     28      58.5061      0.00000
     29      60.7315      0.00000
     30      61.9213      0.00000
     31      62.9202      0.00000
     32      63.1296      0.00000
     33      63.9912      0.00000
     34      63.9933      0.00000
     35      65.8630      0.00000
     36      66.1293      0.00000
     37      69.9466      0.00000
     38      72.2067      0.00000
     39      72.6678      0.00000
     40      73.1179      0.00000

 k-point    93 :       0.2727    0.1818    0.4545
  band No.  band energies     occupation 
      1       3.7838      2.00000
      2       3.9036      2.00000
      3       5.3335      2.00000
      4       5.5821      2.00000
      5       6.6502      2.00000
      6       6.8575      2.00000
      7       8.0895      2.00000
      8       8.3777      2.00000
      9      10.1702     -0.00000
     10      10.5016     -0.00000
     11      12.6607     -0.00000
     12      13.2560     -0.00000
     13      23.8178      0.00000
     14      24.4171      0.00000
     15      26.8068      0.00000
     16      27.6138      0.00000
     17      29.7744      0.00000
     18      31.6257      0.00000
     19      39.3277      0.00000
     20      40.8824      0.00000
     21      42.3971      0.00000
     22      43.9632      0.00000
     23      47.6250      0.00000
     24      48.1838      0.00000
     25      55.6011      0.00000
     26      56.1284      0.00000
     27      58.9380      0.00000
     28      60.6572      0.00000
     29      62.5298      0.00000
     30      63.5514      0.00000
     31      64.0451      0.00000
     32      64.2627      0.00000
     33      65.3612      0.00000
     34      65.4881      0.00000
     35      67.2205      0.00000
     36      67.8422      0.00000
     37      70.0181      0.00000
     38      72.1488      0.00000
     39      73.8875      0.00000
     40      74.5325      0.00000

 k-point    94 :       0.3636    0.1818    0.4545
  band No.  band energies     occupation 
      1       3.7513      2.00000
      2       3.9466      2.00000
      3       5.1684      2.00000
      4       5.4064      2.00000
      5       6.7731      2.00000
      6       7.1943      2.00000
      7       8.5281      2.00033
      8       8.6676      2.00802
      9      10.1314     -0.00000
     10      10.3537     -0.00000
     11      14.5955      0.00000
     12      15.0865      0.00000
     13      21.0991      0.00000
     14      21.4847      0.00000
     15      26.1243      0.00000
     16      26.9206      0.00000
     17      31.3929      0.00000
     18      32.6076      0.00000
     19      37.7718      0.00000
     20      38.8995      0.00000
     21      41.2012      0.00000
     22      42.8722      0.00000
     23      48.5693      0.00000
     24      49.0194      0.00000
     25      58.6706      0.00000
     26      59.1066      0.00000
     27      59.6432      0.00000
     28      61.1611      0.00000
     29      62.5615      0.00000
     30      63.0105      0.00000
     31      63.1741      0.00000
     32      63.8736      0.00000
     33      66.2862      0.00000
     34      66.3612      0.00000
     35      68.9316      0.00000
     36      69.7261      0.00000
     37      71.5017      0.00000
     38      72.0484      0.00000
     39      73.1527      0.00000
     40      74.2904      0.00000

 k-point    95 :       0.2727    0.2727    0.4545
  band No.  band energies     occupation 
      1       4.2218      2.00000
      2       4.3191      2.00000
      3       5.4637      2.00000
      4       5.7236      2.00000
      5       6.2574      2.00000
      6       6.5295      2.00000
      7       7.9695      2.00000
      8       8.2124      2.00000
      9      10.1508     -0.00000
     10      10.3918     -0.00000
     11      15.1381      0.00000
     12      15.7089      0.00000
     13      22.0495      0.00000
     14      22.5439      0.00000
     15      24.3067      0.00000
     16      24.7693      0.00000
     17      31.6478      0.00000
     18      33.3913      0.00000
     19      37.7319      0.00000
     20      39.2776      0.00000
     21      40.9753      0.00000
     22      42.2448      0.00000
     23      50.6205      0.00000
     24      51.0857      0.00000
     25      55.9785      0.00000
     26      56.0019      0.00000
     27      61.7072      0.00000
     28      62.5466      0.00000
     29      62.9580      0.00000
     30      63.2661      0.00000
     31      63.9964      0.00000
     32      64.1848      0.00000
     33      64.8706      0.00000
     34      65.7113      0.00000
     35      69.0984      0.00000
     36      69.1399      0.00000
     37      71.2412      0.00000
     38      71.5408      0.00000
     39      71.8870      0.00000
     40      72.7367      0.00000

 k-point    96 :       0.3636    0.2727    0.4545
  band No.  band energies     occupation 
      1       4.4694      2.00000
      2       4.6410      2.00000
      3       5.3521      2.00000
      4       5.4420      2.00000
      5       6.2904      2.00000
      6       6.4463      2.00000
      7       8.0425      2.00000
      8       8.2234      2.00000
      9      10.1222     -0.00000
     10      10.2102     -0.00000
     11      17.1446      0.00000
     12      17.3171      0.00000
     13      20.2513      0.00000
     14      20.6570      0.00000
     15      23.6454      0.00000
     16      24.0957      0.00000
     17      33.3635      0.00000
     18      34.3931      0.00000
     19      36.8860      0.00000
     20      37.0156      0.00000
     21      40.7697      0.00000
     22      41.6530      0.00000
     23      52.0608      0.00000
     24      52.7299      0.00000
     25      56.8444      0.00000
     26      57.2714      0.00000
     27      60.6267      0.00000
     28      60.9823      0.00000
     29      63.0233      0.00000
     30      63.4865      0.00000
     31      64.1597      0.00000
     32      64.2886      0.00000
     33      65.7204      0.00000
     34      66.1421      0.00000
     35      67.3127      0.00000
     36      68.6508      0.00000
     37      70.5733      0.00000
     38      72.5757      0.00000
     39      74.0859      0.00000
     40      74.6219      0.00000


--------------------------------------------------------------------------------------------------------


 soft charge-density along one line, spin component           1
         0         1         2         3         4         5         6         7         8         9
x     7.7951    0.0000    0.0525   -0.0909   -0.0479   -0.0830    0.0224    0.0000    0.0008   -0.0014
x     0.0000    0.0000
y     7.7951    0.0000    0.0525    0.0909   -0.0479    0.0830    0.0224   -0.0000    0.0008    0.0014
y     0.0000    0.0000
z     7.7951    0.0000    0.0000    0.0000    0.2971    0.0000    0.0000    0.0000   -0.1325   -0.0000
z     0.0000    0.0000    0.0238   -0.0000    0.0000    0.0000    0.0000    0.0000
 total charge-density along one line
x    16.0000    0.0000    1.3701   -2.3732    0.2376    0.4116   -0.0014   -0.0000    0.0024   -0.0041
x    -0.0005   -0.0009    0.0009   -0.0000   -0.0001    0.0002    0.0001    0.0001   -0.0002    0.0000
x     0.0000    0.0000
y    16.0000    0.0000    1.3701    2.3732    0.2376   -0.4116   -0.0014    0.0000    0.0024    0.0041
y    -0.0005    0.0009    0.0009    0.0000   -0.0001   -0.0002    0.0001   -0.0001   -0.0002   -0.0000
y     0.0000   -0.0000
z    16.0000    0.0000    0.0000    0.0000    5.6453    0.0000   -0.0000   -0.0000    1.0919    0.0000
z     0.0000   -0.0000    0.0112   -0.0000    0.0000   -0.0000    0.0056    0.0000   -0.0000    0.0000
z    -0.0017   -0.0000   -0.0000    0.0000    0.0008    0.0000   -0.0000    0.0000   -0.0005    0.0000
z     0.0000    0.0000    0.0004    0.0000
 
 pseudopotential strength for first ion, spin component:           1
 -3.155  -0.000  -0.000  -0.000  -0.000  -3.756  -0.000  -0.000
 -0.000  -3.134  -0.000  -0.000   0.000  -0.000  -3.734  -0.000
 -0.000  -0.000  -3.144  -0.000  -0.000  -0.000  -0.000  -3.744
 -0.000  -0.000  -0.000  -3.134   0.000  -0.000  -0.000  -0.000
 -0.000   0.000  -0.000   0.000  -3.155  -0.000   0.000  -0.000
 -3.756  -0.000  -0.000  -0.000  -0.000  -4.312  -0.000  -0.000
 -0.000  -3.734  -0.000  -0.000   0.000  -0.000  -4.291  -0.000
 -0.000  -0.000  -3.744  -0.000  -0.000  -0.000  -0.000  -4.301
 -0.000  -0.000  -0.000  -3.734   0.000  -0.000  -0.000  -0.000
 -0.000   0.000  -0.000   0.000  -3.755  -0.000   0.000  -0.000
  0.000   0.000  -0.000  -0.000  -0.000   0.000   0.000  -0.001
  0.000   0.000   0.000  -0.000  -0.000   0.000   0.000  -0.000
 -0.000   0.000  -0.000  -0.000  -0.001  -0.000   0.000  -0.000
 -0.000  -0.000   0.000   0.000  -0.000  -0.000  -0.000   0.000
 -0.001  -0.000   0.000   0.000  -0.000  -0.001  -0.000   0.000
 -0.000   0.000  -0.000  -0.000  -0.001  -0.000   0.000  -0.000
 -0.000  -0.000   0.000   0.000  -0.000  -0.000  -0.000   0.000
 -0.001  -0.000   0.000   0.000  -0.000  -0.001  -0.000   0.000
 total augmentation occupancy for first ion, spin component:           1
  2.053   0.000   0.000   0.000  -0.000  -1.785   0.000  -0.000   0.000   0.000  -0.000  -0.000   0.000   0.000   0.043  -0.000
  0.000   2.522  -0.000  -0.000   0.000   0.000  -2.004   0.000   0.000   0.000  -0.000   0.000  -0.000  -0.000   0.000   0.000
  0.000  -0.000   1.648   0.000  -0.000  -0.000  -0.000  -1.435   0.000   0.000   0.028  -0.010  -0.000   0.000  -0.000   0.000
  0.000  -0.000   0.000   2.522  -0.000   0.000   0.000  -0.000  -2.004   0.000   0.000   0.000   0.000  -0.000   0.000   0.000
  0.000   0.000  -0.000  -0.000   2.053   0.000   0.000   0.000   0.000  -1.785  -0.000   0.000   0.043  -0.000  -0.000  -0.001
 -1.785   0.000  -0.000   0.000   0.000   2.909   0.000   0.000  -0.000  -0.000  -0.000   0.000  -0.000   0.000  -0.058   0.000
  0.000  -2.004  -0.000   0.000   0.000  -0.000   2.843   0.000  -0.000  -0.000   0.000   0.000   0.000   0.000   0.000  -0.000
 -0.000   0.000  -1.435   0.000   0.000   0.000   0.000   2.599   0.000  -0.000  -0.096   0.001   0.000   0.000  -0.000  -0.000
  0.000   0.000   0.000  -2.004   0.000   0.000  -0.000  -0.000   2.843   0.000  -0.000  -0.000   0.000  -0.000  -0.000   0.000
  0.000   0.000   0.000   0.000  -1.785  -0.000   0.000  -0.000   0.000   2.909   0.000  -0.000  -0.058   0.000   0.000   0.002
  0.000   0.000   0.028  -0.000  -0.000  -0.000  -0.000  -0.096  -0.000   0.000   3.252  -0.395   0.000   0.000  -0.000  -0.000
 -0.000  -0.000  -0.010   0.000   0.000   0.000   0.000   0.001  -0.000  -0.000  -0.395   0.054   0.000   0.000   0.000   0.000
  0.000  -0.000  -0.000   0.000   0.043  -0.000  -0.000   0.000   0.000  -0.058   0.000   0.000   0.454   0.000  -0.000  -0.033
  0.000  -0.000   0.000  -0.000  -0.000  -0.000   0.000   0.000   0.000   0.000   0.000   0.000   0.000   0.435  -0.000   0.000
  0.043  -0.000   0.000   0.000  -0.000  -0.058  -0.000  -0.000   0.000   0.000  -0.000   0.000  -0.000   0.000   0.454   0.000
 -0.000   0.000   0.000   0.000  -0.001   0.000   0.000  -0.000   0.000   0.002   0.000   0.000  -0.033   0.000   0.000   0.003
  0.000   0.000   0.000   0.000   0.000   0.000   0.000   0.000  -0.000   0.000   0.000   0.000  -0.000  -0.037   0.000   0.000
 -0.001   0.000   0.000  -0.000   0.000   0.002   0.000   0.000   0.000  -0.000  -0.000   0.000   0.000   0.000  -0.033  -0.000


------------------------ aborting loop because EDIFF is reached ----------------------------------------


    CHARGE:  cpu time    0.0174: real time    0.0174
    FORLOC:  cpu time    0.0002: real time    0.0002
    FORNL :  cpu time    0.0846: real time    0.0846
    STRESS:  cpu time    0.1288: real time    0.1288
    FORCOR:  cpu time    0.0030: real time    0.0030
    FORHAR:  cpu time    0.0006: real time    0.0006
    MIXING:  cpu time    0.0002: real time    0.0002

  FORCE on cell =-STRESS in cart. coord.  units (eV):
  Direction    XX          YY          ZZ          XY          YZ          ZX
  --------------------------------------------------------------------------------------
  Alpha Z   162.10059   162.10059   162.10059
  Ewald    -418.70137  -418.70137  -464.36214     0.00000    -0.00000    -0.00000
  Hartree    54.72164    54.72164    39.43722    -0.00000    -0.00000    -0.00000
  E(xc)     -80.69456   -80.69457   -80.39870     0.00006     0.00000    -0.00000
  Local     110.38412   110.38420   167.37656    -0.00048     0.00000    -0.00000
  n-local   -47.86526   -47.53004   -50.47656    -5.58838     1.49934     1.00850
  augment    74.50909    74.50894    75.17398     0.00048     0.00000    -0.00000
  Kinetic   159.82634   153.39671   153.88167     1.32510    -0.98265     0.14433
  Fock        0.00000     0.00000     0.00000     0.00000     0.00000     0.00000
  -------------------------------------------------------------------------------------
  Total      11.23334    11.23334     2.73262    -0.00000    -0.00000     0.00000
  in kB    1055.30813  1055.30813   256.71399    -0.00000    -0.00000     0.00000
  external pressure =      789.11 kB  Pullay stress =        0.00 kB


 VOLUME and BASIS-vectors are now :
 -----------------------------------------------------------------------------
  energy-cutoff  :      280.00
  volume of cell :       17.05
      direct lattice vectors                 reciprocal lattice vectors
     2.236800000  0.000000000  0.000000000     0.447067239  0.258114391  0.000000000
    -1.118400000  1.937125623  0.000000000     0.000000000  0.516228781  0.000000000
     0.000000000  0.000000000  3.936000000     0.000000000  0.000000000  0.254065041

  length of vectors
     2.236800000  2.236800000  3.936000000     0.516228781  0.516228781  0.254065041


 FORCES acting on ions
    electron-ion (+dipol)            ewald-force                    non-local-force                 convergence-correction
 -----------------------------------------------------------------------------------------------
   0.115E-05 -.585E-06 -.144E-14   0.679E-12 -.403E-12 -.284E-13   -.755E-18 0.142E-17 -.419E-18   -.476E-08 0.275E-08 -.178E-13
   0.542E-06 0.253E-05 0.482E-13   -.677E-12 0.398E-12 0.284E-13   -.208E-17 0.165E-17 -.230E-18   0.476E-08 -.275E-08 0.732E-14
 -----------------------------------------------------------------------------------------------
   0.169E-05 0.195E-05 0.468E-13   0.116E-14 -.451E-14 -.458E-18   -.284E-17 0.307E-17 -.649E-18   0.707E-12 -.398E-12 -.105E-13
 
 
 POSITION                                       TOTAL-FORCE (eV/Angst)
 -----------------------------------------------------------------------------------
      0.00000      0.00000      0.00000        -0.000000     -0.000000     -0.000000
      0.00000      1.29142      1.96800         0.000000      0.000000      0.000000
 -----------------------------------------------------------------------------------
    total drift:                                0.000002      0.000002      0.000000


--------------------------------------------------------------------------------------------------------



  FREE ENERGIE OF THE ION-ELECTRON SYSTEM (eV)
  ---------------------------------------------------
  free  energy   TOTEN  =       -15.36577883 eV

  energy  without entropy=      -15.36654625  energy(sigma->0) =      -15.36603464
 


--------------------------------------------------------------------------------------------------------


    POTLOK:  cpu time    0.0051: real time    0.0051


--------------------------------------------------------------------------------------------------------


 writing wavefunctions
     LOOP+:  cpu time    9.8943: real time    9.9283
    4ORBIT:  cpu time    0.0000: real time    0.0000

 total amount of memory used by VASP MPI-rank0    47420. kBytes
=======================================================================

   base      :      30000. kBytes
   nonl-proj :       2660. kBytes
   grid      :        721. kBytes
   one-center:         31. kBytes
   wavefun   :      14008. kBytes
 
  
  
 General timing and accounting informations for this job:
 ========================================================
  
                  Total CPU time used (sec):       10.059
                            User time (sec):       10.023
                          System time (sec):        0.036
                         Elapsed time (sec):       10.082
  
                   Maximum memory used (kb):       52512.
                   Average memory used (kb):          N/A
  
                          Minor page faults:         6866
                          Major page faults:            0
                 Voluntary context switches:           26
