 vasp.6.2.0 18Jan21 (build Mar 17 2021 09:06:54) complex                        
  
 POSCAR found type information on POSCAR Fe
 POSCAR found :  1 types and       2 ions
 LDA part: xc-table for Pade appr. of Perdew
 POSCAR, INCAR and KPOINTS ok, starting setup
 FFT: planning ...
 WAVECAR not read
 WARNING: chargedensity file is incomplete
 entering main loop
       N       E                     dE             d eps       ncg     rms          rms(c)
DAV:   1     0.602789662655E+02    0.60279E+02   -0.24048E+03  9416   0.337E+02
DAV:   2    -0.140538926135E+02   -0.74333E+02   -0.63418E+02  7960   0.978E+01
DAV:   3    -0.179848003732E+02   -0.39309E+01   -0.37880E+01  9584   0.234E+01
DAV:   4    -0.179973755677E+02   -0.12575E-01   -0.12570E-01  8608   0.138E+00
DAV:   5    -0.179973823798E+02   -0.68121E-05   -0.68116E-05  9360   0.310E-02    0.210E+01
DAV:   6    -0.155192555513E+02    0.24781E+01   -0.12181E+00 11296   0.204E+01    0.200E+00
DAV:   7    -0.154109418899E+02    0.10831E+00   -0.43483E-02  9512   0.257E+00    0.184E+00
DAV:   8    -0.153692880647E+02    0.41654E-01   -0.22763E-03 10728   0.290E-01    0.496E-01
DAV:   9    -0.153658735604E+02    0.34145E-02   -0.50217E-04 10208   0.128E-01    0.791E-02
DAV:  10    -0.153658142236E+02    0.59337E-04   -0.13369E-05  8520   0.193E-02    0.271E-02
DAV:  11    -0.153657785721E+02    0.35652E-04   -0.43067E-07  8528   0.429E-03    0.235E-03
DAV:  12    -0.153657771750E+02    0.13970E-05   -0.82748E-08  6376   0.123E-03    0.120E-03
DAV:  13    -0.153657785894E+02   -0.14144E-05   -0.74686E-09  5144   0.390E-04    0.256E-04
DAV:  14    -0.153657788289E+02   -0.23950E-06   -0.22711E-10  4712   0.819E-05
   1 F= -.15365779E+02 E0= -.15366035E+02  d E =0.767425E-03
 writing wavefunctions
