<?xml version="1.0" encoding="ISO-8859-1"?>
<modeling>
 <generator>
  <i name="program" type="string">vasp </i>
  <i name="version" type="string">6.2.0  </i>
  <i name="subversion" type="string">18Jan21 (build Mar 17 2021 09:06:54) complex                          serial </i>
  <i name="platform" type="string">LinuxIFC </i>
  <i name="date" type="string">2021 09 09 </i>
  <i name="time" type="string">11:58:20 </i>
 </generator>
 <incar>
  <i type="string" name="PREC">normal</i>
  <i type="int" name="ICHARG">     1</i>
  <i type="int" name="IBRION">     1</i>
  <i name="EDIFF">      0.00000100</i>
  <i type="int" name="NSW">     0</i>
  <i type="int" name="ISIF">     2</i>
  <i name="ENCUT">    280.00000000</i>
  <i type="int" name="NBANDS">    40</i>
  <i type="int" name="ISMEAR">     1</i>
  <i name="SIGMA">      0.20000000</i>
  <i type="logical" name="LCHARG"> T  </i>
  <i type="int" name="KPAR">     1</i>
  <i type="int" name="NCORE">     1</i>
  <i type="string" name="GGA">PE</i>
 </incar>
 <primitive_cell>
  <structure name="primitive_cell" >
   <crystal>
    <varray name="basis" >
     <v>       2.23680000       0.00000000       0.00000000 </v>
     <v>      -1.11840000       1.93712562       0.00000000 </v>
     <v>       0.00000000       0.00000000       3.93600000 </v>
    </varray>
    <i name="volume">     17.05454077 </i>
    <varray name="rec_basis" >
     <v>       0.44706724       0.25811439       0.00000000 </v>
     <v>       0.00000000       0.51622878       0.00000000 </v>
     <v>       0.00000000       0.00000000       0.25406504 </v>
    </varray>
   </crystal>
   <varray name="positions" >
    <v>       0.00000000       0.00000000       0.00000000 </v>
    <v>       0.33333333       0.66666667       0.50000000 </v>
   </varray>
  </structure>
  <varray name="primitive_index" >
   <v type="int" >        1 </v>
   <v type="int" >        2 </v>
  </varray>
 </primitive_cell>
 <kpoints>
  <generation param="Monkhorst-Pack">
   <v type="int" name="divisions">      11       11       11 </v>
   <v name="usershift">      0.00000000       0.00000000       0.00000000 </v>
   <v name="genvec1">      0.09090909      -0.00000000       0.00000000 </v>
   <v name="genvec2">      0.00000000       0.09090909       0.00000000 </v>
   <v name="genvec3">      0.00000000       0.00000000       0.09090909 </v>
   <v name="shift">      0.00000000       0.00000000       0.00000000 </v>
  </generation>
  <varray name="kpointlist" >
   <v>       0.00000000       0.00000000       0.00000000 </v>
   <v>       0.09090909       0.00000000       0.00000000 </v>
   <v>       0.18181818      -0.00000000       0.00000000 </v>
   <v>       0.27272727       0.00000000       0.00000000 </v>
   <v>       0.36363636      -0.00000000       0.00000000 </v>
   <v>       0.45454545      -0.00000000       0.00000000 </v>
   <v>       0.09090909       0.09090909       0.00000000 </v>
   <v>       0.18181818       0.09090909       0.00000000 </v>
   <v>       0.27272727       0.09090909       0.00000000 </v>
   <v>       0.36363636       0.09090909       0.00000000 </v>
   <v>       0.45454545       0.09090909       0.00000000 </v>
   <v>       0.18181818       0.18181818       0.00000000 </v>
   <v>       0.27272727       0.18181818       0.00000000 </v>
   <v>       0.36363636       0.18181818       0.00000000 </v>
   <v>       0.27272727       0.27272727       0.00000000 </v>
   <v>       0.36363636       0.27272727       0.00000000 </v>
   <v>       0.00000000       0.00000000       0.09090909 </v>
   <v>       0.09090909       0.00000000       0.09090909 </v>
   <v>       0.18181818      -0.00000000       0.09090909 </v>
   <v>       0.27272727       0.00000000       0.09090909 </v>
   <v>       0.36363636      -0.00000000       0.09090909 </v>
   <v>       0.45454545      -0.00000000       0.09090909 </v>
   <v>       0.09090909       0.09090909       0.09090909 </v>
   <v>       0.18181818       0.09090909       0.09090909 </v>
   <v>       0.27272727       0.09090909       0.09090909 </v>
   <v>       0.36363636       0.09090909       0.09090909 </v>
   <v>       0.45454545       0.09090909       0.09090909 </v>
   <v>       0.18181818       0.18181818       0.09090909 </v>
   <v>       0.27272727       0.18181818       0.09090909 </v>
   <v>       0.36363636       0.18181818       0.09090909 </v>
   <v>       0.27272727       0.27272727       0.09090909 </v>
   <v>       0.36363636       0.27272727       0.09090909 </v>
   <v>       0.00000000       0.00000000       0.18181818 </v>
   <v>       0.09090909       0.00000000       0.18181818 </v>
   <v>       0.18181818      -0.00000000       0.18181818 </v>
   <v>       0.27272727       0.00000000       0.18181818 </v>
   <v>       0.36363636      -0.00000000       0.18181818 </v>
   <v>       0.45454545      -0.00000000       0.18181818 </v>
   <v>       0.09090909       0.09090909       0.18181818 </v>
   <v>       0.18181818       0.09090909       0.18181818 </v>
   <v>       0.27272727       0.09090909       0.18181818 </v>
   <v>       0.36363636       0.09090909       0.18181818 </v>
   <v>       0.45454545       0.09090909       0.18181818 </v>
   <v>       0.18181818       0.18181818       0.18181818 </v>
   <v>       0.27272727       0.18181818       0.18181818 </v>
   <v>       0.36363636       0.18181818       0.18181818 </v>
   <v>       0.27272727       0.27272727       0.18181818 </v>
   <v>       0.36363636       0.27272727       0.18181818 </v>
   <v>       0.00000000       0.00000000       0.27272727 </v>
   <v>       0.09090909       0.00000000       0.27272727 </v>
   <v>       0.18181818      -0.00000000       0.27272727 </v>
   <v>       0.27272727       0.00000000       0.27272727 </v>
   <v>       0.36363636      -0.00000000       0.27272727 </v>
   <v>       0.45454545      -0.00000000       0.27272727 </v>
   <v>       0.09090909       0.09090909       0.27272727 </v>
   <v>       0.18181818       0.09090909       0.27272727 </v>
   <v>       0.27272727       0.09090909       0.27272727 </v>
   <v>       0.36363636       0.09090909       0.27272727 </v>
   <v>       0.45454545       0.09090909       0.27272727 </v>
   <v>       0.18181818       0.18181818       0.27272727 </v>
   <v>       0.27272727       0.18181818       0.27272727 </v>
   <v>       0.36363636       0.18181818       0.27272727 </v>
   <v>       0.27272727       0.27272727       0.27272727 </v>
   <v>       0.36363636       0.27272727       0.27272727 </v>
   <v>       0.00000000       0.00000000       0.36363636 </v>
   <v>       0.09090909       0.00000000       0.36363636 </v>
   <v>       0.18181818      -0.00000000       0.36363636 </v>
   <v>       0.27272727       0.00000000       0.36363636 </v>
   <v>       0.36363636      -0.00000000       0.36363636 </v>
   <v>       0.45454545      -0.00000000       0.36363636 </v>
   <v>       0.09090909       0.09090909       0.36363636 </v>
   <v>       0.18181818       0.09090909       0.36363636 </v>
   <v>       0.27272727       0.09090909       0.36363636 </v>
   <v>       0.36363636       0.09090909       0.36363636 </v>
   <v>       0.45454545       0.09090909       0.36363636 </v>
   <v>       0.18181818       0.18181818       0.36363636 </v>
   <v>       0.27272727       0.18181818       0.36363636 </v>
   <v>       0.36363636       0.18181818       0.36363636 </v>
   <v>       0.27272727       0.27272727       0.36363636 </v>
   <v>       0.36363636       0.27272727       0.36363636 </v>
   <v>       0.00000000       0.00000000       0.45454545 </v>
   <v>       0.09090909       0.00000000       0.45454545 </v>
   <v>       0.18181818      -0.00000000       0.45454545 </v>
   <v>       0.27272727       0.00000000       0.45454545 </v>
   <v>       0.36363636      -0.00000000       0.45454545 </v>
   <v>       0.45454545      -0.00000000       0.45454545 </v>
   <v>       0.09090909       0.09090909       0.45454545 </v>
   <v>       0.18181818       0.09090909       0.45454545 </v>
   <v>       0.27272727       0.09090909       0.45454545 </v>
   <v>       0.36363636       0.09090909       0.45454545 </v>
   <v>       0.45454545       0.09090909       0.45454545 </v>
   <v>       0.18181818       0.18181818       0.45454545 </v>
   <v>       0.27272727       0.18181818       0.45454545 </v>
   <v>       0.36363636       0.18181818       0.45454545 </v>
   <v>       0.27272727       0.27272727       0.45454545 </v>
   <v>       0.36363636       0.27272727       0.45454545 </v>
  </varray>
  <varray name="weights" >
   <v>       0.00075131 </v>
   <v>       0.00450789 </v>
   <v>       0.00450789 </v>
   <v>       0.00450789 </v>
   <v>       0.00450789 </v>
   <v>       0.00450789 </v>
   <v>       0.00450789 </v>
   <v>       0.00901578 </v>
   <v>       0.00901578 </v>
   <v>       0.00901578 </v>
   <v>       0.00450789 </v>
   <v>       0.00450789 </v>
   <v>       0.00901578 </v>
   <v>       0.00901578 </v>
   <v>       0.00450789 </v>
   <v>       0.00450789 </v>
   <v>       0.00150263 </v>
   <v>       0.00901578 </v>
   <v>       0.00901578 </v>
   <v>       0.00901578 </v>
   <v>       0.00901578 </v>
   <v>       0.00901578 </v>
   <v>       0.00901578 </v>
   <v>       0.01803156 </v>
   <v>       0.01803156 </v>
   <v>       0.01803156 </v>
   <v>       0.00901578 </v>
   <v>       0.00901578 </v>
   <v>       0.01803156 </v>
   <v>       0.01803156 </v>
   <v>       0.00901578 </v>
   <v>       0.00901578 </v>
   <v>       0.00150263 </v>
   <v>       0.00901578 </v>
   <v>       0.00901578 </v>
   <v>       0.00901578 </v>
   <v>       0.00901578 </v>
   <v>       0.00901578 </v>
   <v>       0.00901578 </v>
   <v>       0.01803156 </v>
   <v>       0.01803156 </v>
   <v>       0.01803156 </v>
   <v>       0.00901578 </v>
   <v>       0.00901578 </v>
   <v>       0.01803156 </v>
   <v>       0.01803156 </v>
   <v>       0.00901578 </v>
   <v>       0.00901578 </v>
   <v>       0.00150263 </v>
   <v>       0.00901578 </v>
   <v>       0.00901578 </v>
   <v>       0.00901578 </v>
   <v>       0.00901578 </v>
   <v>       0.00901578 </v>
   <v>       0.00901578 </v>
   <v>       0.01803156 </v>
   <v>       0.01803156 </v>
   <v>       0.01803156 </v>
   <v>       0.00901578 </v>
   <v>       0.00901578 </v>
   <v>       0.01803156 </v>
   <v>       0.01803156 </v>
   <v>       0.00901578 </v>
   <v>       0.00901578 </v>
   <v>       0.00150263 </v>
   <v>       0.00901578 </v>
   <v>       0.00901578 </v>
   <v>       0.00901578 </v>
   <v>       0.00901578 </v>
   <v>       0.00901578 </v>
   <v>       0.00901578 </v>
   <v>       0.01803156 </v>
   <v>       0.01803156 </v>
   <v>       0.01803156 </v>
   <v>       0.00901578 </v>
   <v>       0.00901578 </v>
   <v>       0.01803156 </v>
   <v>       0.01803156 </v>
   <v>       0.00901578 </v>
   <v>       0.00901578 </v>
   <v>       0.00150263 </v>
   <v>       0.00901578 </v>
   <v>       0.00901578 </v>
   <v>       0.00901578 </v>
   <v>       0.00901578 </v>
   <v>       0.00901578 </v>
   <v>       0.00901578 </v>
   <v>       0.01803156 </v>
   <v>       0.01803156 </v>
   <v>       0.01803156 </v>
   <v>       0.00901578 </v>
   <v>       0.00901578 </v>
   <v>       0.01803156 </v>
   <v>       0.01803156 </v>
   <v>       0.00901578 </v>
   <v>       0.00901578 </v>
  </varray>
 </kpoints>
 <parameters>
  <separator name="general" >
   <i type="string" name="SYSTEM">unknown system</i>
   <i type="logical" name="LCOMPAT"> F  </i>
  </separator>
  <separator name="electronic" >
   <i type="string" name="PREC">normal</i>
   <i name="ENMAX">    280.00000000</i>
   <i name="ENAUG">    511.36800000</i>
   <i name="EDIFF">      0.00000100</i>
   <i type="int" name="IALGO">    38</i>
   <i type="int" name="IWAVPR">     0</i>
   <i type="int" name="NBANDS">    40</i>
   <i type="int" name="NBANDSLOW">    -1</i>
   <i type="int" name="NBANDSHIGH">    -1</i>
   <i name="NELECT">     16.00000000</i>
   <i type="int" name="TURBO">     0</i>
   <i type="int" name="IRESTART">     0</i>
   <i type="int" name="NREBOOT">     0</i>
   <i type="int" name="NMIN">     0</i>
   <i name="EREF">      0.00000000</i>
   <separator name="electronic smearing" >
    <i type="int" name="ISMEAR">     1</i>
    <i name="SIGMA">      0.20000000</i>
    <i name="KSPACING">      0.50000000</i>
    <i type="logical" name="KGAMMA"> T  </i>
    <i type="logical" name="KBLOWUP"> T  </i>
   </separator>
   <separator name="electronic projectors" >
    <i type="logical" name="LREAL"> F  </i>
    <v name="ROPT">      0.00000000</v>
    <i type="int" name="LMAXPAW">  -100</i>
    <i type="int" name="LMAXMIX">     2</i>
    <i type="logical" name="NLSPLINE"> F  </i>
   </separator>
   <separator name="electronic startup" >
    <i type="int" name="ISTART">     0</i>
    <i type="int" name="ICHARG">     1</i>
    <i type="int" name="INIWAV">     1</i>
   </separator>
   <separator name="electronic spin" >
    <i type="int" name="ISPIN">     1</i>
    <i type="logical" name="LNONCOLLINEAR"> F  </i>
    <v name="MAGMOM">      1.00000000      1.00000000</v>
    <i name="NUPDOWN">     -1.00000000</i>
    <i type="logical" name="LSORBIT"> F  </i>
    <v name="SAXIS">      0.00000000      0.00000000      1.00000000</v>
    <i type="logical" name="LSPIRAL"> F  </i>
    <v name="QSPIRAL">      0.00000000      0.00000000      0.00000000</v>
    <i type="logical" name="LZEROZ"> F  </i>
   </separator>
   <separator name="electronic exchange-correlation" >
    <i type="logical" name="LASPH"> F  </i>
    <i type="logical" name="LMETAGGA"> F  </i>
   </separator>
   <separator name="electronic convergence" >
    <i type="int" name="NELM">    60</i>
    <i type="int" name="NELMDL">    -5</i>
    <i type="int" name="NELMIN">     2</i>
    <i name="ENINI">    280.00000000</i>
    <separator name="electronic convergence detail" >
     <i type="logical" name="LDIAG"> T  </i>
     <i type="logical" name="LSUBROT"> F  </i>
     <i name="WEIMIN">      0.00000000</i>
     <i name="EBREAK">      0.00000001</i>
     <i name="DEPER">      0.30000000</i>
     <i type="int" name="NRMM">     4</i>
     <i name="TIME">      0.40000000</i>
    </separator>
   </separator>
   <separator name="electronic mixer" >
    <i name="AMIX">      0.40000000</i>
    <i name="BMIX">      1.00000000</i>
    <i name="AMIN">      0.10000000</i>
    <i name="AMIX_MAG">      1.60000000</i>
    <i name="BMIX_MAG">      1.00000000</i>
    <separator name="electronic mixer details" >
     <i type="int" name="IMIX">     4</i>
     <i type="logical" name="MIXFIRST"> F  </i>
     <i type="int" name="MAXMIX">   -45</i>
     <i name="WC">    100.00000000</i>
     <i type="int" name="INIMIX">     1</i>
     <i type="int" name="MIXPRE">     1</i>
     <i type="int" name="MREMOVE">     5</i>
    </separator>
   </separator>
   <separator name="electronic dipolcorrection" >
    <i type="logical" name="LDIPOL"> F  </i>
    <i type="logical" name="LMONO"> F  </i>
    <i type="int" name="IDIPOL">     0</i>
    <i name="EPSILON">      1.00000000</i>
    <v name="DIPOL">   -100.00000000   -100.00000000   -100.00000000</v>
    <i name="EFIELD">      0.00000000</i>
   </separator>
  </separator>
  <separator name="grids" >
   <i type="int" name="NGX">    10</i>
   <i type="int" name="NGY">    10</i>
   <i type="int" name="NGZ">    16</i>
   <i type="int" name="NGXF">    20</i>
   <i type="int" name="NGYF">    20</i>
   <i type="int" name="NGZF">    32</i>
   <i type="logical" name="ADDGRID"> F  </i>
  </separator>
  <separator name="ionic" >
   <i type="int" name="NSW">     0</i>
   <i type="int" name="IBRION">    -1</i>
   <i type="int" name="MDALGO">     0</i>
   <i type="int" name="ISIF">     2</i>
   <i name="PSTRESS">      0.00000000</i>
   <i name="EDIFFG">      0.00001000</i>
   <i type="int" name="NFREE">     0</i>
   <i name="POTIM">      0.50000000</i>
   <i name="SMASS">     -3.00000000</i>
   <i name="SCALEE">      1.00000000</i>
  </separator>
  <separator name="ionic md" >
   <i name="TEBEG">      0.00010000</i>
   <i name="TEEND">      0.00010000</i>
   <i type="int" name="NBLOCK">     1</i>
   <i type="int" name="KBLOCK">     1</i>
   <i type="int" name="NPACO">   256</i>
   <i name="APACO">     16.00000000</i>
  </separator>
  <separator name="symmetry" >
   <i type="int" name="ISYM">     2</i>
   <i name="SYMPREC">      0.00001000</i>
  </separator>
  <separator name="dos" >
   <i type="int" name="LORBIT">     0</i>
   <v name="RWIGS">     -1.00000000</v>
   <i type="int" name="NEDOS">   301</i>
   <i name="EMIN">     10.00000000</i>
   <i name="EMAX">    -10.00000000</i>
   <i name="EFERMI">      0.00000000</i>
  </separator>
  <separator name="writing" >
   <i type="int" name="NWRITE">     2</i>
   <i type="logical" name="LWAVE"> T  </i>
   <i type="logical" name="LDOWNSAMPLE"> F  </i>
   <i type="logical" name="LCHARG"> T  </i>
   <i type="logical" name="LPARD"> F  </i>
   <i type="logical" name="LVTOT"> F  </i>
   <i type="logical" name="LVHAR"> F  </i>
   <i type="logical" name="LELF"> F  </i>
   <i type="logical" name="LOPTICS"> F  </i>
   <v name="STM">      0.00000000      0.00000000      0.00000000      0.00000000      0.00000000      0.00000000      0.00000000</v>
  </separator>
  <separator name="performance" >
   <i type="int" name="NPAR">     1</i>
   <i type="int" name="NSIM">     4</i>
   <i type="int" name="NBLK">    -1</i>
   <i type="logical" name="LPLANE"> T  </i>
   <i type="logical" name="LSCALAPACK"> F  </i>
   <i type="logical" name="LSCAAWARE"> F  </i>
   <i type="logical" name="LSCALU"> F  </i>
   <i type="logical" name="LASYNC"> F  </i>
   <i type="logical" name="LORBITALREAL"> F  </i>
  </separator>
  <separator name="miscellaneous" >
   <i type="int" name="IDIOT">     3</i>
   <i type="int" name="PHON_NSTRUCT">    -1</i>
   <i type="logical" name="LMUSIC"> F  </i>
   <v name="POMASS">     55.84700000</v>
   <v name="DARWINR">      0.00000000</v>
   <v name="DARWINV">      1.00000000</v>
   <i type="logical" name="LCORR"> T  </i>
  </separator>
  <i type="logical" name="GGA_COMPAT"> T  </i>
  <i type="logical" name="LBERRY"> F  </i>
  <i type="int" name="ICORELEVEL">     0</i>
  <i type="logical" name="LDAU"> F  </i>
  <i type="int" name="I_CONSTRAINED_M">     0</i>
  <separator name="electronic exchange-correlation" >
   <i type="string" name="GGA">PE</i>
   <i type="int" name="VOSKOWN">     0</i>
   <i type="logical" name="LHFCALC"> F  </i>
   <i type="string" name="PRECFOCK"></i>
   <i type="logical" name="LSYMGRAD"> F  </i>
   <i type="logical" name="LHFONE"> F  </i>
   <i type="logical" name="LRHFCALC"> F  </i>
   <i type="logical" name="LTHOMAS"> F  </i>
   <i type="logical" name="LMODELHF"> F  </i>
   <i type="logical" name="LFOCKACE"> F  </i>
   <i name="ENCUT4O">     -1.00000000</i>
   <i type="int" name="EXXOEP">     0</i>
   <i type="int" name="FOURORBIT">     0</i>
   <i name="AEXX">      0.00000000</i>
   <i name="HFALPHA">      0.00000000</i>
   <i name="MCALPHA">      0.00000000</i>
   <i name="ALDAX">      1.00000000</i>
   <i name="AGGAX">      1.00000000</i>
   <i name="ALDAC">      1.00000000</i>
   <i name="AGGAC">      1.00000000</i>
   <i type="int" name="NKREDX">     1</i>
   <i type="int" name="NKREDY">     1</i>
   <i type="int" name="NKREDZ">     1</i>
   <i type="logical" name="SHIFTRED"> F  </i>
   <i type="logical" name="ODDONLY"> F  </i>
   <i type="logical" name="EVENONLY"> F  </i>
   <i type="int" name="LMAXFOCK">     0</i>
   <i type="int" name="NMAXFOCKAE">     0</i>
   <i type="logical" name="LFOCKAEDFT"> F  </i>
   <i name="HFSCREEN">      0.00000000</i>
   <i name="HFSCREENC">      0.00000000</i>
   <i type="int" name="NBANDSGWLOW">     0</i>
  </separator>
  <separator name="vdW DFT" >
   <i type="logical" name="LUSE_VDW"> F  </i>
   <i name="Zab_VDW">     -0.84910000</i>
   <i name="PARAM1">      0.12340000</i>
   <i name="PARAM2">      1.00000000</i>
   <i name="PARAM3">      0.00000000</i>
  </separator>
  <separator name="model GW" >
   <i type="int" name="MODEL_GW">     0</i>
   <i name="MODEL_EPS0">      5.11636223</i>
   <i name="MODEL_ALPHA">      1.00000000</i>
  </separator>
  <separator name="linear response parameters" >
   <i type="logical" name="LEPSILON"> F  </i>
   <i type="logical" name="LRPA"> F  </i>
   <i type="logical" name="LNABLA"> F  </i>
   <i type="logical" name="LVEL"> F  </i>
   <i type="int" name="KINTER">     0</i>
   <i name="CSHIFT">      0.10000000</i>
   <i name="OMEGAMAX">     -1.00000000</i>
   <i name="DEG_THRESHOLD">      0.00200000</i>
   <i name="RTIME">     -0.10000000</i>
   <i name="WPLASMAI">      0.00000000</i>
   <v name="DFIELD">      0.00000000      0.00000000      0.00000000</v>
   <v name="WPLASMA">      0.00000000      0.00000000      0.00000000      0.00000000      0.00000000      0.00000000      0.00000000      0.00000000      0.00000000</v>
  </separator>
  <separator name="orbital magnetization" >
   <i type="logical" name="NUCIND"> F  </i>
   <v name="MAGPOS">      0.00000000      0.00000000      0.00000000</v>
   <i type="logical" name="LNICSALL"> T  </i>
   <i type="logical" name="ORBITALMAG"> F  </i>
   <i type="logical" name="LMAGBLOCH"> F  </i>
   <i type="logical" name="LCHIMAG"> F  </i>
   <i type="logical" name="LGAUGE"> T  </i>
   <i type="int" name="MAGATOM">     0</i>
   <v name="MAGDIPOL">      0.00000000      0.00000000      0.00000000</v>
   <v name="AVECCONST">      0.00000000      0.00000000      0.00000000</v>
  </separator>
  <separator name="response functions" >
   <i type="logical" name="LFINITE_TEMPERATURE"> F  </i>
   <i type="logical" name="LADDER"> F  </i>
   <i type="logical" name="LRPAFORCE"> F  </i>
   <i type="logical" name="LFXC"> F  </i>
   <i type="logical" name="LHARTREE"> T  </i>
   <i type="int" name="IBSE">     0</i>
   <v type="int" name="KPOINT">    -1     0     0     0</v>
   <i type="logical" name="LTCTC"> F  </i>
   <i type="logical" name="LTCTE"> F  </i>
   <i type="logical" name="LTETE"> F  </i>
   <i type="logical" name="LTRIPLET"> F  </i>
   <i type="logical" name="LFXCEPS"> F  </i>
   <i type="logical" name="LFXHEG"> F  </i>
   <i type="int" name="NATURALO">     2</i>
   <i type="logical" name="LHOLEGF"> F  </i>
   <i type="logical" name="L2ORDER"> F  </i>
   <i type="logical" name="LDMP1"> F  </i>
   <i type="logical" name="LMP2LT"> F  </i>
   <i type="logical" name="LSMP2LT"> F  </i>
   <i type="logical" name="LGWLF"> F  </i>
   <i name="ENCUTGW">     -2.00000000</i>
   <i name="ENCUTGWSOFT">     -2.00000000</i>
   <i name="ENCUTLF">     -1.00000000</i>
   <i type="logical" name="LESF_SPLINES"> F  </i>
   <i type="int" name="LMAXMP2">    -1</i>
   <i name="SCISSOR">      0.00000000</i>
   <i type="int" name="NOMEGA">     0</i>
   <i type="int" name="NOMEGAR">     0</i>
   <i type="int" name="NBANDSGW">    -1</i>
   <i type="int" name="NBANDSO">    -1</i>
   <i type="int" name="NBANDSV">    -1</i>
   <i type="int" name="NELM">     1</i>
   <i type="int" name="NELMHF">     1</i>
   <i type="int" name="DIM">     3</i>
   <i type="int" name="IESPILON">     4</i>
   <i type="int" name="ANTIRES">     0</i>
   <i name="OMEGAMAX">    -30.00000000</i>
   <i name="OMEGAMIN">    -30.00000000</i>
   <i name="OMEGATL">   -200.00000000</i>
   <i type="int" name="OMEGAGRID">     0</i>
   <i name="CSHIFT">     -0.10000000</i>
   <i type="logical" name="LSELFENERGY"> F  </i>
   <i type="logical" name="LSPECTRAL"> F  </i>
   <i type="logical" name="LSPECTRALGW"> F  </i>
   <i type="logical" name="LSINGLES"> F  </i>
   <i type="logical" name="LFERMIGW"> F  </i>
   <i type="logical" name="ODDONLYGW"> F  </i>
   <i type="logical" name="EVENONLYGW"> F  </i>
   <i type="int" name="NKREDLFX">     1</i>
   <i type="int" name="NKREDLFY">     1</i>
   <i type="int" name="NKREDLFZ">     1</i>
   <i type="int" name="MAXMEM">  2800</i>
   <i type="int" name="TELESCOPE">     0</i>
   <i type="int" name="NTAUPAR">    -1</i>
   <i type="int" name="NOMEGAPAR">    -1</i>
   <i name="DAMP_NEWTON">      0.80000001</i>
   <i name="LAMBDA">      1.00000000</i>
  </separator>
  <separator name="External order field" >
   <i name="OFIELD_KAPPA">      0.00000000</i>
   <v name="OFIELD_K">      0.00000000      0.00000000      0.00000000</v>
   <i name="OFIELD_Q6_NEAR">      0.00000000</i>
   <i name="OFIELD_Q6_FAR">      0.00000000</i>
   <i name="OFIELD_A">      0.00000000</i>
  </separator>
 </parameters>
 <atominfo>
  <atoms>       2 </atoms>
  <types>       1 </types>
  <array name="atoms" >
   <dimension dim="1">ion</dimension>
   <field type="string">element</field>
   <field type="int">atomtype</field>
   <set>
    <rc><c>Fe</c><c>   1</c></rc>
    <rc><c>Fe</c><c>   1</c></rc>
   </set>
  </array>
  <array name="atomtypes" >
   <dimension dim="1">type</dimension>
   <field type="int">atomspertype</field>
   <field type="string">element</field>
   <field>mass</field>
   <field>valence</field>
   <field type="string">pseudopotential</field>
   <set>
    <rc><c>   2</c><c>Fe</c><c>     55.84700000</c><c>      8.00000000</c><c>  PAW_PBE Fe 06Sep2000                  </c></rc>
   </set>
  </array>
 </atominfo>
 <structure name="initialpos" >
  <crystal>
   <varray name="basis" >
    <v>       2.23680000       0.00000000       0.00000000 </v>
    <v>      -1.11840000       1.93712562       0.00000000 </v>
    <v>       0.00000000       0.00000000       3.93600000 </v>
   </varray>
   <i name="volume">     17.05454077 </i>
   <varray name="rec_basis" >
    <v>       0.44706724       0.25811439       0.00000000 </v>
    <v>       0.00000000       0.51622878       0.00000000 </v>
    <v>       0.00000000       0.00000000       0.25406504 </v>
   </varray>
  </crystal>
  <varray name="positions" >
   <v>       0.00000000       0.00000000       0.00000000 </v>
   <v>       0.33333333       0.66666667       0.50000000 </v>
  </varray>
 </structure>
 <calculation>
  <scstep>
   <time name="dav">    0.77    0.80</time>
   <time name="total">    0.78    0.82</time>
   <energy>
    <i name="alphaZ">    162.10058525 </i>
    <i name="ewald">  -1301.76417951 </i>
    <i name="hartreedc">   -181.52662562 </i>
    <i name="XCdc">      9.69684380 </i>
    <i name="pawpsdc">   1109.69170683 </i>
    <i name="pawaedc">  -1125.09647265 </i>
    <i name="eentropy">     -0.00140461 </i>
    <i name="bandstr">    198.60360466 </i>
    <i name="atom">   1188.57490811 </i>
    <i name="e_fr_energy">     60.27896627 </i>
    <i name="e_wo_entrp">     60.28037087 </i>
    <i name="e_0_energy">     60.27943447 </i>
   </energy>
  </scstep>
  <scstep>
   <time name="dav">    0.63    0.63</time>
   <time name="total">    0.63    0.63</time>
   <energy>
    <i name="e_fr_energy">    -14.05389261 </i>
    <i name="e_wo_entrp">    -14.05454780 </i>
    <i name="e_0_energy">    -14.05411101 </i>
   </energy>
  </scstep>
  <scstep>
   <time name="dav">    0.72    0.72</time>
   <time name="total">    0.73    0.73</time>
   <energy>
    <i name="e_fr_energy">    -17.98480037 </i>
    <i name="e_wo_entrp">    -17.98548019 </i>
    <i name="e_0_energy">    -17.98502698 </i>
   </energy>
  </scstep>
  <scstep>
   <time name="dav">    0.65    0.65</time>
   <time name="total">    0.66    0.66</time>
   <energy>
    <i name="e_fr_energy">    -17.99737557 </i>
    <i name="e_wo_entrp">    -17.99806413 </i>
    <i name="e_0_energy">    -17.99760509 </i>
   </energy>
  </scstep>
  <scstep>
   <time name="dav">    0.70    0.70</time>
   <time name="total">    0.73    0.73</time>
   <energy>
    <i name="e_fr_energy">    -17.99738238 </i>
    <i name="e_wo_entrp">    -17.99807094 </i>
    <i name="e_0_energy">    -17.99761190 </i>
   </energy>
  </scstep>
  <scstep>
   <time name="dav">    0.83    0.83</time>
   <time name="total">    0.86    0.86</time>
   <energy>
    <i name="e_fr_energy">    -15.51925555 </i>
    <i name="e_wo_entrp">    -15.52011372 </i>
    <i name="e_0_energy">    -15.51954161 </i>
   </energy>
  </scstep>
  <scstep>
   <time name="dav">    0.71    0.71</time>
   <time name="total">    0.74    0.74</time>
   <energy>
    <i name="e_fr_energy">    -15.41094189 </i>
    <i name="e_wo_entrp">    -15.41167203 </i>
    <i name="e_0_energy">    -15.41118527 </i>
   </energy>
  </scstep>
  <scstep>
   <time name="dav">    0.79    0.79</time>
   <time name="total">    0.82    0.82</time>
   <energy>
    <i name="e_fr_energy">    -15.36928806 </i>
    <i name="e_wo_entrp">    -15.37006098 </i>
    <i name="e_0_energy">    -15.36954570 </i>
   </energy>
  </scstep>
  <scstep>
   <time name="dav">    0.76    0.76</time>
   <time name="total">    0.78    0.78</time>
   <energy>
    <i name="e_fr_energy">    -15.36587356 </i>
    <i name="e_wo_entrp">    -15.36664176 </i>
    <i name="e_0_energy">    -15.36612963 </i>
   </energy>
  </scstep>
  <scstep>
   <time name="dav">    0.65    0.65</time>
   <time name="total">    0.68    0.68</time>
   <energy>
    <i name="e_fr_energy">    -15.36581422 </i>
    <i name="e_wo_entrp">    -15.36658134 </i>
    <i name="e_0_energy">    -15.36606993 </i>
   </energy>
  </scstep>
  <scstep>
   <time name="dav">    0.66    0.66</time>
   <time name="total">    0.68    0.68</time>
   <energy>
    <i name="e_fr_energy">    -15.36577857 </i>
    <i name="e_wo_entrp">    -15.36654592 </i>
    <i name="e_0_energy">    -15.36603435 </i>
   </energy>
  </scstep>
  <scstep>
   <time name="dav">    0.53    0.53</time>
   <time name="total">    0.56    0.56</time>
   <energy>
    <i name="e_fr_energy">    -15.36577718 </i>
    <i name="e_wo_entrp">    -15.36654460 </i>
    <i name="e_0_energy">    -15.36603298 </i>
   </energy>
  </scstep>
  <scstep>
   <time name="dav">    0.47    0.47</time>
   <time name="total">    0.50    0.50</time>
   <energy>
    <i name="e_fr_energy">    -15.36577859 </i>
    <i name="e_wo_entrp">    -15.36654601 </i>
    <i name="e_0_energy">    -15.36603440 </i>
   </energy>
  </scstep>
  <scstep>
   <time name="dav">    0.45    0.45</time>
   <time name="total">    0.46    0.46</time>
   <energy>
    <i name="alphaZ">    162.10058525 </i>
    <i name="ewald">  -1301.76417951 </i>
    <i name="hartreedc">   -148.88054946 </i>
    <i name="XCdc">      8.14834721 </i>
    <i name="pawpsdc">   1732.17167334 </i>
    <i name="pawaedc">  -1751.83217598 </i>
    <i name="eentropy">      0.00076743 </i>
    <i name="bandstr">     96.11484477 </i>
    <i name="atom">   1188.57490811 </i>
    <i name="e_fr_energy">    -15.36577883 </i>
    <i name="e_wo_entrp">    -15.36654625 </i>
    <i name="e_0_energy">    -15.36603464 </i>
   </energy>
  </scstep>
  <structure>
   <crystal>
    <varray name="basis" >
     <v>       2.23680000       0.00000000       0.00000000 </v>
     <v>      -1.11840000       1.93712562       0.00000000 </v>
     <v>       0.00000000       0.00000000       3.93600000 </v>
    </varray>
    <i name="volume">     17.05454077 </i>
    <varray name="rec_basis" >
     <v>       0.44706724       0.25811439       0.00000000 </v>
     <v>       0.00000000       0.51622878       0.00000000 </v>
     <v>       0.00000000       0.00000000       0.25406504 </v>
    </varray>
   </crystal>
   <varray name="positions" >
    <v>       0.00000000       0.00000000       0.00000000 </v>
    <v>       0.33333333       0.66666667       0.50000000 </v>
   </varray>
  </structure>
  <varray name="forces" >
   <v>      -0.00000000      -0.00000000      -0.00000000 </v>
   <v>       0.00000000       0.00000000       0.00000000 </v>
  </varray>
  <varray name="stress" >
   <v>    1055.30813419      -0.00000000       0.00000000 </v>
   <v>      -0.00000000    1055.30813419      -0.00000000 </v>
   <v>       0.00000000      -0.00000000     256.71399321 </v>
  </varray>
  <energy>
   <i name="e_fr_energy">    -15.36577883 </i>
   <i name="e_wo_entrp">    -15.36654625 </i>
   <i name="e_0_energy">    -15.36603464 </i>
  </energy>
  <time name="totalsc">    9.89    9.93</time>
  <eigenvalues>
   <array>
    <dimension dim="1">band</dimension>
    <dimension dim="2">kpoint</dimension>
    <dimension dim="3">spin</dimension>
    <field>eigene</field>
    <field>occ</field>
    <set>
     <set comment="spin 1">
      <set comment="kpoint 1">
       <r>   -0.8169    1.0000 </r>
       <r>    3.0441    1.0000 </r>
       <r>    6.2886    1.0000 </r>
       <r>    7.0689    1.0000 </r>
       <r>    7.0689    1.0000 </r>
       <r>    7.4784    1.0000 </r>
       <r>    7.4785    1.0000 </r>
       <r>    8.3094    1.0000 </r>
       <r>    8.6987    1.0070 </r>
       <r>    8.6987    1.0070 </r>
       <r>   10.0822   -0.0000 </r>
       <r>   10.0822   -0.0000 </r>
       <r>   18.3050    0.0000 </r>
       <r>   34.0810    0.0000 </r>
       <r>   34.5414    0.0000 </r>
       <r>   37.5593    0.0000 </r>
       <r>   41.4808    0.0000 </r>
       <r>   41.4808    0.0000 </r>
       <r>   42.1570    0.0000 </r>
       <r>   42.1570    0.0000 </r>
       <r>   43.4723    0.0000 </r>
       <r>   44.2418    0.0000 </r>
       <r>   44.2418    0.0000 </r>
       <r>   45.3487    0.0000 </r>
       <r>   48.9424    0.0000 </r>
       <r>   48.9424    0.0000 </r>
       <r>   50.3251    0.0000 </r>
       <r>   54.0998    0.0000 </r>
       <r>   54.0998    0.0000 </r>
       <r>   55.5672    0.0000 </r>
       <r>   55.5673    0.0000 </r>
       <r>   59.0072    0.0000 </r>
       <r>   65.2689    0.0000 </r>
       <r>   66.2289    0.0000 </r>
       <r>   66.2289    0.0000 </r>
       <r>   66.6254    0.0000 </r>
       <r>   67.5185    0.0000 </r>
       <r>   70.4953    0.0000 </r>
       <r>   70.4954    0.0000 </r>
       <r>   73.6928    0.0000 </r>
      </set>
      <set comment="kpoint 2">
       <r>   -0.4356    1.0000 </r>
       <r>    3.3351    1.0000 </r>
       <r>    6.2902    1.0000 </r>
       <r>    6.9942    1.0000 </r>
       <r>    7.2500    1.0000 </r>
       <r>    7.3123    1.0000 </r>
       <r>    7.3301    1.0000 </r>
       <r>    7.7046    1.0000 </r>
       <r>    8.5048    1.0001 </r>
       <r>    8.5490    1.0003 </r>
       <r>   10.1277   -0.0000 </r>
       <r>   11.4202   -0.0000 </r>
       <r>   18.3032    0.0000 </r>
       <r>   33.1964    0.0000 </r>
       <r>   34.9236    0.0000 </r>
       <r>   36.2846    0.0000 </r>
       <r>   38.2842    0.0000 </r>
       <r>   39.8509    0.0000 </r>
       <r>   40.1939    0.0000 </r>
       <r>   43.0448    0.0000 </r>
       <r>   43.7932    0.0000 </r>
       <r>   45.3201    0.0000 </r>
       <r>   45.5489    0.0000 </r>
       <r>   45.9780    0.0000 </r>
       <r>   50.0514    0.0000 </r>
       <r>   50.1591    0.0000 </r>
       <r>   51.2253    0.0000 </r>
       <r>   51.4485    0.0000 </r>
       <r>   54.5162    0.0000 </r>
       <r>   57.3476    0.0000 </r>
       <r>   57.8838    0.0000 </r>
       <r>   60.2059    0.0000 </r>
       <r>   64.6274    0.0000 </r>
       <r>   65.0021    0.0000 </r>
       <r>   65.4154    0.0000 </r>
       <r>   66.4924    0.0000 </r>
       <r>   66.8324    0.0000 </r>
       <r>   70.6680    0.0000 </r>
       <r>   72.6618    0.0000 </r>
       <r>   73.6920    0.0000 </r>
      </set>
      <set comment="kpoint 3">
       <r>    0.6262    1.0000 </r>
       <r>    3.9972    1.0000 </r>
       <r>    5.8905    1.0000 </r>
       <r>    6.0494    1.0000 </r>
       <r>    6.7723    1.0000 </r>
       <r>    7.5101    1.0000 </r>
       <r>    8.0039    1.0000 </r>
       <r>    8.0406    1.0000 </r>
       <r>    8.2000    1.0000 </r>
       <r>    8.3416    1.0000 </r>
       <r>   10.2038   -0.0000 </r>
       <r>   13.5673   -0.0000 </r>
       <r>   18.3691    0.0000 </r>
       <r>   29.7790    0.0000 </r>
       <r>   34.9665    0.0000 </r>
       <r>   35.1287    0.0000 </r>
       <r>   35.1463    0.0000 </r>
       <r>   35.9823    0.0000 </r>
       <r>   41.1346    0.0000 </r>
       <r>   42.3039    0.0000 </r>
       <r>   42.9868    0.0000 </r>
       <r>   43.0640    0.0000 </r>
       <r>   46.6687    0.0000 </r>
       <r>   48.0898    0.0000 </r>
       <r>   50.7858    0.0000 </r>
       <r>   51.3587    0.0000 </r>
       <r>   52.7695    0.0000 </r>
       <r>   55.2221    0.0000 </r>
       <r>   58.3583    0.0000 </r>
       <r>   59.5926    0.0000 </r>
       <r>   60.5698    0.0000 </r>
       <r>   62.1607    0.0000 </r>
       <r>   63.3186    0.0000 </r>
       <r>   63.8339    0.0000 </r>
       <r>   64.3402    0.0000 </r>
       <r>   64.7501    0.0000 </r>
       <r>   68.3157    0.0000 </r>
       <r>   71.3486    0.0000 </r>
       <r>   73.5533    0.0000 </r>
       <r>   73.7430    0.0000 </r>
      </set>
      <set comment="kpoint 4">
       <r>    2.0606    1.0000 </r>
       <r>    4.2126    1.0000 </r>
       <r>    4.8059    1.0000 </r>
       <r>    6.0410    1.0000 </r>
       <r>    6.5855    1.0000 </r>
       <r>    7.4666    1.0000 </r>
       <r>    7.8064    1.0000 </r>
       <r>    8.4949    1.0001 </r>
       <r>    8.9858    0.9229 </r>
       <r>    9.2346    0.0639 </r>
       <r>   10.2460   -0.0000 </r>
       <r>   15.9318    0.0000 </r>
       <r>   18.5222    0.0000 </r>
       <r>   25.6555    0.0000 </r>
       <r>   31.3835    0.0000 </r>
       <r>   32.3894    0.0000 </r>
       <r>   33.4969    0.0000 </r>
       <r>   35.8550    0.0000 </r>
       <r>   39.7593    0.0000 </r>
       <r>   42.5063    0.0000 </r>
       <r>   42.7492    0.0000 </r>
       <r>   43.1938    0.0000 </r>
       <r>   44.1833    0.0000 </r>
       <r>   47.9411    0.0000 </r>
       <r>   54.2541    0.0000 </r>
       <r>   55.7886    0.0000 </r>
       <r>   56.5092    0.0000 </r>
       <r>   58.1624    0.0000 </r>
       <r>   59.0377    0.0000 </r>
       <r>   60.1183    0.0000 </r>
       <r>   61.9202    0.0000 </r>
       <r>   62.8585    0.0000 </r>
       <r>   63.6625    0.0000 </r>
       <r>   63.6813    0.0000 </r>
       <r>   64.6851    0.0000 </r>
       <r>   67.9047    0.0000 </r>
       <r>   68.4701    0.0000 </r>
       <r>   71.9810    0.0000 </r>
       <r>   72.9548    0.0000 </r>
       <r>   73.6435    0.0000 </r>
      </set>
      <set comment="kpoint 5">
       <r>    3.1464    1.0000 </r>
       <r>    3.8539    1.0000 </r>
       <r>    4.0647    1.0000 </r>
       <r>    6.3369    1.0000 </r>
       <r>    6.9673    1.0000 </r>
       <r>    7.1175    1.0000 </r>
       <r>    7.4862    1.0000 </r>
       <r>    9.9831   -0.0000 </r>
       <r>   10.0797   -0.0000 </r>
       <r>   10.1412   -0.0000 </r>
       <r>   10.2558   -0.0000 </r>
       <r>   18.2280    0.0000 </r>
       <r>   18.4115    0.0000 </r>
       <r>   22.6927    0.0000 </r>
       <r>   27.9710    0.0000 </r>
       <r>   30.2789    0.0000 </r>
       <r>   30.7843    0.0000 </r>
       <r>   34.9545    0.0000 </r>
       <r>   38.5606    0.0000 </r>
       <r>   41.9273    0.0000 </r>
       <r>   42.3074    0.0000 </r>
       <r>   44.2933    0.0000 </r>
       <r>   44.8746    0.0000 </r>
       <r>   48.0218    0.0000 </r>
       <r>   55.8865    0.0000 </r>
       <r>   57.3070    0.0000 </r>
       <r>   57.7395    0.0000 </r>
       <r>   61.0428    0.0000 </r>
       <r>   61.1483    0.0000 </r>
       <r>   61.3695    0.0000 </r>
       <r>   62.6566    0.0000 </r>
       <r>   64.0197    0.0000 </r>
       <r>   64.6617    0.0000 </r>
       <r>   65.4591    0.0000 </r>
       <r>   66.0467    0.0000 </r>
       <r>   67.8324    0.0000 </r>
       <r>   72.0103    0.0000 </r>
       <r>   72.9524    0.0000 </r>
       <r>   72.9727    0.0000 </r>
       <r>   73.3557    0.0000 </r>
      </set>
      <set comment="kpoint 6">
       <r>    3.3212    1.0000 </r>
       <r>    3.6902    1.0000 </r>
       <r>    3.6984    1.0000 </r>
       <r>    6.6811    1.0000 </r>
       <r>    7.0447    1.0000 </r>
       <r>    7.3048    1.0000 </r>
       <r>    7.4204    1.0000 </r>
       <r>   10.2518   -0.0000 </r>
       <r>   10.6050   -0.0000 </r>
       <r>   10.7541   -0.0000 </r>
       <r>   12.1261   -0.0000 </r>
       <r>   16.1331    0.0000 </r>
       <r>   20.7114    0.0000 </r>
       <r>   22.6635    0.0000 </r>
       <r>   25.2432    0.0000 </r>
       <r>   28.0494    0.0000 </r>
       <r>   29.0823    0.0000 </r>
       <r>   34.2653    0.0000 </r>
       <r>   38.1622    0.0000 </r>
       <r>   40.6272    0.0000 </r>
       <r>   42.1476    0.0000 </r>
       <r>   45.3482    0.0000 </r>
       <r>   47.1886    0.0000 </r>
       <r>   47.8379    0.0000 </r>
       <r>   52.5651    0.0000 </r>
       <r>   58.5027    0.0000 </r>
       <r>   58.9420    0.0000 </r>
       <r>   62.1508    0.0000 </r>
       <r>   62.2216    0.0000 </r>
       <r>   63.4941    0.0000 </r>
       <r>   64.2890    0.0000 </r>
       <r>   64.5927    0.0000 </r>
       <r>   65.8290    0.0000 </r>
       <r>   68.0122    0.0000 </r>
       <r>   68.3013    0.0000 </r>
       <r>   70.6706    0.0000 </r>
       <r>   71.3055    0.0000 </r>
       <r>   71.4201    0.0000 </r>
       <r>   74.2519    0.0000 </r>
       <r>   74.5004    0.0000 </r>
      </set>
      <set comment="kpoint 7">
       <r>    0.2906    1.0000 </r>
       <r>    3.8404    1.0000 </r>
       <r>    6.0857    1.0000 </r>
       <r>    6.2535    1.0000 </r>
       <r>    7.0529    1.0000 </r>
       <r>    7.0949    1.0000 </r>
       <r>    7.8200    1.0000 </r>
       <r>    7.9861    1.0000 </r>
       <r>    8.2038    1.0000 </r>
       <r>    8.5095    1.0001 </r>
       <r>   10.1451   -0.0000 </r>
       <r>   12.9755   -0.0000 </r>
       <r>   18.3485    0.0000 </r>
       <r>   31.3874    0.0000 </r>
       <r>   33.2276    0.0000 </r>
       <r>   35.4774    0.0000 </r>
       <r>   36.7972    0.0000 </r>
       <r>   38.9398    0.0000 </r>
       <r>   39.1172    0.0000 </r>
       <r>   41.2518    0.0000 </r>
       <r>   42.6272    0.0000 </r>
       <r>   46.9320    0.0000 </r>
       <r>   47.6224    0.0000 </r>
       <r>   48.6519    0.0000 </r>
       <r>   49.0071    0.0000 </r>
       <r>   49.7396    0.0000 </r>
       <r>   49.9349    0.0000 </r>
       <r>   55.6150    0.0000 </r>
       <r>   58.0778    0.0000 </r>
       <r>   59.0158    0.0000 </r>
       <r>   59.2274    0.0000 </r>
       <r>   61.7647    0.0000 </r>
       <r>   62.6210    0.0000 </r>
       <r>   64.5424    0.0000 </r>
       <r>   64.9961    0.0000 </r>
       <r>   66.0519    0.0000 </r>
       <r>   66.5290    0.0000 </r>
       <r>   71.7706    0.0000 </r>
       <r>   73.3879    0.0000 </r>
       <r>   73.8735    0.0000 </r>
      </set>
      <set comment="kpoint 8">
       <r>    1.5805    1.0000 </r>
       <r>    4.4386    1.0000 </r>
       <r>    5.2053    1.0000 </r>
       <r>    5.7152    1.0000 </r>
       <r>    6.6894    1.0000 </r>
       <r>    7.4240    1.0000 </r>
       <r>    7.6639    1.0000 </r>
       <r>    8.1806    1.0000 </r>
       <r>    8.7251    1.0106 </r>
       <r>    9.1339    0.3877 </r>
       <r>   10.1472   -0.0000 </r>
       <r>   15.1163    0.0000 </r>
       <r>   18.5148    0.0000 </r>
       <r>   27.7515    0.0000 </r>
       <r>   30.6277    0.0000 </r>
       <r>   33.2074    0.0000 </r>
       <r>   35.4838    0.0000 </r>
       <r>   36.6470    0.0000 </r>
       <r>   40.0660    0.0000 </r>
       <r>   40.3282    0.0000 </r>
       <r>   41.7160    0.0000 </r>
       <r>   46.4242    0.0000 </r>
       <r>   46.8627    0.0000 </r>
       <r>   48.2850    0.0000 </r>
       <r>   51.2311    0.0000 </r>
       <r>   51.8842    0.0000 </r>
       <r>   54.1041    0.0000 </r>
       <r>   58.7897    0.0000 </r>
       <r>   60.3298    0.0000 </r>
       <r>   60.4107    0.0000 </r>
       <r>   61.3205    0.0000 </r>
       <r>   62.6168    0.0000 </r>
       <r>   62.9506    0.0000 </r>
       <r>   64.0358    0.0000 </r>
       <r>   65.3791    0.0000 </r>
       <r>   65.7062    0.0000 </r>
       <r>   67.4226    0.0000 </r>
       <r>   72.3840    0.0000 </r>
       <r>   72.7271    0.0000 </r>
       <r>   73.8997    0.0000 </r>
      </set>
      <set comment="kpoint 9">
       <r>    2.9712    1.0000 </r>
       <r>    4.2594    1.0000 </r>
       <r>    4.3932    1.0000 </r>
       <r>    5.8842    1.0000 </r>
       <r>    6.8091    1.0000 </r>
       <r>    6.9748    1.0000 </r>
       <r>    7.7050    1.0000 </r>
       <r>    8.6610    1.0035 </r>
       <r>    9.7212   -0.0001 </r>
       <r>   10.1370   -0.0000 </r>
       <r>   10.3480   -0.0000 </r>
       <r>   17.5062    0.0000 </r>
       <r>   18.7609    0.0000 </r>
       <r>   23.9282    0.0000 </r>
       <r>   28.7337    0.0000 </r>
       <r>   29.7401    0.0000 </r>
       <r>   33.3536    0.0000 </r>
       <r>   34.3459    0.0000 </r>
       <r>   39.5619    0.0000 </r>
       <r>   40.8442    0.0000 </r>
       <r>   41.7070    0.0000 </r>
       <r>   46.0650    0.0000 </r>
       <r>   46.0756    0.0000 </r>
       <r>   49.1662    0.0000 </r>
       <r>   53.4268    0.0000 </r>
       <r>   55.8614    0.0000 </r>
       <r>   57.4791    0.0000 </r>
       <r>   57.8831    0.0000 </r>
       <r>   59.5856    0.0000 </r>
       <r>   61.9444    0.0000 </r>
       <r>   62.0831    0.0000 </r>
       <r>   64.2297    0.0000 </r>
       <r>   64.9626    0.0000 </r>
       <r>   65.5892    0.0000 </r>
       <r>   65.9230    0.0000 </r>
       <r>   67.0997    0.0000 </r>
       <r>   71.4082    0.0000 </r>
       <r>   71.7465    0.0000 </r>
       <r>   72.1429    0.0000 </r>
       <r>   74.2454    0.0000 </r>
      </set>
      <set comment="kpoint 10">
       <r>    3.5819    1.0000 </r>
       <r>    3.8923    1.0000 </r>
       <r>    3.9426    1.0000 </r>
       <r>    6.4853    1.0000 </r>
       <r>    6.7125    1.0000 </r>
       <r>    7.2792    1.0000 </r>
       <r>    7.2907    1.0000 </r>
       <r>    9.8292   -0.0000 </r>
       <r>   10.1171   -0.0000 </r>
       <r>   10.4145   -0.0000 </r>
       <r>   11.8540   -0.0000 </r>
       <r>   17.6963    0.0000 </r>
       <r>   19.9737    0.0000 </r>
       <r>   22.4543    0.0000 </r>
       <r>   26.6570    0.0000 </r>
       <r>   27.2264    0.0000 </r>
       <r>   30.0111    0.0000 </r>
       <r>   33.3383    0.0000 </r>
       <r>   38.5874    0.0000 </r>
       <r>   40.3191    0.0000 </r>
       <r>   42.9583    0.0000 </r>
       <r>   46.3131    0.0000 </r>
       <r>   47.1689    0.0000 </r>
       <r>   48.6628    0.0000 </r>
       <r>   54.4798    0.0000 </r>
       <r>   56.1122    0.0000 </r>
       <r>   58.1451    0.0000 </r>
       <r>   59.6770    0.0000 </r>
       <r>   61.6748    0.0000 </r>
       <r>   62.5482    0.0000 </r>
       <r>   63.3215    0.0000 </r>
       <r>   64.3348    0.0000 </r>
       <r>   64.8052    0.0000 </r>
       <r>   67.8593    0.0000 </r>
       <r>   69.3005    0.0000 </r>
       <r>   69.3043    0.0000 </r>
       <r>   70.1674    0.0000 </r>
       <r>   73.1357    0.0000 </r>
       <r>   73.7145    0.0000 </r>
       <r>   74.7320    0.0000 </r>
      </set>
      <set comment="kpoint 11">
       <r>    3.5352    1.0000 </r>
       <r>    3.7242    1.0000 </r>
       <r>    3.9255    1.0000 </r>
       <r>    6.6385    1.0000 </r>
       <r>    6.9724    1.0000 </r>
       <r>    7.1200    1.0000 </r>
       <r>    7.4136    1.0000 </r>
       <r>   10.1079   -0.0000 </r>
       <r>   10.4929   -0.0000 </r>
       <r>   10.5239   -0.0000 </r>
       <r>   13.2605   -0.0000 </r>
       <r>   15.8576    0.0000 </r>
       <r>   21.6325    0.0000 </r>
       <r>   23.1085    0.0000 </r>
       <r>   24.8094    0.0000 </r>
       <r>   26.3688    0.0000 </r>
       <r>   28.4304    0.0000 </r>
       <r>   32.9723    0.0000 </r>
       <r>   38.1613    0.0000 </r>
       <r>   40.1535    0.0000 </r>
       <r>   43.2558    0.0000 </r>
       <r>   47.0758    0.0000 </r>
       <r>   47.5988    0.0000 </r>
       <r>   48.8326    0.0000 </r>
       <r>   52.3735    0.0000 </r>
       <r>   57.5951    0.0000 </r>
       <r>   58.5552    0.0000 </r>
       <r>   60.2989    0.0000 </r>
       <r>   62.4798    0.0000 </r>
       <r>   62.9271    0.0000 </r>
       <r>   64.5372    0.0000 </r>
       <r>   64.6378    0.0000 </r>
       <r>   65.5168    0.0000 </r>
       <r>   67.1139    0.0000 </r>
       <r>   70.1510    0.0000 </r>
       <r>   71.8264    0.0000 </r>
       <r>   71.9176    0.0000 </r>
       <r>   72.0803    0.0000 </r>
       <r>   72.9250    0.0000 </r>
       <r>   76.1036    0.0000 </r>
      </set>
      <set comment="kpoint 12">
       <r>    2.9491    1.0000 </r>
       <r>    4.5864    1.0000 </r>
       <r>    4.9452    1.0000 </r>
       <r>    5.1430    1.0000 </r>
       <r>    6.7935    1.0000 </r>
       <r>    6.8518    1.0000 </r>
       <r>    7.8906    1.0000 </r>
       <r>    7.9691    1.0000 </r>
       <r>    9.6914   -0.0001 </r>
       <r>   10.0048   -0.0000 </r>
       <r>   10.4335   -0.0000 </r>
       <r>   17.2219    0.0000 </r>
       <r>   18.9702    0.0000 </r>
       <r>   25.5531    0.0000 </r>
       <r>   26.6557    0.0000 </r>
       <r>   31.1221    0.0000 </r>
       <r>   33.1746    0.0000 </r>
       <r>   35.8722    0.0000 </r>
       <r>   36.6626    0.0000 </r>
       <r>   41.1582    0.0000 </r>
       <r>   43.1372    0.0000 </r>
       <r>   47.8560    0.0000 </r>
       <r>   48.2711    0.0000 </r>
       <r>   49.9393    0.0000 </r>
       <r>   50.9259    0.0000 </r>
       <r>   53.1067    0.0000 </r>
       <r>   54.4810    0.0000 </r>
       <r>   59.1972    0.0000 </r>
       <r>   60.6192    0.0000 </r>
       <r>   61.0580    0.0000 </r>
       <r>   61.4897    0.0000 </r>
       <r>   64.3580    0.0000 </r>
       <r>   64.4367    0.0000 </r>
       <r>   65.7951    0.0000 </r>
       <r>   66.9947    0.0000 </r>
       <r>   68.5375    0.0000 </r>
       <r>   68.7229    0.0000 </r>
       <r>   71.5052    0.0000 </r>
       <r>   71.9478    0.0000 </r>
       <r>   75.1212    0.0000 </r>
      </set>
      <set comment="kpoint 13">
       <r>    4.1330    1.0000 </r>
       <r>    4.1630    1.0000 </r>
       <r>    4.5367    1.0000 </r>
       <r>    5.5105    1.0000 </r>
       <r>    6.5363    1.0000 </r>
       <r>    7.1518    1.0000 </r>
       <r>    7.3799    1.0000 </r>
       <r>    8.7006    1.0072 </r>
       <r>    9.8845   -0.0000 </r>
       <r>   10.3354   -0.0000 </r>
       <r>   12.0347   -0.0000 </r>
       <r>   19.4008    0.0000 </r>
       <r>   19.6371    0.0000 </r>
       <r>   22.6247    0.0000 </r>
       <r>   24.8133    0.0000 </r>
       <r>   28.5635    0.0000 </r>
       <r>   31.3422    0.0000 </r>
       <r>   32.2604    0.0000 </r>
       <r>   35.3240    0.0000 </r>
       <r>   43.4142    0.0000 </r>
       <r>   43.6905    0.0000 </r>
       <r>   47.7073    0.0000 </r>
       <r>   49.5957    0.0000 </r>
       <r>   51.2936    0.0000 </r>
       <r>   52.3053    0.0000 </r>
       <r>   54.1582    0.0000 </r>
       <r>   55.7325    0.0000 </r>
       <r>   57.2239    0.0000 </r>
       <r>   60.1774    0.0000 </r>
       <r>   61.8239    0.0000 </r>
       <r>   63.4906    0.0000 </r>
       <r>   64.1818    0.0000 </r>
       <r>   64.9541    0.0000 </r>
       <r>   67.4423    0.0000 </r>
       <r>   68.9927    0.0000 </r>
       <r>   69.3976    0.0000 </r>
       <r>   71.4011    0.0000 </r>
       <r>   72.4337    0.0000 </r>
       <r>   74.3682    0.0000 </r>
       <r>   76.0164    0.0000 </r>
      </set>
      <set comment="kpoint 14">
       <r>    3.9558    1.0000 </r>
       <r>    4.1833    1.0000 </r>
       <r>    4.4862    1.0000 </r>
       <r>    6.2010    1.0000 </r>
       <r>    6.5356    1.0000 </r>
       <r>    6.8805    1.0000 </r>
       <r>    7.4863    1.0000 </r>
       <r>    9.6054   -0.0012 </r>
       <r>    9.8164   -0.0000 </r>
       <r>   10.3525   -0.0000 </r>
       <r>   13.8985   -0.0000 </r>
       <r>   17.4315    0.0000 </r>
       <r>   22.0752    0.0000 </r>
       <r>   22.8931    0.0000 </r>
       <r>   23.9338    0.0000 </r>
       <r>   25.8776    0.0000 </r>
       <r>   29.1792    0.0000 </r>
       <r>   30.5793    0.0000 </r>
       <r>   34.6421    0.0000 </r>
       <r>   43.7025    0.0000 </r>
       <r>   45.4430    0.0000 </r>
       <r>   47.8870    0.0000 </r>
       <r>   49.3218    0.0000 </r>
       <r>   50.5168    0.0000 </r>
       <r>   54.6606    0.0000 </r>
       <r>   54.8422    0.0000 </r>
       <r>   56.5691    0.0000 </r>
       <r>   57.3869    0.0000 </r>
       <r>   61.3595    0.0000 </r>
       <r>   62.0251    0.0000 </r>
       <r>   62.8967    0.0000 </r>
       <r>   64.8118    0.0000 </r>
       <r>   64.8672    0.0000 </r>
       <r>   66.0127    0.0000 </r>
       <r>   69.7496    0.0000 </r>
       <r>   71.3644    0.0000 </r>
       <r>   72.6888    0.0000 </r>
       <r>   73.6352    0.0000 </r>
       <r>   74.5258    0.0000 </r>
       <r>   75.1934    0.0000 </r>
      </set>
      <set comment="kpoint 15">
       <r>    4.1182    1.0000 </r>
       <r>    4.7676    1.0000 </r>
       <r>    5.1409    1.0000 </r>
       <r>    5.2428    1.0000 </r>
       <r>    6.3429    1.0000 </r>
       <r>    6.8828    1.0000 </r>
       <r>    7.5364    1.0000 </r>
       <r>    9.0355    0.7827 </r>
       <r>    9.6653   -0.0003 </r>
       <r>   10.3104   -0.0000 </r>
       <r>   14.0756   -0.0000 </r>
       <r>   19.7233    0.0000 </r>
       <r>   20.3055    0.0000 </r>
       <r>   22.1285    0.0000 </r>
       <r>   23.8698    0.0000 </r>
       <r>   27.7378    0.0000 </r>
       <r>   28.3444    0.0000 </r>
       <r>   30.9849    0.0000 </r>
       <r>   31.9151    0.0000 </r>
       <r>   45.1321    0.0000 </r>
       <r>   46.1614    0.0000 </r>
       <r>   50.4886    0.0000 </r>
       <r>   51.5666    0.0000 </r>
       <r>   51.7485    0.0000 </r>
       <r>   52.2356    0.0000 </r>
       <r>   52.5523    0.0000 </r>
       <r>   55.7071    0.0000 </r>
       <r>   58.1469    0.0000 </r>
       <r>   58.2912    0.0000 </r>
       <r>   61.4628    0.0000 </r>
       <r>   62.4069    0.0000 </r>
       <r>   64.9895    0.0000 </r>
       <r>   65.2530    0.0000 </r>
       <r>   65.8728    0.0000 </r>
       <r>   70.1223    0.0000 </r>
       <r>   71.2909    0.0000 </r>
       <r>   71.4294    0.0000 </r>
       <r>   72.9191    0.0000 </r>
       <r>   74.8573    0.0000 </r>
       <r>   76.2671    0.0000 </r>
      </set>
      <set comment="kpoint 16">
       <r>    4.1336    1.0000 </r>
       <r>    4.8745    1.0000 </r>
       <r>    5.0314    1.0000 </r>
       <r>    5.6325    1.0000 </r>
       <r>    6.4344    1.0000 </r>
       <r>    6.5042    1.0000 </r>
       <r>    7.7184    1.0000 </r>
       <r>    9.5157   -0.0069 </r>
       <r>    9.5821   -0.0020 </r>
       <r>    9.9069   -0.0000 </r>
       <r>   15.9758    0.0000 </r>
       <r>   17.6474    0.0000 </r>
       <r>   19.9145    0.0000 </r>
       <r>   24.2945    0.0000 </r>
       <r>   24.8539    0.0000 </r>
       <r>   25.7321    0.0000 </r>
       <r>   27.7487    0.0000 </r>
       <r>   29.2443    0.0000 </r>
       <r>   31.2731    0.0000 </r>
       <r>   45.4537    0.0000 </r>
       <r>   48.6111    0.0000 </r>
       <r>   50.0476    0.0000 </r>
       <r>   50.6228    0.0000 </r>
       <r>   51.4698    0.0000 </r>
       <r>   52.8783    0.0000 </r>
       <r>   54.0046    0.0000 </r>
       <r>   57.3621    0.0000 </r>
       <r>   57.5408    0.0000 </r>
       <r>   57.9517    0.0000 </r>
       <r>   61.2905    0.0000 </r>
       <r>   62.0398    0.0000 </r>
       <r>   62.6992    0.0000 </r>
       <r>   65.1885    0.0000 </r>
       <r>   65.6733    0.0000 </r>
       <r>   69.4628    0.0000 </r>
       <r>   71.4286    0.0000 </r>
       <r>   73.4169    0.0000 </r>
       <r>   74.1937    0.0000 </r>
       <r>   74.3364    0.0000 </r>
       <r>   75.0678    0.0000 </r>
      </set>
      <set comment="kpoint 17">
       <r>   -0.7239    1.0000 </r>
       <r>    3.0292    1.0000 </r>
       <r>    6.2576    1.0000 </r>
       <r>    7.0577    1.0000 </r>
       <r>    7.0577    1.0000 </r>
       <r>    7.4562    1.0000 </r>
       <r>    7.4562    1.0000 </r>
       <r>    8.0647    1.0000 </r>
       <r>    8.7490    1.0148 </r>
       <r>    8.7490    1.0148 </r>
       <r>   10.0703   -0.0000 </r>
       <r>   10.0703   -0.0000 </r>
       <r>   18.6913    0.0000 </r>
       <r>   33.5029    0.0000 </r>
       <r>   34.6848    0.0000 </r>
       <r>   37.3579    0.0000 </r>
       <r>   41.4988    0.0000 </r>
       <r>   41.4988    0.0000 </r>
       <r>   42.1495    0.0000 </r>
       <r>   42.1495    0.0000 </r>
       <r>   43.6587    0.0000 </r>
       <r>   44.2476    0.0000 </r>
       <r>   44.2476    0.0000 </r>
       <r>   45.6609    0.0000 </r>
       <r>   48.6804    0.0000 </r>
       <r>   48.6804    0.0000 </r>
       <r>   50.6092    0.0000 </r>
       <r>   54.3377    0.0000 </r>
       <r>   54.3378    0.0000 </r>
       <r>   55.9075    0.0000 </r>
       <r>   55.9075    0.0000 </r>
       <r>   58.6597    0.0000 </r>
       <r>   65.0142    0.0000 </r>
       <r>   65.4337    0.0000 </r>
       <r>   66.1138    0.0000 </r>
       <r>   66.1139    0.0000 </r>
       <r>   69.1272    0.0000 </r>
       <r>   69.7340    0.0000 </r>
       <r>   69.7340    0.0000 </r>
       <r>   72.0446    0.0000 </r>
      </set>
      <set comment="kpoint 18">
       <r>   -0.3453    1.0000 </r>
       <r>    3.3251    1.0000 </r>
       <r>    6.2781    1.0000 </r>
       <r>    6.9520    1.0000 </r>
       <r>    7.0274    1.0000 </r>
       <r>    7.2968    1.0000 </r>
       <r>    7.4098    1.0000 </r>
       <r>    7.6795    1.0000 </r>
       <r>    8.5629    1.0004 </r>
       <r>    8.6088    1.0012 </r>
       <r>   10.1118   -0.0000 </r>
       <r>   11.2528   -0.0000 </r>
       <r>   18.7305    0.0000 </r>
       <r>   33.0779    0.0000 </r>
       <r>   34.5565    0.0000 </r>
       <r>   36.2288    0.0000 </r>
       <r>   38.3503    0.0000 </r>
       <r>   39.2755    0.0000 </r>
       <r>   40.8031    0.0000 </r>
       <r>   43.1202    0.0000 </r>
       <r>   43.5624    0.0000 </r>
       <r>   45.4020    0.0000 </r>
       <r>   45.6438    0.0000 </r>
       <r>   46.2667    0.0000 </r>
       <r>   49.7497    0.0000 </r>
       <r>   50.0702    0.0000 </r>
       <r>   51.6853    0.0000 </r>
       <r>   51.8821    0.0000 </r>
       <r>   54.4420    0.0000 </r>
       <r>   57.5590    0.0000 </r>
       <r>   58.1238    0.0000 </r>
       <r>   59.9550    0.0000 </r>
       <r>   63.4208    0.0000 </r>
       <r>   65.2116    0.0000 </r>
       <r>   65.2366    0.0000 </r>
       <r>   66.3298    0.0000 </r>
       <r>   67.9682    0.0000 </r>
       <r>   70.0171    0.0000 </r>
       <r>   71.4960    0.0000 </r>
       <r>   72.0124    0.0000 </r>
      </set>
      <set comment="kpoint 19">
       <r>    0.7052    1.0000 </r>
       <r>    4.0024    1.0000 </r>
       <r>    5.7891    1.0000 </r>
       <r>    6.0737    1.0000 </r>
       <r>    6.7294    1.0000 </r>
       <r>    7.4143    1.0000 </r>
       <r>    7.9329    1.0000 </r>
       <r>    8.1900    1.0000 </r>
       <r>    8.2408    1.0000 </r>
       <r>    8.3957    1.0000 </r>
       <r>   10.1802   -0.0000 </r>
       <r>   13.1985   -0.0000 </r>
       <r>   18.9215    0.0000 </r>
       <r>   29.8350    0.0000 </r>
       <r>   34.2549    0.0000 </r>
       <r>   35.2279    0.0000 </r>
       <r>   35.5347    0.0000 </r>
       <r>   35.7189    0.0000 </r>
       <r>   40.8151    0.0000 </r>
       <r>   42.1518    0.0000 </r>
       <r>   42.6801    0.0000 </r>
       <r>   43.8200    0.0000 </r>
       <r>   46.9351    0.0000 </r>
       <r>   48.6294    0.0000 </r>
       <r>   51.0483    0.0000 </r>
       <r>   51.3310    0.0000 </r>
       <r>   52.6132    0.0000 </r>
       <r>   55.3273    0.0000 </r>
       <r>   57.8211    0.0000 </r>
       <r>   60.0052    0.0000 </r>
       <r>   60.7886    0.0000 </r>
       <r>   61.5472    0.0000 </r>
       <r>   62.6152    0.0000 </r>
       <r>   63.6343    0.0000 </r>
       <r>   64.6342    0.0000 </r>
       <r>   65.7232    0.0000 </r>
       <r>   68.2927    0.0000 </r>
       <r>   70.8569    0.0000 </r>
       <r>   71.8900    0.0000 </r>
       <r>   73.1891    0.0000 </r>
      </set>
      <set comment="kpoint 20">
       <r>    2.1053    1.0000 </r>
       <r>    4.2256    1.0000 </r>
       <r>    4.7802    1.0000 </r>
       <r>    6.0361    1.0000 </r>
       <r>    6.5346    1.0000 </r>
       <r>    7.5108    1.0000 </r>
       <r>    7.8346    1.0000 </r>
       <r>    8.5369    1.0002 </r>
       <r>    8.9999    0.8894 </r>
       <r>    9.2153    0.1082 </r>
       <r>   10.2181   -0.0000 </r>
       <r>   15.2123    0.0000 </r>
       <r>   19.3715    0.0000 </r>
       <r>   25.7264    0.0000 </r>
       <r>   31.0206    0.0000 </r>
       <r>   32.5167    0.0000 </r>
       <r>   33.7153    0.0000 </r>
       <r>   35.7514    0.0000 </r>
       <r>   39.4946    0.0000 </r>
       <r>   41.6711    0.0000 </r>
       <r>   41.8672    0.0000 </r>
       <r>   44.2221    0.0000 </r>
       <r>   45.0557    0.0000 </r>
       <r>   48.7044    0.0000 </r>
       <r>   54.3886    0.0000 </r>
       <r>   55.5649    0.0000 </r>
       <r>   56.1497    0.0000 </r>
       <r>   56.4835    0.0000 </r>
       <r>   60.2129    0.0000 </r>
       <r>   60.6998    0.0000 </r>
       <r>   62.1477    0.0000 </r>
       <r>   62.8783    0.0000 </r>
       <r>   63.1032    0.0000 </r>
       <r>   63.7811    0.0000 </r>
       <r>   65.1816    0.0000 </r>
       <r>   67.5020    0.0000 </r>
       <r>   68.5630    0.0000 </r>
       <r>   71.5717    0.0000 </r>
       <r>   71.8253    0.0000 </r>
       <r>   74.3477    0.0000 </r>
      </set>
      <set comment="kpoint 21">
       <r>    3.1020    1.0000 </r>
       <r>    3.7942    1.0000 </r>
       <r>    4.2251    1.0000 </r>
       <r>    6.0162    1.0000 </r>
       <r>    7.1093    1.0000 </r>
       <r>    7.3717    1.0000 </r>
       <r>    7.5281    1.0000 </r>
       <r>    9.9831   -0.0000 </r>
       <r>   10.0312   -0.0000 </r>
       <r>   10.0468   -0.0000 </r>
       <r>   10.2870   -0.0000 </r>
       <r>   16.7826    0.0000 </r>
       <r>   19.8602    0.0000 </r>
       <r>   22.8043    0.0000 </r>
       <r>   27.6508    0.0000 </r>
       <r>   30.4191    0.0000 </r>
       <r>   31.1119    0.0000 </r>
       <r>   34.9635    0.0000 </r>
       <r>   38.4984    0.0000 </r>
       <r>   40.5026    0.0000 </r>
       <r>   42.7829    0.0000 </r>
       <r>   43.6811    0.0000 </r>
       <r>   45.7229    0.0000 </r>
       <r>   48.9211    0.0000 </r>
       <r>   54.5799    0.0000 </r>
       <r>   57.5662    0.0000 </r>
       <r>   58.4692    0.0000 </r>
       <r>   59.7463    0.0000 </r>
       <r>   60.7634    0.0000 </r>
       <r>   62.3295    0.0000 </r>
       <r>   62.9299    0.0000 </r>
       <r>   64.1628    0.0000 </r>
       <r>   64.8702    0.0000 </r>
       <r>   65.5587    0.0000 </r>
       <r>   66.0303    0.0000 </r>
       <r>   67.7685    0.0000 </r>
       <r>   71.1275    0.0000 </r>
       <r>   72.3224    0.0000 </r>
       <r>   72.8438    0.0000 </r>
       <r>   74.0081    0.0000 </r>
      </set>
      <set comment="kpoint 22">
       <r>    3.2808    1.0000 </r>
       <r>    3.4131    1.0000 </r>
       <r>    4.0867    1.0000 </r>
       <r>    6.0993    1.0000 </r>
       <r>    7.3492    1.0000 </r>
       <r>    7.3535    1.0000 </r>
       <r>    7.8007    1.0000 </r>
       <r>   10.1710   -0.0000 </r>
       <r>   10.6112   -0.0000 </r>
       <r>   10.7549   -0.0000 </r>
       <r>   12.0115   -0.0000 </r>
       <r>   15.9017    0.0000 </r>
       <r>   20.6519    0.0000 </r>
       <r>   22.6465    0.0000 </r>
       <r>   25.4064    0.0000 </r>
       <r>   28.3762    0.0000 </r>
       <r>   29.2331    0.0000 </r>
       <r>   34.3044    0.0000 </r>
       <r>   38.1239    0.0000 </r>
       <r>   39.5826    0.0000 </r>
       <r>   43.1929    0.0000 </r>
       <r>   44.4272    0.0000 </r>
       <r>   45.9509    0.0000 </r>
       <r>   49.7957    0.0000 </r>
       <r>   52.3856    0.0000 </r>
       <r>   58.3742    0.0000 </r>
       <r>   59.0825    0.0000 </r>
       <r>   61.5303    0.0000 </r>
       <r>   62.1512    0.0000 </r>
       <r>   63.5836    0.0000 </r>
       <r>   64.1969    0.0000 </r>
       <r>   64.5278    0.0000 </r>
       <r>   66.4455    0.0000 </r>
       <r>   67.2047    0.0000 </r>
       <r>   69.1063    0.0000 </r>
       <r>   70.2707    0.0000 </r>
       <r>   71.4388    0.0000 </r>
       <r>   72.3066    0.0000 </r>
       <r>   74.1198    0.0000 </r>
       <r>   74.3312    0.0000 </r>
      </set>
      <set comment="kpoint 23">
       <r>    0.3740    1.0000 </r>
       <r>    3.8408    1.0000 </r>
       <r>    6.1012    1.0000 </r>
       <r>    6.1267    1.0000 </r>
       <r>    6.9770    1.0000 </r>
       <r>    7.0884    1.0000 </r>
       <r>    7.7824    1.0000 </r>
       <r>    8.0424    1.0000 </r>
       <r>    8.2528    1.0000 </r>
       <r>    8.5686    1.0005 </r>
       <r>   10.1251   -0.0000 </r>
       <r>   12.6699   -0.0000 </r>
       <r>   18.8539    0.0000 </r>
       <r>   31.4101    0.0000 </r>
       <r>   33.2726    0.0000 </r>
       <r>   34.9669    0.0000 </r>
       <r>   36.4163    0.0000 </r>
       <r>   39.1419    0.0000 </r>
       <r>   39.5282    0.0000 </r>
       <r>   40.5329    0.0000 </r>
       <r>   43.1377    0.0000 </r>
       <r>   47.1569    0.0000 </r>
       <r>   47.6543    0.0000 </r>
       <r>   48.1653    0.0000 </r>
       <r>   48.8043    0.0000 </r>
       <r>   50.3100    0.0000 </r>
       <r>   50.6154    0.0000 </r>
       <r>   55.4787    0.0000 </r>
       <r>   57.8173    0.0000 </r>
       <r>   59.0865    0.0000 </r>
       <r>   59.6534    0.0000 </r>
       <r>   61.4192    0.0000 </r>
       <r>   61.6136    0.0000 </r>
       <r>   64.7511    0.0000 </r>
       <r>   65.1962    0.0000 </r>
       <r>   65.9838    0.0000 </r>
       <r>   67.0764    0.0000 </r>
       <r>   71.2787    0.0000 </r>
       <r>   71.9274    0.0000 </r>
       <r>   72.5735    0.0000 </r>
      </set>
      <set comment="kpoint 24">
       <r>    1.6436    1.0000 </r>
       <r>    4.4596    1.0000 </r>
       <r>    5.1316    1.0000 </r>
       <r>    5.7439    1.0000 </r>
       <r>    6.6497    1.0000 </r>
       <r>    7.2747    1.0000 </r>
       <r>    7.8638    1.0000 </r>
       <r>    8.1404    1.0000 </r>
       <r>    8.7970    1.0254 </r>
       <r>    9.1086    0.4939 </r>
       <r>   10.1282   -0.0000 </r>
       <r>   14.5532   -0.0000 </r>
       <r>   19.2217    0.0000 </r>
       <r>   27.8141    0.0000 </r>
       <r>   30.6894    0.0000 </r>
       <r>   32.9286    0.0000 </r>
       <r>   35.0639    0.0000 </r>
       <r>   37.0246    0.0000 </r>
       <r>   39.2533    0.0000 </r>
       <r>   40.4425    0.0000 </r>
       <r>   42.1588    0.0000 </r>
       <r>   46.0041    0.0000 </r>
       <r>   47.5050    0.0000 </r>
       <r>   48.8101    0.0000 </r>
       <r>   51.0684    0.0000 </r>
       <r>   51.9359    0.0000 </r>
       <r>   54.2950    0.0000 </r>
       <r>   57.8538    0.0000 </r>
       <r>   59.7982    0.0000 </r>
       <r>   61.1489    0.0000 </r>
       <r>   61.6816    0.0000 </r>
       <r>   62.4157    0.0000 </r>
       <r>   62.7714    0.0000 </r>
       <r>   63.9604    0.0000 </r>
       <r>   65.4534    0.0000 </r>
       <r>   65.8833    0.0000 </r>
       <r>   67.5544    0.0000 </r>
       <r>   71.9506    0.0000 </r>
       <r>   72.0449    0.0000 </r>
       <r>   73.5177    0.0000 </r>
      </set>
      <set comment="kpoint 25">
       <r>    2.9749    1.0000 </r>
       <r>    4.2492    1.0000 </r>
       <r>    4.4342    1.0000 </r>
       <r>    5.8351    1.0000 </r>
       <r>    6.7156    1.0000 </r>
       <r>    7.1632    1.0000 </r>
       <r>    7.7107    1.0000 </r>
       <r>    8.6745    1.0046 </r>
       <r>    9.7485   -0.0000 </r>
       <r>   10.0050   -0.0000 </r>
       <r>   10.4148   -0.0000 </r>
       <r>   16.4347    0.0000 </r>
       <r>   19.9239    0.0000 </r>
       <r>   24.0042    0.0000 </r>
       <r>   28.7574    0.0000 </r>
       <r>   29.5189    0.0000 </r>
       <r>   33.5087    0.0000 </r>
       <r>   34.3157    0.0000 </r>
       <r>   39.7156    0.0000 </r>
       <r>   40.1645    0.0000 </r>
       <r>   41.5674    0.0000 </r>
       <r>   45.4364    0.0000 </r>
       <r>   47.2509    0.0000 </r>
       <r>   49.8033    0.0000 </r>
       <r>   53.1586    0.0000 </r>
       <r>   54.7602    0.0000 </r>
       <r>   57.1174    0.0000 </r>
       <r>   58.9231    0.0000 </r>
       <r>   60.0145    0.0000 </r>
       <r>   61.2572    0.0000 </r>
       <r>   62.6357    0.0000 </r>
       <r>   63.9670    0.0000 </r>
       <r>   64.9594    0.0000 </r>
       <r>   65.3159    0.0000 </r>
       <r>   66.3121    0.0000 </r>
       <r>   67.2804    0.0000 </r>
       <r>   70.6135    0.0000 </r>
       <r>   71.7922    0.0000 </r>
       <r>   72.8070    0.0000 </r>
       <r>   73.3245    0.0000 </r>
      </set>
      <set comment="kpoint 26">
       <r>    3.4730    1.0000 </r>
       <r>    3.7654    1.0000 </r>
       <r>    4.2483    1.0000 </r>
       <r>    5.9910    1.0000 </r>
       <r>    7.1183    1.0000 </r>
       <r>    7.2616    1.0000 </r>
       <r>    7.4902    1.0000 </r>
       <r>    9.8106   -0.0000 </r>
       <r>   10.0351   -0.0000 </r>
       <r>   10.4343   -0.0000 </r>
       <r>   11.8323   -0.0000 </r>
       <r>   17.1297    0.0000 </r>
       <r>   20.3073    0.0000 </r>
       <r>   22.7215    0.0000 </r>
       <r>   26.3548    0.0000 </r>
       <r>   27.4769    0.0000 </r>
       <r>   30.3538    0.0000 </r>
       <r>   33.2014    0.0000 </r>
       <r>   38.7192    0.0000 </r>
       <r>   40.2079    0.0000 </r>
       <r>   42.4086    0.0000 </r>
       <r>   45.2233    0.0000 </r>
       <r>   48.0669    0.0000 </r>
       <r>   49.5874    0.0000 </r>
       <r>   53.8402    0.0000 </r>
       <r>   56.0087    0.0000 </r>
       <r>   57.9825    0.0000 </r>
       <r>   60.4577    0.0000 </r>
       <r>   61.9291    0.0000 </r>
       <r>   62.4494    0.0000 </r>
       <r>   63.2659    0.0000 </r>
       <r>   64.3311    0.0000 </r>
       <r>   64.7701    0.0000 </r>
       <r>   67.5299    0.0000 </r>
       <r>   68.9813    0.0000 </r>
       <r>   69.8518    0.0000 </r>
       <r>   70.5492    0.0000 </r>
       <r>   72.7337    0.0000 </r>
       <r>   73.1970    0.0000 </r>
       <r>   75.2662    0.0000 </r>
      </set>
      <set comment="kpoint 27">
       <r>    3.4722    1.0000 </r>
       <r>    3.5570    1.0000 </r>
       <r>    4.2393    1.0000 </r>
       <r>    6.0755    1.0000 </r>
       <r>    7.0509    1.0000 </r>
       <r>    7.5434    1.0000 </r>
       <r>    7.5727    1.0000 </r>
       <r>   10.0235   -0.0000 </r>
       <r>   10.4863   -0.0000 </r>
       <r>   10.5282   -0.0000 </r>
       <r>   13.1798   -0.0000 </r>
       <r>   15.7560    0.0000 </r>
       <r>   21.5061    0.0000 </r>
       <r>   22.6291    0.0000 </r>
       <r>   25.4519    0.0000 </r>
       <r>   26.5661    0.0000 </r>
       <r>   28.6751    0.0000 </r>
       <r>   32.8354    0.0000 </r>
       <r>   38.2676    0.0000 </r>
       <r>   40.0971    0.0000 </r>
       <r>   43.0058    0.0000 </r>
       <r>   45.2943    0.0000 </r>
       <r>   47.8521    0.0000 </r>
       <r>   50.8225    0.0000 </r>
       <r>   52.1028    0.0000 </r>
       <r>   56.6137    0.0000 </r>
       <r>   59.0371    0.0000 </r>
       <r>   60.8730    0.0000 </r>
       <r>   62.4700    0.0000 </r>
       <r>   62.9702    0.0000 </r>
       <r>   64.4451    0.0000 </r>
       <r>   64.4822    0.0000 </r>
       <r>   65.8516    0.0000 </r>
       <r>   67.2279    0.0000 </r>
       <r>   69.1481    0.0000 </r>
       <r>   71.5117    0.0000 </r>
       <r>   72.0322    0.0000 </r>
       <r>   72.4546    0.0000 </r>
       <r>   73.8875    0.0000 </r>
       <r>   75.9375    0.0000 </r>
      </set>
      <set comment="kpoint 28">
       <r>    2.9769    1.0000 </r>
       <r>    4.5306    1.0000 </r>
       <r>    5.0018    1.0000 </r>
       <r>    5.1668    1.0000 </r>
       <r>    6.7855    1.0000 </r>
       <r>    6.8183    1.0000 </r>
       <r>    7.8559    1.0000 </r>
       <r>    8.0607    1.0000 </r>
       <r>    9.7401   -0.0000 </r>
       <r>    9.8845   -0.0000 </r>
       <r>   10.4947   -0.0000 </r>
       <r>   16.3045    0.0000 </r>
       <r>   20.0024    0.0000 </r>
       <r>   25.6315    0.0000 </r>
       <r>   26.7439    0.0000 </r>
       <r>   30.8613    0.0000 </r>
       <r>   32.8020    0.0000 </r>
       <r>   36.2670    0.0000 </r>
       <r>   36.9224    0.0000 </r>
       <r>   40.1808    0.0000 </r>
       <r>   43.6081    0.0000 </r>
       <r>   48.1870    0.0000 </r>
       <r>   48.5227    0.0000 </r>
       <r>   49.8432    0.0000 </r>
       <r>   50.2505    0.0000 </r>
       <r>   53.8327    0.0000 </r>
       <r>   54.3238    0.0000 </r>
       <r>   59.1594    0.0000 </r>
       <r>   59.8095    0.0000 </r>
       <r>   61.1695    0.0000 </r>
       <r>   62.5228    0.0000 </r>
       <r>   64.2934    0.0000 </r>
       <r>   64.4064    0.0000 </r>
       <r>   65.6748    0.0000 </r>
       <r>   66.4059    0.0000 </r>
       <r>   68.6157    0.0000 </r>
       <r>   69.2407    0.0000 </r>
       <r>   71.6807    0.0000 </r>
       <r>   72.1904    0.0000 </r>
       <r>   73.7109    0.0000 </r>
      </set>
      <set comment="kpoint 29">
       <r>    3.9684    1.0000 </r>
       <r>    4.3046    1.0000 </r>
       <r>    4.5724    1.0000 </r>
       <r>    5.4870    1.0000 </r>
       <r>    6.5981    1.0000 </r>
       <r>    7.1130    1.0000 </r>
       <r>    7.4241    1.0000 </r>
       <r>    8.7319    1.0117 </r>
       <r>    9.7930   -0.0000 </r>
       <r>   10.3743   -0.0000 </r>
       <r>   12.0579   -0.0000 </r>
       <r>   18.0278    0.0000 </r>
       <r>   20.9766    0.0000 </r>
       <r>   22.8066    0.0000 </r>
       <r>   24.8956    0.0000 </r>
       <r>   28.2697    0.0000 </r>
       <r>   30.9798    0.0000 </r>
       <r>   32.7094    0.0000 </r>
       <r>   35.7334    0.0000 </r>
       <r>   41.8662    0.0000 </r>
       <r>   44.4558    0.0000 </r>
       <r>   47.8000    0.0000 </r>
       <r>   49.5351    0.0000 </r>
       <r>   51.4611    0.0000 </r>
       <r>   52.2778    0.0000 </r>
       <r>   53.3522    0.0000 </r>
       <r>   56.7175    0.0000 </r>
       <r>   57.5222    0.0000 </r>
       <r>   59.9500    0.0000 </r>
       <r>   62.2199    0.0000 </r>
       <r>   63.4884    0.0000 </r>
       <r>   64.1824    0.0000 </r>
       <r>   64.9027    0.0000 </r>
       <r>   67.4501    0.0000 </r>
       <r>   68.8051    0.0000 </r>
       <r>   69.7629    0.0000 </r>
       <r>   70.8420    0.0000 </r>
       <r>   72.9632    0.0000 </r>
       <r>   74.1817    0.0000 </r>
       <r>   75.1456    0.0000 </r>
      </set>
      <set comment="kpoint 30">
       <r>    3.8477    1.0000 </r>
       <r>    4.2133    1.0000 </r>
       <r>    4.6555    1.0000 </r>
       <r>    5.8638    1.0000 </r>
       <r>    6.6825    1.0000 </r>
       <r>    6.9544    1.0000 </r>
       <r>    7.5974    1.0000 </r>
       <r>    9.6118   -0.0010 </r>
       <r>    9.7230   -0.0001 </r>
       <r>   10.3766   -0.0000 </r>
       <r>   13.9153   -0.0000 </r>
       <r>   17.3057    0.0000 </r>
       <r>   21.5794    0.0000 </r>
       <r>   23.4100    0.0000 </r>
       <r>   23.7605    0.0000 </r>
       <r>   26.1295    0.0000 </r>
       <r>   29.5729    0.0000 </r>
       <r>   30.2442    0.0000 </r>
       <r>   35.0927    0.0000 </r>
       <r>   43.1410    0.0000 </r>
       <r>   44.8803    0.0000 </r>
       <r>   46.8671    0.0000 </r>
       <r>   50.3245    0.0000 </r>
       <r>   51.1720    0.0000 </r>
       <r>   53.9350    0.0000 </r>
       <r>   54.4596    0.0000 </r>
       <r>   56.9423    0.0000 </r>
       <r>   58.5282    0.0000 </r>
       <r>   61.5193    0.0000 </r>
       <r>   61.8334    0.0000 </r>
       <r>   63.0707    0.0000 </r>
       <r>   64.6660    0.0000 </r>
       <r>   64.8493    0.0000 </r>
       <r>   66.2105    0.0000 </r>
       <r>   69.7295    0.0000 </r>
       <r>   71.1131    0.0000 </r>
       <r>   72.8372    0.0000 </r>
       <r>   73.3047    0.0000 </r>
       <r>   73.6537    0.0000 </r>
       <r>   75.4523    0.0000 </r>
      </set>
      <set comment="kpoint 31">
       <r>    4.1166    1.0000 </r>
       <r>    4.7888    1.0000 </r>
       <r>    5.1426    1.0000 </r>
       <r>    5.1998    1.0000 </r>
       <r>    6.4419    1.0000 </r>
       <r>    6.7965    1.0000 </r>
       <r>    7.5645    1.0000 </r>
       <r>    9.0793    0.6167 </r>
       <r>    9.5682   -0.0026 </r>
       <r>   10.3431   -0.0000 </r>
       <r>   14.1239   -0.0000 </r>
       <r>   19.3015    0.0000 </r>
       <r>   20.3842    0.0000 </r>
       <r>   22.1812    0.0000 </r>
       <r>   24.2543    0.0000 </r>
       <r>   27.5170    0.0000 </r>
       <r>   27.9542    0.0000 </r>
       <r>   31.4958    0.0000 </r>
       <r>   32.4087    0.0000 </r>
       <r>   43.6463    0.0000 </r>
       <r>   46.7606    0.0000 </r>
       <r>   49.7697    0.0000 </r>
       <r>   50.0900    0.0000 </r>
       <r>   52.3074    0.0000 </r>
       <r>   52.5234    0.0000 </r>
       <r>   53.9157    0.0000 </r>
       <r>   56.4940    0.0000 </r>
       <r>   58.0420    0.0000 </r>
       <r>   58.3546    0.0000 </r>
       <r>   61.5575    0.0000 </r>
       <r>   62.5607    0.0000 </r>
       <r>   64.8022    0.0000 </r>
       <r>   65.1741    0.0000 </r>
       <r>   66.0931    0.0000 </r>
       <r>   70.0040    0.0000 </r>
       <r>   71.2293    0.0000 </r>
       <r>   71.3341    0.0000 </r>
       <r>   73.2829    0.0000 </r>
       <r>   74.8665    0.0000 </r>
       <r>   76.0510    0.0000 </r>
      </set>
      <set comment="kpoint 32">
       <r>    4.1483    1.0000 </r>
       <r>    4.8986    1.0000 </r>
       <r>    5.0596    1.0000 </r>
       <r>    5.5495    1.0000 </r>
       <r>    6.4100    1.0000 </r>
       <r>    6.5369    1.0000 </r>
       <r>    7.7376    1.0000 </r>
       <r>    9.4816   -0.0118 </r>
       <r>    9.5500   -0.0038 </r>
       <r>    9.9440   -0.0000 </r>
       <r>   16.0641    0.0000 </r>
       <r>   17.6340    0.0000 </r>
       <r>   19.9168    0.0000 </r>
       <r>   24.0213    0.0000 </r>
       <r>   24.1019    0.0000 </r>
       <r>   26.4575    0.0000 </r>
       <r>   27.6043    0.0000 </r>
       <r>   29.6633    0.0000 </r>
       <r>   31.7962    0.0000 </r>
       <r>   44.4930    0.0000 </r>
       <r>   47.4145    0.0000 </r>
       <r>   49.5996    0.0000 </r>
       <r>   50.2885    0.0000 </r>
       <r>   52.5397    0.0000 </r>
       <r>   53.4438    0.0000 </r>
       <r>   55.0603    0.0000 </r>
       <r>   56.9913    0.0000 </r>
       <r>   57.9333    0.0000 </r>
       <r>   58.3596    0.0000 </r>
       <r>   61.0086    0.0000 </r>
       <r>   62.0037    0.0000 </r>
       <r>   63.0827    0.0000 </r>
       <r>   65.1326    0.0000 </r>
       <r>   65.5791    0.0000 </r>
       <r>   69.4364    0.0000 </r>
       <r>   71.3269    0.0000 </r>
       <r>   73.3130    0.0000 </r>
       <r>   73.6792    0.0000 </r>
       <r>   75.1900    0.0000 </r>
       <r>   75.2016    0.0000 </r>
      </set>
      <set comment="kpoint 33">
       <r>   -0.4497    1.0000 </r>
       <r>    2.9661    1.0000 </r>
       <r>    6.1787    1.0000 </r>
       <r>    7.0337    1.0000 </r>
       <r>    7.0337    1.0000 </r>
       <r>    7.3939    1.0000 </r>
[...]
       <r>   26.1243    0.0000 </r>
       <r>   26.9206    0.0000 </r>
       <r>   31.3929    0.0000 </r>
       <r>   32.6076    0.0000 </r>
       <r>   37.7718    0.0000 </r>
       <r>   38.8995    0.0000 </r>
       <r>   41.2012    0.0000 </r>
       <r>   42.8722    0.0000 </r>
       <r>   48.5693    0.0000 </r>
       <r>   49.0194    0.0000 </r>
       <r>   58.6706    0.0000 </r>
       <r>   59.1066    0.0000 </r>
       <r>   59.6432    0.0000 </r>
       <r>   61.1611    0.0000 </r>
       <r>   62.5615    0.0000 </r>
       <r>   63.0105    0.0000 </r>
       <r>   63.1741    0.0000 </r>
       <r>   63.8736    0.0000 </r>
       <r>   66.2862    0.0000 </r>
       <r>   66.3612    0.0000 </r>
       <r>   68.9316    0.0000 </r>
       <r>   69.7261    0.0000 </r>
       <r>   71.5017    0.0000 </r>
       <r>   72.0484    0.0000 </r>
       <r>   73.1527    0.0000 </r>
       <r>   74.2904    0.0000 </r>
      </set>
      <set comment="kpoint 95">
       <r>    4.2218    1.0000 </r>
       <r>    4.3191    1.0000 </r>
       <r>    5.4637    1.0000 </r>
       <r>    5.7236    1.0000 </r>
       <r>    6.2574    1.0000 </r>
       <r>    6.5295    1.0000 </r>
       <r>    7.9695    1.0000 </r>
       <r>    8.2124    1.0000 </r>
       <r>   10.1508   -0.0000 </r>
       <r>   10.3918   -0.0000 </r>
       <r>   15.1381    0.0000 </r>
       <r>   15.7089    0.0000 </r>
       <r>   22.0495    0.0000 </r>
       <r>   22.5439    0.0000 </r>
       <r>   24.3067    0.0000 </r>
       <r>   24.7693    0.0000 </r>
       <r>   31.6478    0.0000 </r>
       <r>   33.3913    0.0000 </r>
       <r>   37.7319    0.0000 </r>
       <r>   39.2776    0.0000 </r>
       <r>   40.9753    0.0000 </r>
       <r>   42.2448    0.0000 </r>
       <r>   50.6205    0.0000 </r>
       <r>   51.0857    0.0000 </r>
       <r>   55.9785    0.0000 </r>
       <r>   56.0019    0.0000 </r>
       <r>   61.7072    0.0000 </r>
       <r>   62.5466    0.0000 </r>
       <r>   62.9580    0.0000 </r>
       <r>   63.2661    0.0000 </r>
       <r>   63.9964    0.0000 </r>
       <r>   64.1848    0.0000 </r>
       <r>   64.8706    0.0000 </r>
       <r>   65.7113    0.0000 </r>
       <r>   69.0984    0.0000 </r>
       <r>   69.1399    0.0000 </r>
       <r>   71.2412    0.0000 </r>
       <r>   71.5408    0.0000 </r>
       <r>   71.8870    0.0000 </r>
       <r>   72.7367    0.0000 </r>
      </set>
      <set comment="kpoint 96">
       <r>    4.4694    1.0000 </r>
       <r>    4.6410    1.0000 </r>
       <r>    5.3521    1.0000 </r>
       <r>    5.4420    1.0000 </r>
       <r>    6.2904    1.0000 </r>
       <r>    6.4463    1.0000 </r>
       <r>    8.0425    1.0000 </r>
       <r>    8.2234    1.0000 </r>
       <r>   10.1222   -0.0000 </r>
       <r>   10.2102   -0.0000 </r>
       <r>   17.1446    0.0000 </r>
       <r>   17.3171    0.0000 </r>
       <r>   20.2513    0.0000 </r>
       <r>   20.6570    0.0000 </r>
       <r>   23.6454    0.0000 </r>
       <r>   24.0957    0.0000 </r>
       <r>   33.3635    0.0000 </r>
       <r>   34.3931    0.0000 </r>
       <r>   36.8860    0.0000 </r>
       <r>   37.0156    0.0000 </r>
       <r>   40.7697    0.0000 </r>
       <r>   41.6530    0.0000 </r>
       <r>   52.0608    0.0000 </r>
       <r>   52.7299    0.0000 </r>
       <r>   56.8444    0.0000 </r>
       <r>   57.2714    0.0000 </r>
       <r>   60.6267    0.0000 </r>
       <r>   60.9823    0.0000 </r>
       <r>   63.0233    0.0000 </r>
       <r>   63.4865    0.0000 </r>
       <r>   64.1597    0.0000 </r>
       <r>   64.2886    0.0000 </r>
       <r>   65.7204    0.0000 </r>
       <r>   66.1421    0.0000 </r>
       <r>   67.3127    0.0000 </r>
       <r>   68.6508    0.0000 </r>
       <r>   70.5733    0.0000 </r>
       <r>   72.5757    0.0000 </r>
       <r>   74.0859    0.0000 </r>
       <r>   74.6219    0.0000 </r>
      </set>
     </set>
    </set>
   </array>
  </eigenvalues>
  <separator name="orbital magnetization" >
   <v name="MAGDIPOLOUT">      0.00000000      0.00000000      0.00000000</v>
  </separator>
  <dos>
   <i name="efermi">      9.10713352 </i>
   <total>
    <array>
     <dimension dim="1">gridpoints</dimension>
     <dimension dim="2">spin</dimension>
     <field>energy</field>
     <field>total</field>
     <field>integrated</field>
     <set>
      <set comment="spin 1">
       <r>    -4.6711     0.0000     0.0000 </r>
       <r>    -4.3885     0.0000     0.0000 </r>
       <r>    -4.1058     0.0000     0.0000 </r>
       <r>    -3.8232     0.0000     0.0000 </r>
       <r>    -3.5405     0.0000     0.0000 </r>
       <r>    -3.2579     0.0000     0.0000 </r>
       <r>    -2.9753     0.0000     0.0000 </r>
       <r>    -2.6926    -0.0000    -0.0000 </r>
       <r>    -2.4100    -0.0000    -0.0000 </r>
       <r>    -2.1273    -0.0000    -0.0000 </r>
       <r>    -1.8447    -0.0000    -0.0000 </r>
       <r>    -1.5621    -0.0000    -0.0000 </r>
       <r>    -1.2794    -0.0000    -0.0000 </r>
       <r>    -0.9968    -0.0004    -0.0001 </r>
       <r>    -0.7141     0.0086     0.0023 </r>
       <r>    -0.4315     0.0405     0.0138 </r>
       <r>    -0.1488     0.0908     0.0394 </r>
       <r>     0.1338     0.0549     0.0549 </r>
       <r>     0.4164     0.1198     0.0888 </r>
       <r>     0.6991     0.1558     0.1328 </r>
       <r>     0.9817     0.1741     0.1820 </r>
       <r>     1.2644     0.0978     0.2097 </r>
       <r>     1.5470     0.1499     0.2521 </r>
       <r>     1.8296     0.3239     0.3436 </r>
       <r>     2.1123     0.2470     0.4134 </r>
       <r>     2.3949     0.3394     0.5094 </r>
       <r>     2.6776     0.2003     0.5660 </r>
       <r>     2.9602     0.6353     0.7455 </r>
       <r>     3.2429     1.8815     1.2773 </r>
       <r>     3.5255     1.7327     1.7670 </r>
       <r>     3.8081     2.3543     2.4325 </r>
       <r>     4.0908     2.1774     3.0479 </r>
       <r>     4.3734     2.6000     3.7828 </r>
       <r>     4.6561     1.8650     4.3099 </r>
       <r>     4.9387     2.3217     4.9661 </r>
       <r>     5.2213     2.6844     5.7248 </r>
       <r>     5.5040     2.4814     6.4262 </r>
       <r>     5.7866     2.4457     7.1174 </r>
       <r>     6.0693     1.8338     7.6357 </r>
       <r>     6.3519     1.9158     8.1772 </r>
       <r>     6.6346     2.9872     9.0215 </r>
       <r>     6.9172     2.9895     9.8664 </r>
       <r>     7.1998     3.0720    10.7347 </r>
       <r>     7.4825     3.1158    11.6154 </r>
       <r>     7.7651     2.9807    12.4579 </r>
       <r>     8.0478     3.0929    13.3320 </r>
       <r>     8.3304     2.5729    14.0592 </r>
       <r>     8.6130     2.2554    14.6967 </r>
       <r>     8.8957     2.8447    15.5007 </r>
       <r>     9.1783     2.2888    16.1477 </r>
       <r>     9.4610     1.9324    16.6939 </r>
       <r>     9.7436     3.1298    17.5785 </r>
       <r>    10.0262     3.8873    18.6772 </r>
       <r>    10.3089     3.7000    19.7230 </r>
       <r>    10.5915     3.6290    20.7487 </r>
       <r>    10.8742     1.6773    21.2227 </r>
       <r>    11.1568     0.1087    21.2535 </r>
       <r>    11.4395     0.2887    21.3351 </r>
       <r>    11.7221     0.6350    21.5145 </r>
       <r>    12.0047     0.6241    21.6909 </r>
       <r>    12.2874     0.5967    21.8596 </r>
       <r>    12.5700     0.5263    22.0083 </r>
       <r>    12.8527     0.5376    22.1603 </r>
       <r>    13.1353     0.2588    22.2334 </r>
       <r>    13.4179     0.2821    22.3131 </r>
       <r>    13.7006     0.3690    22.4174 </r>
       <r>    13.9832     0.5369    22.5692 </r>
       <r>    14.2659     0.5701    22.7303 </r>
       <r>    14.5485     0.3683    22.8344 </r>
       <r>    14.8312     0.2802    22.9136 </r>
       <r>    15.1138     0.4578    23.0430 </r>
       <r>    15.3964     0.4345    23.1658 </r>
       <r>    15.6791     0.1671    23.2131 </r>
       <r>    15.9617     0.3201    23.3036 </r>
       <r>    16.2444     0.2757    23.3815 </r>
       <r>    16.5270     0.4014    23.4949 </r>
       <r>    16.8096     0.2530    23.5665 </r>
       <r>    17.0923     0.2490    23.6368 </r>
       <r>    17.3749     0.3791    23.7440 </r>
       <r>    17.6576     0.4286    23.8651 </r>
       <r>    17.9402     0.1203    23.8991 </r>
       <r>    18.2229     0.1266    23.9349 </r>
       <r>    18.5055     0.2305    24.0001 </r>
       <r>    18.7881     0.1859    24.0526 </r>
       <r>    19.0708     0.1776    24.1028 </r>
       <r>    19.3534     0.2136    24.1632 </r>
       <r>    19.6361     0.1355    24.2015 </r>
       <r>    19.9187     0.3724    24.3067 </r>
       <r>    20.2013     0.5040    24.4492 </r>
       <r>    20.4840     0.2814    24.5287 </r>
       <r>    20.7666     0.6887    24.7234 </r>
       <r>    21.0493     0.9184    24.9829 </r>
       <r>    21.3319     0.6123    25.1560 </r>
       <r>    21.6145     0.6638    25.3436 </r>
       <r>    21.8972     0.4112    25.4598 </r>
       <r>    22.1798     0.7212    25.6637 </r>
       <r>    22.4625     0.3429    25.7606 </r>
       <r>    22.7451     0.9795    26.0375 </r>
       <r>    23.0278     0.5747    26.1999 </r>
       <r>    23.3104     0.6296    26.3779 </r>
       <r>    23.5930     0.7496    26.5897 </r>
       <r>    23.8757     0.5399    26.7423 </r>
       <r>    24.1583     0.6886    26.9370 </r>
       <r>    24.4410     0.5631    27.0961 </r>
       <r>    24.7236     0.6318    27.2747 </r>
       <r>    25.0062     0.6949    27.4711 </r>
       <r>    25.2889     0.3862    27.5803 </r>
       <r>    25.5715     0.6824    27.7732 </r>
       <r>    25.8542     0.4955    27.9132 </r>
       <r>    26.1368     0.6166    28.0875 </r>
       <r>    26.4195     0.5771    28.2506 </r>
       <r>    26.7021     0.6662    28.4389 </r>
       <r>    26.9847     0.5387    28.5912 </r>
       <r>    27.2674     0.6596    28.7776 </r>
       <r>    27.5500     0.6186    28.9525 </r>
       <r>    27.8327     1.0574    29.2513 </r>
       <r>    28.1153     0.9017    29.5062 </r>
       <r>    28.3979     0.6904    29.7013 </r>
       <r>    28.6806     1.0883    30.0089 </r>
       <r>    28.9632     0.4234    30.1286 </r>
       <r>    29.2459     0.5873    30.2946 </r>
       <r>    29.5285     1.0054    30.5788 </r>
       <r>    29.8112     0.9156    30.8376 </r>
       <r>    30.0938     1.0465    31.1334 </r>
       <r>    30.3764     0.8656    31.3780 </r>
       <r>    30.6591     0.6935    31.5740 </r>
       <r>    30.9417     0.9212    31.8344 </r>
       <r>    31.2244     0.9718    32.1090 </r>
       <r>    31.5070     0.9458    32.3764 </r>
       <r>    31.7896     0.9043    32.6320 </r>
       <r>    32.0723     0.5167    32.7780 </r>
       <r>    32.3549     0.6145    32.9517 </r>
       <r>    32.6376     1.1236    33.2693 </r>
       <r>    32.9202     1.0248    33.5590 </r>
       <r>    33.2028     0.5590    33.7170 </r>
       <r>    33.4855     1.2053    34.0577 </r>
       <r>    33.7681     0.7494    34.2695 </r>
       <r>    34.0508     0.2836    34.3496 </r>
       <r>    34.3334     0.5934    34.5173 </r>
       <r>    34.6161     0.9350    34.7816 </r>
       <r>    34.8987     0.5979    34.9506 </r>
       <r>    35.1813     0.7763    35.1700 </r>
       <r>    35.4640     0.4999    35.3113 </r>
       <r>    35.7466     0.6914    35.5067 </r>
       <r>    36.0293     0.6980    35.7040 </r>
       <r>    36.3119     0.5306    35.8539 </r>
       <r>    36.5945     0.5628    36.0130 </r>
       <r>    36.8772     0.4242    36.1329 </r>
       <r>    37.1598     0.6424    36.3145 </r>
       <r>    37.4425     0.7449    36.5250 </r>
       <r>    37.7251     0.5862    36.6907 </r>
       <r>    38.0078     0.7216    36.8946 </r>
       <r>    38.2904     0.7957    37.1195 </r>
       <r>    38.5730     0.6915    37.3150 </r>
       <r>    38.8557     0.8364    37.5514 </r>
       <r>    39.1383     0.8760    37.7990 </r>
       <r>    39.4210     0.6918    37.9945 </r>
       <r>    39.7036     1.0642    38.2953 </r>
       <r>    39.9862     0.5591    38.4533 </r>
       <r>    40.2689     1.0292    38.7442 </r>
       <r>    40.5515     1.0356    39.0369 </r>
       <r>    40.8342     0.7574    39.2509 </r>
       <r>    41.1168     0.7369    39.4592 </r>
       <r>    41.3995     0.5294    39.6088 </r>
       <r>    41.6821     1.2167    39.9527 </r>
       <r>    41.9647     1.0777    40.2574 </r>
       <r>    42.2474     0.8574    40.4997 </r>
       <r>    42.5300     0.9493    40.7680 </r>
       <r>    42.8127     0.6614    40.9550 </r>
       <r>    43.0953     0.7452    41.1656 </r>
       <r>    43.3779     0.6971    41.3626 </r>
       <r>    43.6606     0.6255    41.5394 </r>
       <r>    43.9432     0.8099    41.7683 </r>
       <r>    44.2259     0.7202    41.9719 </r>
       <r>    44.5085     0.7780    42.1918 </r>
       <r>    44.7911     0.5135    42.3369 </r>
       <r>    45.0738     0.5822    42.5015 </r>
       <r>    45.3564     0.8926    42.7538 </r>
       <r>    45.6391     1.2999    43.1212 </r>
       <r>    45.9217     0.5105    43.2655 </r>
       <r>    46.2044     1.0142    43.5521 </r>
       <r>    46.4870     0.6777    43.7437 </r>
       <r>    46.7696     0.4544    43.8721 </r>
       <r>    47.0523     0.6383    44.0525 </r>
       <r>    47.3349     0.6584    44.2386 </r>
       <r>    47.6176     0.7639    44.4545 </r>
       <r>    47.9002     1.0460    44.7501 </r>
       <r>    48.1828     1.1062    45.0628 </r>
       <r>    48.4655     1.0147    45.3496 </r>
       <r>    48.7481     1.1464    45.6736 </r>
       <r>    49.0308     0.9791    45.9503 </r>
       <r>    49.3134     0.9344    46.2144 </r>
       <r>    49.5961     0.5754    46.3770 </r>
       <r>    49.8787     1.4529    46.7877 </r>
       <r>    50.1613     1.1889    47.1237 </r>
       <r>    50.4440     0.9863    47.4025 </r>
       <r>    50.7266     1.0187    47.6904 </r>
       <r>    51.0093     0.8074    47.9186 </r>
       <r>    51.2919     1.0524    48.2161 </r>
       <r>    51.5745     0.9869    48.4950 </r>
       <r>    51.8572     0.7587    48.7094 </r>
       <r>    52.1398     0.8116    48.9388 </r>
       <r>    52.4225     0.8939    49.1915 </r>
       <r>    52.7051     0.7629    49.4071 </r>
       <r>    52.9878     0.5798    49.5710 </r>
       <r>    53.2704     0.5289    49.7205 </r>
       <r>    53.5530     0.9473    49.9883 </r>
       <r>    53.8357     0.9091    50.2452 </r>
       <r>    54.1183     1.0290    50.5361 </r>
       <r>    54.4010     0.9846    50.8144 </r>
       <r>    54.6836     1.1107    51.1283 </r>
       <r>    54.9662     0.8690    51.3739 </r>
       <r>    55.2489     0.9742    51.6493 </r>
       <r>    55.5315     0.9691    51.9232 </r>
       <r>    55.8142     0.9149    52.1818 </r>
       <r>    56.0968     1.0035    52.4654 </r>
       <r>    56.3795     0.8930    52.7178 </r>
       <r>    56.6621     0.6659    52.9060 </r>
       <r>    56.9447     1.0453    53.2015 </r>
       <r>    57.2274     1.4346    53.6069 </r>
       <r>    57.5100     1.3188    53.9797 </r>
       <r>    57.7927     1.2163    54.3235 </r>
       <r>    58.0753     1.4334    54.7286 </r>
       <r>    58.3579     0.9162    54.9876 </r>
       <r>    58.6406     0.7130    55.1891 </r>
       <r>    58.9232     1.2422    55.5402 </r>
       <r>    59.2059     1.4664    55.9546 </r>
       <r>    59.4885     0.9485    56.2227 </r>
       <r>    59.7711     1.0142    56.5094 </r>
       <r>    60.0538     1.0383    56.8028 </r>
       <r>    60.3364     1.4818    57.2217 </r>
       <r>    60.6191     1.4654    57.6358 </r>
       <r>    60.9017     1.1728    57.9673 </r>
       <r>    61.1844     1.2281    58.3144 </r>
       <r>    61.4670     1.6132    58.7704 </r>
       <r>    61.7496     1.5328    59.2036 </r>
       <r>    62.0323     1.7057    59.6857 </r>
       <r>    62.3149     1.8304    60.2031 </r>
       <r>    62.5976     1.6741    60.6762 </r>
       <r>    62.8802     1.8075    61.1871 </r>
       <r>    63.1628     2.2203    61.8147 </r>
       <r>    63.4455     1.9864    62.3761 </r>
       <r>    63.7281     2.2772    63.0197 </r>
       <r>    64.0108     2.3432    63.6820 </r>
       <r>    64.2934     3.2990    64.6145 </r>
       <r>    64.5761     2.1257    65.2153 </r>
       <r>    64.8587     2.4733    65.9143 </r>
       <r>    65.1413     1.9685    66.4707 </r>
       <r>    65.4240     1.5677    66.9138 </r>
       <r>    65.7066     1.4853    67.3336 </r>
       <r>    65.9893     1.3436    67.7134 </r>
       <r>    66.2719     1.7567    68.2099 </r>
       <r>    66.5545     1.3150    68.5815 </r>
       <r>    66.8372     1.3193    68.9544 </r>
       <r>    67.1198     1.1799    69.2879 </r>
       <r>    67.4025     1.2991    69.6551 </r>
       <r>    67.6851     1.6784    70.1295 </r>
       <r>    67.9678     1.2283    70.4766 </r>
       <r>    68.2504     0.8523    70.7175 </r>
       <r>    68.5330     1.2847    71.0806 </r>
       <r>    68.8157     1.4981    71.5041 </r>
       <r>    69.0983     1.0347    71.7965 </r>
       <r>    69.3810     1.2316    72.1446 </r>
       <r>    69.6636     1.4305    72.5489 </r>
       <r>    69.9462     1.6394    73.0123 </r>
       <r>    70.2289     1.4017    73.4085 </r>
       <r>    70.5115     0.9416    73.6746 </r>
       <r>    70.7942     0.9671    73.9479 </r>
       <r>    71.0768     1.5109    74.3750 </r>
       <r>    71.3594     1.3806    74.7652 </r>
       <r>    71.6421     1.6571    75.2335 </r>
       <r>    71.9247     1.0650    75.5345 </r>
       <r>    72.2074     1.5155    75.9629 </r>
       <r>    72.4900     0.9121    76.2207 </r>
       <r>    72.7727     1.3601    76.6051 </r>
       <r>    73.0553     1.2026    76.9450 </r>
       <r>    73.3379     1.5194    77.3744 </r>
       <r>    73.6206     0.9705    77.6487 </r>
       <r>    73.9032     0.9873    77.9278 </r>
       <r>    74.1859     1.0479    78.2239 </r>
       <r>    74.4685     1.1589    78.5515 </r>
       <r>    74.7511     1.0322    78.8432 </r>
       <r>    75.0338     0.6451    79.0256 </r>
       <r>    75.3164     1.1069    79.3384 </r>
       <r>    75.5991     0.9728    79.6134 </r>
       <r>    75.8817     0.6473    79.7963 </r>
       <r>    76.1644     0.6135    79.9697 </r>
       <r>    76.4470     0.1125    80.0015 </r>
       <r>    76.7296    -0.0051    80.0001 </r>
       <r>    77.0123    -0.0002    80.0000 </r>
       <r>    77.2949    -0.0000    80.0000 </r>
       <r>    77.5776    -0.0000    80.0000 </r>
       <r>    77.8602     0.0000    80.0000 </r>
       <r>    78.1428     0.0000    80.0000 </r>
       <r>    78.4255     0.0000    80.0000 </r>
       <r>    78.7081     0.0000    80.0000 </r>
       <r>    78.9908     0.0000    80.0000 </r>
       <r>    79.2734     0.0000    80.0000 </r>
       <r>    79.5561     0.0000    80.0000 </r>
       <r>    79.8387     0.0000    80.0000 </r>
       <r>    80.1213     0.0000    80.0000 </r>
      </set>
     </set>
    </array>
   </total>
  </dos>
 </calculation>
 <structure name="finalpos" >
  <crystal>
   <varray name="basis" >
    <v>       2.23680000       0.00000000       0.00000000 </v>
    <v>      -1.11840000       1.93712562       0.00000000 </v>
    <v>       0.00000000       0.00000000       3.93600000 </v>
   </varray>
   <i name="volume">     17.05454077 </i>
   <varray name="rec_basis" >
    <v>       0.44706724       0.25811439       0.00000000 </v>
    <v>       0.00000000       0.51622878       0.00000000 </v>
    <v>       0.00000000       0.00000000       0.25406504 </v>
   </varray>
  </crystal>
  <varray name="positions" >
   <v>       0.00000000       0.00000000       0.00000000 </v>
   <v>       0.33333333       0.66666667       0.50000000 </v>
  </varray>
 </structure>
</modeling>
