unknown system                          
   1.00000000000000     
     3.635000    0.000000    0.000000
     0.000000    3.635000    0.000000
     0.000000    0.000000    3.635000
   Cu
     4
Direct
  0.000000  0.000000  0.000000
  0.500000  0.500000  0.000000
  0.500000  0.000000  0.500000
  0.000000  0.500000  0.500000
 
   32   32   32
  844.75      796.15      665.76      491.75      317.44      175.82      82.655      36.206      20.751      15.186    
  11.548      9.2778      7.9537      7.2830      6.8654      6.4784      6.2931      6.4784      6.8654      7.2830    
  7.9537      9.2778      11.548      15.186      20.751      36.206      82.655      175.82      317.44      491.75    
  665.76      796.15      796.15      750.16      626.74      462.10      297.41      164.11      77.109      34.363    
  20.360      14.991      11.477      9.2974      8.0337      7.3980      7.0079      6.6497      6.4784      6.6497    
  7.0079      7.3980      8.0337      9.2974      11.477      14.991      20.360      34.363      77.109      164.11    
  297.41      462.10      626.74      750.16      665.76      626.74      522.09      382.71      244.06      133.29    
  62.849      29.825      19.347      14.454      11.287      9.3470      8.2269      7.6575      7.3118      7.0079    
  6.8654      7.0079      7.3118      7.6575      8.2269      9.3470      11.287      14.454      19.347      29.825    
  62.849      133.29      244.06      382.71      522.09      626.74      491.75      462.10      382.71      277.57    
  174.34      94.107      45.662      24.819      17.917      13.709      11.050      9.4372      8.4908      7.9788    
  7.6575      7.3980      7.2830      7.3980      7.6575      7.9788      8.4908      9.4372      11.050      13.709    
  17.917      24.819      45.662      94.107      174.34      277.57      382.71      462.10      317.44      297.41    
  244.06      174.34      107.75      58.593      31.497      21.059      16.265      12.931      10.877      9.6424    
  8.9085      8.4908      8.2269      8.0337      7.9537      8.0337      8.2269      8.4908      8.9085      9.6424    
  10.877      12.931      16.265      21.059      31.497      58.593      107.75      174.34      244.06      297.41    
  175.82      164.11      133.29      94.107      58.593      34.684      23.203      18.257      14.673      12.294    
  10.882      10.077      9.6424      9.4372      9.3470      9.2974      9.2778      9.2974      9.3470      9.4372    
  9.6424      10.077      10.882      12.294      14.673      18.257      23.203      34.684      58.593      94.107    
  133.29      164.11      82.655      77.109      62.849      45.662      31.497      23.203      18.999      15.746    
  13.390      11.940      11.183      10.882      10.877      11.050      11.287      11.477      11.548      11.477    
  11.287      11.050      10.877      10.882      11.183      11.940      13.390      15.746      18.999      23.203    
  31.497      45.662      62.849      77.109      36.206      34.363      29.825      24.819      21.059      18.257    
  15.746      13.810      12.574      11.992      11.940      12.294      12.931      13.709      14.454      14.991    
  15.186      14.991      14.454      13.709      12.931      12.294      11.940      11.992      12.574      13.810    
  15.746      18.257      21.059      24.819      29.825      34.363      20.751      20.360      19.347      17.917    
  16.265      14.673      13.390      12.574      12.297      12.574      13.390      14.673      16.265      17.917    
  19.347      20.360      20.751      20.360      19.347      17.917      16.265      14.673      13.390      12.574    
  12.297      12.574      13.390      14.673      16.265      17.917      19.347      20.360      15.186      14.991    
  14.454      13.709      12.931      12.294      11.940      11.992      12.574      13.810      15.746      18.257    
  21.059      24.819      29.825      34.363      36.206      34.363      29.825      24.819      21.059      18.257    
  15.746      13.810      12.574      11.992      11.940      12.294      12.931      13.709      14.454      14.991    
  11.548      11.477      11.287      11.050      10.877      10.882      11.183      11.940      13.390      15.746    
  18.999      23.203      31.497      45.662      62.849      77.109      82.655      77.109      62.849      45.662    
  31.497      23.203      18.999      15.746      13.390      11.940      11.183      10.882      10.877      11.050    
  11.287      11.477      9.2778      9.2974      9.3470      9.4372      9.6424      10.077      10.882      12.294    
  14.673      18.257      23.203      34.684      58.593      94.107      133.29      164.11      175.82      164.11    
  133.29      94.107      58.593      34.684      23.203      18.257      14.673      12.294      10.882      10.077    
  9.6424      9.4372      9.3470      9.2974      7.9537      8.0337      8.2269      8.4908      8.9085      9.6424    
  10.877      12.931      16.265      21.059      31.497      58.593      107.75      174.34      244.06      297.41    
  317.44      297.41      244.06      174.34      107.75      58.593      31.497      21.059      16.265      12.931    
  10.877      9.6424      8.9085      8.4908      8.2269      8.0337      7.2830      7.3980      7.6575      7.9788    
  8.4908      9.4372      11.050      13.709      17.917      24.819      45.662      94.107      174.34      277.57    
  382.71      462.10      491.75      462.10      382.71      277.57      174.34      94.107      45.662      24.819    
  17.917      13.709      11.050      9.4372      8.4908      7.9788      7.6575      7.3980      6.8654      7.0079    
  7.3118      7.6575      8.2269      9.3470      11.287      14.454      19.347      29.825      62.849      133.29    
  244.06      382.71      522.09      626.74      665.76      626.74      522.09      382.71      244.06      133.29    
  62.849      29.825      19.347      14.454      11.287      9.3470      8.2269      7.6575      7.3118      7.0079    
  6.4784      6.6497      7.0079      7.3980      8.0337      9.2974      11.477      14.991      20.360      34.363    
  77.109      164.11      297.41      462.10      626.74      750.16      796.15      750.16      626.74      462.10    
  297.41      164.11      77.109      34.363      20.360      14.991      11.477      9.2974      8.0337      7.3980    
  7.0079      6.6497      6.2931      6.4784      6.8654      7.2830      7.9537      9.2778      11.548      15.186    
  20.751      36.206      82.655      175.82      317.44      491.75      665.76      796.15      844.75      796.15    
  665.76      491.75      317.44      175.82      82.655      36.206      20.751      15.186      11.548      9.2778    
  7.9537      7.2830      6.8654      6.4784      6.4784      6.6497      7.0079      7.3980      8.0337      9.2974    
  11.477      14.991      20.360      34.363      77.109      164.11      297.41      462.10      626.74      750.16    
  796.15      750.16      626.74      462.10      297.41      164.11      77.109      34.363      20.360      14.991    
  11.477      9.2974      8.0337      7.3980      7.0079      6.6497      6.8654      7.0079      7.3118      7.6575    
  8.2269      9.3470      11.287      14.454      19.347      29.825      62.849      133.29      244.06      382.71    
  522.09      626.74      665.76      626.74      522.09      382.71      244.06      133.29      62.849      29.825    
  19.347      14.454      11.287      9.3470      8.2269      7.6575      7.3118      7.0079      7.2830      7.3980    
  7.6575      7.9788      8.4908      9.4372      11.050      13.709      17.917      24.819      45.662      94.107    
  174.34      277.57      382.71      462.10      491.75      462.10      382.71      277.57      174.34      94.107    
  45.662      24.819      17.917      13.709      11.050      9.4372      8.4908      7.9788      7.6575      7.3980    
  7.9537      8.0337      8.2269      8.4908      8.9085      9.6424      10.877      12.931      16.265      21.059    
  31.497      58.593      107.75      174.34      244.06      297.41      317.44      297.41      244.06      174.34    
  107.75      58.593      31.497      21.059      16.265      12.931      10.877      9.6424      8.9085      8.4908    
  8.2269      8.0337      9.2778      9.2974      9.3470      9.4372      9.6424      10.077      10.882      12.294    
  14.673      18.257      23.203      34.684      58.593      94.107      133.29      164.11      175.82      164.11    
  133.29      94.107      58.593      34.684      23.203      18.257      14.673      12.294      10.882      10.077    
  9.6424      9.4372      9.3470      9.2974      11.548      11.477      11.287      11.050      10.877      10.882    
  11.183      11.940      13.390      15.746      18.999      23.203      31.497      45.662      62.849      77.109    
  82.655      77.109      62.849      45.662      31.497      23.203      18.999      15.746      13.390      11.940    
  11.183      10.882      10.877      11.050      11.287      11.477      15.186      14.991      14.454      13.709    
  12.931      12.294      11.940      11.992      12.574      13.810      15.746      18.257      21.059      24.819    
  29.825      34.363      36.206      34.363      29.825      24.819      21.059      18.257      15.746      13.810    
  12.574      11.992      11.940      12.294      12.931      13.709      14.454      14.991      20.751      20.360    
  19.347      17.917      16.265      14.673      13.390      12.574      12.297      12.574      13.390      14.673    
  16.265      17.917      19.347      20.360      20.751      20.360      19.347      17.917      16.265      14.673    
  13.390      12.574      12.297      12.574      13.390      14.673      16.265      17.917      19.347      20.360    
  36.206      34.363      29.825      24.819      21.059      18.257      15.746      13.810      12.574      11.992    
  11.940      12.294      12.931      13.709      14.454      14.991      15.186      14.991      14.454      13.709    
  12.931      12.294      11.940      11.992      12.574      13.810      15.746      18.257      21.059      24.819    
  29.825      34.363      82.655      77.109      62.849      45.662      31.497      23.203      18.999      15.746    
  13.390      11.940      11.183      10.882      10.877      11.050      11.287      11.477      11.548      11.477    
  11.287      11.050      10.877      10.882      11.183      11.940      13.390      15.746      18.999      23.203    
  31.497      45.662      62.849      77.109      175.82      164.11      133.29      94.107      58.593      34.684    
  23.203      18.257      14.673      12.294      10.882      10.077      9.6424      9.4372      9.3470      9.2974    
  9.2778      9.2974      9.3470      9.4372      9.6424      10.077      10.882      12.294      14.673      18.257    
  23.203      34.684      58.593      94.107      133.29      164.11      317.44      297.41      244.06      174.34    
  107.75      58.593      31.497      21.059      16.265      12.931      10.877      9.6424      8.9085      8.4908    
  8.2269      8.0337      7.9537      8.0337      8.2269      8.4908      8.9085      9.6424      10.877      12.931    
  16.265      21.059      31.497      58.593      107.75      174.34      244.06      297.41      491.75      462.10    
  382.71      277.57      174.34      94.107      45.662      24.819      17.917      13.709      11.050      9.4372    
  8.4908      7.9788      7.6575      7.3980      7.2830      7.3980      7.6575      7.9788      8.4908      9.4372    
  11.050      13.709      17.917      24.819      45.662      94.107      174.34      277.57      382.71      462.10    
  665.76      626.74      522.09      382.71      244.06      133.29      62.849      29.825      19.347      14.454    
  11.287      9.3470      8.2269      7.6575      7.3118      7.0079      6.8654      7.0079      7.3118      7.6575    
  8.2269      9.3470      11.287      14.454      19.347      29.825      62.849      133.29      244.06      382.71    
  522.09      626.74      796.15      750.16      626.74      462.10      297.41      164.11      77.109      34.363    
  20.360      14.991      11.477      9.2974      8.0337      7.3980      7.0079      6.6497      6.4784      6.6497    
  7.0079      7.3980      8.0337      9.2974      11.477      14.991      20.360      34.363      77.109      164.11    
  297.41      462.10      626.74      750.16      796.15      750.16      626.74      462.10      297.41      164.11    
  77.109      34.363      20.360      14.991      11.477      9.2974      8.0337      7.3980      7.0079      6.6497    
  6.4784      6.6497      7.0079      7.3980      8.0337      9.2974      11.477      14.991      20.360      34.363    
  77.109      164.11      297.41      462.10      626.74      750.16      750.16      706.63      589.83      434.08    
  278.53      153.14      71.972      32.691      19.996      14.800      11.406      9.3140      8.1072      7.5040    
  7.1394      6.8080      6.6497      6.8080      7.1394      7.5040      8.1072      9.3140      11.406      14.800    
  19.996      32.691      71.972      153.14      278.53      434.08      589.83      706.63      626.74      589.83    
  490.82      359.07      228.28      124.30      58.799      28.589      19.031      14.277      11.220      9.3569    
  8.2860      7.7445      7.4206      7.1394      7.0079      7.1394      7.4206      7.7445      8.2860      9.3569    
  11.220      14.277      19.031      28.589      58.799      124.30      228.28      359.07      490.82      589.83    
  462.10      434.08      359.07      259.87      162.78      87.781      43.012      24.082      17.632      13.553    
  10.989      9.4397      8.5341      8.0465      7.7445      7.5040      7.3980      7.5040      7.7445      8.0465    
  8.5341      9.4397      10.989      13.553      17.632      24.082      43.012      87.781      162.78      259.87    
  359.07      434.08      297.41      278.53      228.28      162.78      100.49      54.899      30.123      20.659    
  16.022      12.800      10.821      9.6351      8.9323      8.5341      8.2860      8.1072      8.0337      8.1072    
  8.2860      8.5341      8.9323      9.6351      10.821      12.800      16.022      20.659      30.123      54.899    
  100.49      162.78      228.28      278.53      164.11      153.14      124.30      87.781      54.899      33.017    
  22.641      17.950      14.479      12.185      10.826      10.052      9.6351      9.4397      9.3569      9.3140    
  9.2974      9.3140      9.3569      9.4397      9.6351      10.052      10.826      12.185      14.479      17.950    
  22.641      33.017      54.899      87.781      124.30      153.14      77.109      71.972      58.799      43.012    
  30.123      22.641      18.670      15.514      13.241      11.845      11.116      10.826      10.821      10.989    
  11.220      11.406      11.477      11.406      11.220      10.989      10.821      10.826      11.116      11.845    
  13.241      15.514      18.670      22.641      30.123      43.012      58.799      71.972      34.363      32.691    
  28.589      24.082      20.659      17.950      15.514      13.645      12.456      11.896      11.845      12.185    
  12.800      13.553      14.277      14.800      14.991      14.800      14.277      13.553      12.800      12.185    
  11.845      11.896      12.456      13.645      15.514      17.950      20.659      24.082      28.589      32.691    
  20.360      19.996      19.031      17.632      16.022      14.479      13.241      12.456      12.190      12.456    
  13.241      14.479      16.022      17.632      19.031      19.996      20.360      19.996      19.031      17.632    
  16.022      14.479      13.241      12.456      12.190      12.456      13.241      14.479      16.022      17.632    
  19.031      19.996      14.991      14.800      14.277      13.553      12.800      12.185      11.845      11.896    
  12.456      13.645      15.514      17.950      20.659      24.082      28.589      32.691      34.363      32.691    
  28.589      24.082      20.659      17.950      15.514      13.645      12.456      11.896      11.845      12.185    
  12.800      13.553      14.277      14.800      11.477      11.406      11.220      10.989      10.821      10.826    
  11.116      11.845      13.241      15.514      18.670      22.641      30.123      43.012      58.799      71.972    
  77.109      71.972      58.799      43.012      30.123      22.641      18.670      15.514      13.241      11.845    
  11.116      10.826      10.821      10.989      11.220      11.406      9.2974      9.3140      9.3569      9.4397    
  9.6351      10.052      10.826      12.185      14.479      17.950      22.641      33.017      54.899      87.781    
  124.30      153.14      164.11      153.14      124.30      87.781      54.899      33.017      22.641      17.950    
  14.479      12.185      10.826      10.052      9.6351      9.4397      9.3569      9.3140      8.0337      8.1072    
  8.2860      8.5341      8.9323      9.6351      10.821      12.800      16.022      20.659      30.123      54.899    
  100.49      162.78      228.28      278.53      297.41      278.53      228.28      162.78      100.49      54.899    
  30.123      20.659      16.022      12.800      10.821      9.6351      8.9323      8.5341      8.2860      8.1072    
  7.3980      7.5040      7.7445      8.0465      8.5341      9.4397      10.989      13.553      17.632      24.082    
  43.012      87.781      162.78      259.87      359.07      434.08      462.10      434.08      359.07      259.87    
  162.78      87.781      43.012      24.082      17.632      13.553      10.989      9.4397      8.5341      8.0465    
  7.7445      7.5040      7.0079      7.1394      7.4206      7.7445      8.2860      9.3569      11.220      14.277    
  19.031      28.589      58.799      124.30      228.28      359.07      490.82      589.83      626.74      589.83    
  490.82      359.07      228.28      124.30      58.799      28.589      19.031      14.277      11.220      9.3569    
  8.2860      7.7445      7.4206      7.1394      6.6497      6.8080      7.1394      7.5040      8.1072      9.3140    
  11.406      14.800      19.996      32.691      71.972      153.14      278.53      434.08      589.83      706.63    
  750.16      706.63      589.83      434.08      278.53      153.14      71.972      32.691      19.996      14.800    
  11.406      9.3140      8.1072      7.5040      7.1394      6.8080      6.4784      6.6497      7.0079      7.3980    
  8.0337      9.2974      11.477      14.991      20.360      34.363      77.109      164.11      297.41      462.10    
  626.74      750.16      796.15      750.16      626.74      462.10      297.41      164.11      77.109      34.363    
  20.360      14.991      11.477      9.2974      8.0337      7.3980      7.0079      6.6497      6.6497      6.8080    
  7.1394      7.5040      8.1072      9.3140      11.406      14.800      19.996      32.691      71.972      153.14    
  278.53      434.08      589.83      706.63      750.16      706.63      589.83      434.08      278.53      153.14    
  71.972      32.691      19.996      14.800      11.406      9.3140      8.1072      7.5040      7.1394      6.8080    
  7.0079      7.1394      7.4206      7.7445      8.2860      9.3569      11.220      14.277      19.031      28.589    
  58.799      124.30      228.28      359.07      490.82      589.83      626.74      589.83      490.82      359.07    
  228.28      124.30      58.799      28.589      19.031      14.277      11.220      9.3569      8.2860      7.7445    
  7.4206      7.1394      7.3980      7.5040      7.7445      8.0465      8.5341      9.4397      10.989      13.553    
  17.632      24.082      43.012      87.781      162.78      259.87      359.07      434.08      462.10      434.08    
  359.07      259.87      162.78      87.781      43.012      24.082      17.632      13.553      10.989      9.4397    
  8.5341      8.0465      7.7445      7.5040      8.0337      8.1072      8.2860      8.5341      8.9323      9.6351    
  10.821      12.800      16.022      20.659      30.123      54.899      100.49      162.78      228.28      278.53    
  297.41      278.53      228.28      162.78      100.49      54.899      30.123      20.659      16.022      12.800    
  10.821      9.6351      8.9323      8.5341      8.2860      8.1072      9.2974      9.3140      9.3569      9.4397    
  9.6351      10.052      10.826      12.185      14.479      17.950      22.641      33.017      54.899      87.781    
  124.30      153.14      164.11      153.14      124.30      87.781      54.899      33.017      22.641      17.950    
  14.479      12.185      10.826      10.052      9.6351      9.4397      9.3569      9.3140      11.477      11.406    
  11.220      10.989      10.821      10.826      11.116      11.845      13.241      15.514      18.670      22.641    
  30.123      43.012      58.799      71.972      77.109      71.972      58.799      43.012      30.123      22.641    
  18.670      15.514      13.241      11.845      11.116      10.826      10.821      10.989      11.220      11.406    
  14.991      14.800      14.277      13.553      12.800      12.185      11.845      11.896      12.456      13.645    
  15.514      17.950      20.659      24.082      28.589      32.691      34.363      32.691      28.589      24.082    
  20.659      17.950      15.514      13.645      12.456      11.896      11.845      12.185      12.800      13.553    
  14.277      14.800      20.360      19.996      19.031      17.632      16.022      14.479      13.241      12.456    
  12.190      12.456      13.241      14.479      16.022      17.632      19.031      19.996      20.360      19.996    
  19.031      17.632      16.022      14.479      13.241      12.456      12.190      12.456      13.241      14.479    
  16.022      17.632      19.031      19.996      34.363      32.691      28.589      24.082      20.659      17.950    
  15.514      13.645      12.456      11.896      11.845      12.185      12.800      13.553      14.277      14.800    
  14.991      14.800      14.277      13.553      12.800      12.185      11.845      11.896      12.456      13.645    
  15.514      17.950      20.659      24.082      28.589      32.691      77.109      71.972      58.799      43.012    
  30.123      22.641      18.670      15.514      13.241      11.845      11.116      10.826      10.821      10.989    
  11.220      11.406      11.477      11.406      11.220      10.989      10.821      10.826      11.116      11.845    
  13.241      15.514      18.670      22.641      30.123      43.012      58.799      71.972      164.11      153.14    
  124.30      87.781      54.899      33.017      22.641      17.950      14.479      12.185      10.826      10.052    
  9.6351      9.4397      9.3569      9.3140      9.2974      9.3140      9.3569      9.4397      9.6351      10.052    
  10.826      12.185      14.479      17.950      22.641      33.017      54.899      87.781      124.30      153.14    
  297.41      278.53      228.28      162.78      100.49      54.899      30.123      20.659      16.022      12.800    
  10.821      9.6351      8.9323      8.5341      8.2860      8.1072      8.0337      8.1072      8.2860      8.5341    
  8.9323      9.6351      10.821      12.800      16.022      20.659      30.123      54.899      100.49      162.78    
  228.28      278.53      462.10      434.08      359.07      259.87      162.78      87.781      43.012      24.082    
  17.632      13.553      10.989      9.4397      8.5341      8.0465      7.7445      7.5040      7.3980      7.5040    
  7.7445      8.0465      8.5341      9.4397      10.989      13.553      17.632      24.082      43.012      87.781    
  162.78      259.87      359.07      434.08      626.74      589.83      490.82      359.07      228.28      124.30    
  58.799      28.589      19.031      14.277      11.220      9.3569      8.2860      7.7445      7.4206      7.1394    
  7.0079      7.1394      7.4206      7.7445      8.2860      9.3569      11.220      14.277      19.031      28.589    
  58.799      124.30      228.28      359.07      490.82      589.83      750.16      706.63      589.83      434.08    
  278.53      153.14      71.972      32.691      19.996      14.800      11.406      9.3140      8.1072      7.5040    
  7.1394      6.8080      6.6497      6.8080      7.1394      7.5040      8.1072      9.3140      11.406      14.800    
  19.996      32.691      71.972      153.14      278.53      434.08      589.83      706.63      665.76      626.74    
  522.09      382.71      244.06      133.29      62.849      29.825      19.347      14.454      11.287      9.3470    
  8.2269      7.6575      7.3118      7.0079      6.8654      7.0079      7.3118      7.6575      8.2269      9.3470    
  11.287      14.454      19.347      29.825      62.849      133.29      244.06      382.71      522.09      626.74    
  626.74      589.83      490.82      359.07      228.28      124.30      58.799      28.589      19.031      14.277    
  11.220      9.3569      8.2860      7.7445      7.4206      7.1394      7.0079      7.1394      7.4206      7.7445    
  8.2860      9.3569      11.220      14.277      19.031      28.589      58.799      124.30      228.28      359.07    
  490.82      589.83      522.09      490.82      407.04      295.91      186.45      100.81      48.499      25.577    
  18.138      13.794      11.044      9.3854      8.4335      7.9468      7.6588      7.4206      7.3118      7.4206    
  7.6588      7.9468      8.4335      9.3854      11.044      13.794      18.138      25.577      48.499      100.81    
  186.45      295.91      407.04      490.82      382.71      359.07      295.91      212.80      132.32      71.412    
  36.373      22.280      16.832      13.130      10.831      9.4524      8.6482      8.2124      7.9468      7.7445    
  7.6575      7.7445      7.9468      8.2124      8.6482      9.4524      10.831      13.130      16.832      22.280    
  36.373      71.412      132.32      212.80      295.91      359.07      244.06      228.28      186.45      132.32    
  81.627      45.518      26.751      19.587      15.348      12.445      10.677      9.6236      9.0009      8.6482    
  8.4335      8.2860      8.2269      8.2860      8.4335      8.6482      9.0009      9.6236      10.677      12.445    
  15.348      19.587      26.751      45.518      81.627      132.32      186.45      228.28      133.29      124.30    
  100.81      71.412      45.518      28.899      21.222      17.087      13.943      11.891      10.680      9.9930    
  9.6236      9.4524      9.3854      9.3569      9.3470      9.3569      9.3854      9.4524      9.6236      9.9930    
  10.680      11.891      13.943      17.087      21.222      28.899      45.518      71.412      100.81      124.30    
  62.849      58.799      48.499      36.373      26.751      21.222      17.739      14.866      12.829      11.587    
  10.938      10.680      10.677      10.831      11.044      11.220      11.287      11.220      11.044      10.831    
  10.677      10.680      10.938      11.587      12.829      14.866      17.739      21.222      26.751      36.373    
  48.499      58.799      29.825      28.589      25.577      22.280      19.587      17.087      14.866      13.188    
  12.129      11.632      11.587      11.891      12.445      13.130      13.794      14.277      14.454      14.277    
  13.794      13.130      12.445      11.891      11.587      11.632      12.129      13.188      14.866      17.087    
  19.587      22.280      25.577      28.589      19.347      19.031      18.138      16.832      15.348      13.943    
  12.829      12.129      11.893      12.129      12.829      13.943      15.348      16.832      18.138      19.031    
  19.347      19.031      18.138      16.832      15.348      13.943      12.829      12.129      11.893      12.129    
  12.829      13.943      15.348      16.832      18.138      19.031      14.454      14.277      13.794      13.130    
  12.445      11.891      11.587      11.632      12.129      13.188      14.866      17.087      19.587      22.280    
  25.577      28.589      29.825      28.589      25.577      22.280      19.587      17.087      14.866      13.188    
  12.129      11.632      11.587      11.891      12.445      13.130      13.794      14.277      11.287      11.220    
  11.044      10.831      10.677      10.680      10.938      11.587      12.829      14.866      17.739      21.222    
  26.751      36.373      48.499      58.799      62.849      58.799      48.499      36.373      26.751      21.222    
  17.739      14.866      12.829      11.587      10.938      10.680      10.677      10.831      11.044      11.220    
  9.3470      9.3569      9.3854      9.4524      9.6236      9.9930      10.680      11.891      13.943      17.087    
  21.222      28.899      45.518      71.412      100.81      124.30      133.29      124.30      100.81      71.412    
  45.518      28.899      21.222      17.087      13.943      11.891      10.680      9.9930      9.6236      9.4524    
  9.3854      9.3569      8.2269      8.2860      8.4335      8.6482      9.0009      9.6236      10.677      12.445    
  15.348      19.587      26.751      45.518      81.627      132.32      186.45      228.28      244.06      228.28    