unknown system                          
   1.00000000000000     
     3.635000    0.000000    0.000000
     0.000000    3.635000    0.000000
     0.000000    0.000000    3.635000
   Cu
     4
Direct
  0.000000  0.000000  0.000000
  0.500000  0.500000  0.000000
  0.500000  0.000000  0.500000
  0.000000  0.500000  0.500000
 
   32   32   32
 0.84474807432E+03 0.79615230694E+03 0.66575651209E+03 0.49175201911E+03 0.31744034604E+03
 0.17582048400E+03 0.82655304121E+02 0.36206151777E+02 0.20750818538E+02 0.15186201702E+02
 0.11548286538E+02 0.92777592809E+01 0.79536933688E+01 0.72830066083E+01 0.68654048791E+01
 0.64784134014E+01 0.62930749750E+01 0.64784134014E+01 0.68654048791E+01 0.72830066083E+01
 0.79536933688E+01 0.92777592809E+01 0.11548286538E+02 0.15186201702E+02 0.20750818538E+02
 0.36206151777E+02 0.82655304121E+02 0.17582048400E+03 0.31744034604E+03 0.49175201911E+03
 0.66575651209E+03 0.79615230694E+03 0.79615230694E+03 0.75015912721E+03 0.62674296024E+03
 0.46210339338E+03 0.29740956123E+03 0.16410939549E+03 0.77108743777E+02 0.34362967693E+02
 0.20360121809E+02 0.14990832385E+02 0.11476798678E+02 0.92974001183E+01 0.80337146595E+01
 0.73979586387E+01 0.70078811740E+01 0.66497230449E+01 0.64784134014E+01 0.66497230449E+01
 0.70078811740E+01 0.73979586387E+01 0.80337146595E+01 0.92974001183E+01 0.11476798678E+02
 0.14990832385E+02 0.20360121809E+02 0.34362967693E+02 0.77108743777E+02 0.16410939549E+03
 0.29740956123E+03 0.46210339338E+03 0.62674296024E+03 0.75015912721E+03 0.66575651209E+03
 0.62674296024E+03 0.52208653066E+03 0.38271265648E+03 0.24405816132E+03 0.13328546436E+03
 0.62849319098E+02 0.29825460265E+02 0.19347251409E+02 0.14454010528E+02 0.11286591625E+02
 0.93470368114E+01 0.82269149175E+01 0.76574985504E+01 0.73117701133E+01 0.70078811740E+01
 0.68654048791E+01 0.70078811740E+01 0.73117701133E+01 0.76574985504E+01 0.82269149175E+01
 0.93470368114E+01 0.11286591625E+02 0.14454010528E+02 0.19347251409E+02 0.29825460265E+02
 0.62849319098E+02 0.13328546436E+03 0.24405816132E+03 0.38271265648E+03 0.52208653066E+03
 0.62674296024E+03 0.49175201911E+03 0.46210339338E+03 0.38271265648E+03 0.27756840057E+03
 0.17434261065E+03 0.94107282330E+02 0.45662437508E+02 0.24819462297E+02 0.17917200277E+02
 0.13708509158E+02 0.11050410574E+02 0.94371872662E+01 0.84907952900E+01 0.79788045677E+01
 0.76574985504E+01 0.73979586387E+01 0.72830066083E+01 0.73979586387E+01 0.76574985504E+01
 0.79788045677E+01 0.84907952900E+01 0.94371872662E+01 0.11050410574E+02 0.13708509158E+02
 0.17917200277E+02 0.24819462297E+02 0.45662437508E+02 0.94107282330E+02 0.17434261065E+03
 0.27756840057E+03 0.38271265648E+03 0.46210339338E+03 0.31744034604E+03 0.29740956123E+03
 0.24405816132E+03 0.17434261065E+03 0.10775108208E+03 0.58592909172E+02 0.31496796179E+02
 0.21058706622E+02 0.16264656633E+02 0.12930705121E+02 0.10876863230E+02 0.96424297832E+01
 0.89085454292E+01 0.84907952900E+01 0.82269149175E+01 0.80337146595E+01 0.79536933688E+01
 0.80337146595E+01 0.82269149175E+01 0.84907952900E+01 0.89085454292E+01 0.96424297832E+01
 0.10876863230E+02 0.12930705121E+02 0.16264656633E+02 0.21058706622E+02 0.31496796179E+02
 0.58592909172E+02 0.10775108208E+03 0.17434261065E+03 0.24405816132E+03 0.29740956123E+03
 0.17582048400E+03 0.16410939549E+03 0.13328546436E+03 0.94107282330E+02 0.58592909172E+02
 0.34683997126E+02 0.23203459795E+02 0.18256542115E+02 0.14672695269E+02 0.12293712782E+02
 0.10881832382E+02 0.10077453169E+02 0.96424297832E+01 0.94371872662E+01 0.93470368114E+01
 0.92974001183E+01 0.92777592809E+01 0.92974001183E+01 0.93470368114E+01 0.94371872662E+01
 0.96424297832E+01 0.10077453169E+02 0.10881832382E+02 0.12293712782E+02 0.14672695269E+02
 0.18256542115E+02 0.23203459795E+02 0.34683997126E+02 0.58592909172E+02 0.94107282330E+02
 0.13328546436E+03 0.16410939549E+03 0.82655304121E+02 0.77108743777E+02 0.62849319098E+02
 0.45662437508E+02 0.31496796179E+02 0.23203459795E+02 0.18999166691E+02 0.15746354636E+02
 0.13389531732E+02 0.11940351179E+02 0.11182558228E+02 0.10881832382E+02 0.10876863230E+02
 0.11050410574E+02 0.11286591625E+02 0.11476798678E+02 0.11548286538E+02 0.11476798678E+02
 0.11286591625E+02 0.11050410574E+02 0.10876863230E+02 0.10881832382E+02 0.11182558228E+02
 0.11940351179E+02 0.13389531732E+02 0.15746354636E+02 0.18999166691E+02 0.23203459795E+02
 0.31496796179E+02 0.45662437508E+02 0.62849319098E+02 0.77108743777E+02 0.36206151777E+02
 0.34362967693E+02 0.29825460265E+02 0.24819462297E+02 0.21058706622E+02 0.18256542115E+02
 0.15746354636E+02 0.13809989100E+02 0.12574356320E+02 0.11992016068E+02 0.11940351179E+02
 0.12293712782E+02 0.12930705121E+02 0.13708509158E+02 0.14454010528E+02 0.14990832385E+02
 0.15186201702E+02 0.14990832385E+02 0.14454010528E+02 0.13708509158E+02 0.12930705121E+02
 0.12293712782E+02 0.11940351179E+02 0.11992016068E+02 0.12574356320E+02 0.13809989100E+02
 0.15746354636E+02 0.18256542115E+02 0.21058706622E+02 0.24819462297E+02 0.29825460265E+02
 0.34362967693E+02 0.20750818538E+02 0.20360121809E+02 0.19347251409E+02 0.17917200277E+02
 0.16264656633E+02 0.14672695269E+02 0.13389531732E+02 0.12574356320E+02 0.12297171183E+02
 0.12574356320E+02 0.13389531732E+02 0.14672695269E+02 0.16264656633E+02 0.17917200277E+02
 0.19347251409E+02 0.20360121809E+02 0.20750818538E+02 0.20360121809E+02 0.19347251409E+02
 0.17917200277E+02 0.16264656633E+02 0.14672695269E+02 0.13389531732E+02 0.12574356320E+02
 0.12297171183E+02 0.12574356320E+02 0.13389531732E+02 0.14672695269E+02 0.16264656633E+02
 0.17917200277E+02 0.19347251409E+02 0.20360121809E+02 0.15186201702E+02 0.14990832385E+02
 0.14454010528E+02 0.13708509158E+02 0.12930705121E+02 0.12293712782E+02 0.11940351179E+02
 0.11992016068E+02 0.12574356320E+02 0.13809989100E+02 0.15746354636E+02 0.18256542115E+02
 0.21058706622E+02 0.24819462297E+02 0.29825460265E+02 0.34362967693E+02 0.36206151777E+02
 0.34362967693E+02 0.29825460265E+02 0.24819462297E+02 0.21058706622E+02 0.18256542115E+02
 0.15746354636E+02 0.13809989100E+02 0.12574356320E+02 0.11992016068E+02 0.11940351179E+02
 0.12293712782E+02 0.12930705121E+02 0.13708509158E+02 0.14454010528E+02 0.14990832385E+02
 0.11548286538E+02 0.11476798678E+02 0.11286591625E+02 0.11050410574E+02 0.10876863230E+02
 0.10881832382E+02 0.11182558228E+02 0.11940351179E+02 0.13389531732E+02 0.15746354636E+02
 0.18999166691E+02 0.23203459795E+02 0.31496796179E+02 0.45662437508E+02 0.62849319098E+02
 0.77108743777E+02 0.82655304121E+02 0.77108743777E+02 0.62849319098E+02 0.45662437508E+02
 0.31496796179E+02 0.23203459795E+02 0.18999166691E+02 0.15746354636E+02 0.13389531732E+02
 0.11940351179E+02 0.11182558228E+02 0.10881832382E+02 0.10876863230E+02 0.11050410574E+02
 0.11286591625E+02 0.11476798678E+02 0.92777592809E+01 0.92974001183E+01 0.93470368114E+01
 0.94371872662E+01 0.96424297832E+01 0.10077453169E+02 0.10881832382E+02 0.12293712782E+02
 0.14672695269E+02 0.18256542115E+02 0.23203459795E+02 0.34683997126E+02 0.58592909172E+02
 0.94107282330E+02 0.13328546436E+03 0.16410939549E+03 0.17582048400E+03 0.16410939549E+03
 0.13328546436E+03 0.94107282330E+02 0.58592909172E+02 0.34683997126E+02 0.23203459795E+02
 0.18256542115E+02 0.14672695269E+02 0.12293712782E+02 0.10881832382E+02 0.10077453169E+02
 0.96424297832E+01 0.94371872662E+01 0.93470368114E+01 0.92974001183E+01 0.79536933688E+01
 0.80337146595E+01 0.82269149175E+01 0.84907952900E+01 0.89085454292E+01 0.96424297832E+01
 0.10876863230E+02 0.12930705121E+02 0.16264656633E+02 0.21058706622E+02 0.31496796179E+02
 0.58592909172E+02 0.10775108208E+03 0.17434261065E+03 0.24405816132E+03 0.29740956123E+03
 0.31744034604E+03 0.29740956123E+03 0.24405816132E+03 0.17434261065E+03 0.10775108208E+03
 0.58592909172E+02 0.31496796179E+02 0.21058706622E+02 0.16264656633E+02 0.12930705121E+02
 0.10876863230E+02 0.96424297832E+01 0.89085454292E+01 0.84907952900E+01 0.82269149175E+01
 0.80337146595E+01 0.72830066083E+01 0.73979586387E+01 0.76574985504E+01 0.79788045677E+01
 0.84907952900E+01 0.94371872662E+01 0.11050410574E+02 0.13708509158E+02 0.17917200277E+02
 0.24819462297E+02 0.45662437508E+02 0.94107282330E+02 0.17434261065E+03 0.27756840057E+03
 0.38271265648E+03 0.46210339338E+03 0.49175201911E+03 0.46210339338E+03 0.38271265648E+03
 0.27756840057E+03 0.17434261065E+03 0.94107282330E+02 0.45662437508E+02 0.24819462297E+02
 0.17917200277E+02 0.13708509158E+02 0.11050410574E+02 0.94371872662E+01 0.84907952900E+01
 0.79788045677E+01 0.76574985504E+01 0.73979586387E+01 0.68654048791E+01 0.70078811740E+01
 0.73117701133E+01 0.76574985504E+01 0.82269149175E+01 0.93470368114E+01 0.11286591625E+02
 0.14454010528E+02 0.19347251409E+02 0.29825460265E+02 0.62849319098E+02 0.13328546436E+03
 0.24405816132E+03 0.38271265648E+03 0.52208653066E+03 0.62674296024E+03 0.66575651209E+03
 0.62674296024E+03 0.52208653066E+03 0.38271265648E+03 0.24405816132E+03 0.13328546436E+03
 0.62849319098E+02 0.29825460265E+02 0.19347251409E+02 0.14454010528E+02 0.11286591625E+02
 0.93470368114E+01 0.82269149175E+01 0.76574985504E+01 0.73117701133E+01 0.70078811740E+01
 0.64784134014E+01 0.66497230449E+01 0.70078811740E+01 0.73979586387E+01 0.80337146595E+01
 0.92974001183E+01 0.11476798678E+02 0.14990832385E+02 0.20360121809E+02 0.34362967693E+02
 0.77108743777E+02 0.16410939549E+03 0.29740956123E+03 0.46210339338E+03 0.62674296024E+03
 0.75015912721E+03 0.79615230694E+03 0.75015912721E+03 0.62674296024E+03 0.46210339338E+03
 0.29740956123E+03 0.16410939549E+03 0.77108743777E+02 0.34362967693E+02 0.20360121809E+02
 0.14990832385E+02 0.11476798678E+02 0.92974001183E+01 0.80337146595E+01 0.73979586387E+01
 0.70078811740E+01 0.66497230449E+01 0.62930749750E+01 0.64784134014E+01 0.68654048791E+01
 0.72830066083E+01 0.79536933688E+01 0.92777592809E+01 0.11548286538E+02 0.15186201702E+02
 0.20750818538E+02 0.36206151777E+02 0.82655304121E+02 0.17582048400E+03 0.31744034604E+03
 0.49175201911E+03 0.66575651209E+03 0.79615230694E+03 0.84474807432E+03 0.79615230694E+03
 0.66575651209E+03 0.49175201911E+03 0.31744034604E+03 0.17582048400E+03 0.82655304121E+02
 0.36206151777E+02 0.20750818538E+02 0.15186201702E+02 0.11548286538E+02 0.92777592809E+01
 0.79536933688E+01 0.72830066083E+01 0.68654048791E+01 0.64784134014E+01 0.64784134014E+01
 0.66497230449E+01 0.70078811740E+01 0.73979586387E+01 0.80337146595E+01 0.92974001183E+01
 0.11476798678E+02 0.14990832385E+02 0.20360121809E+02 0.34362967693E+02 0.77108743777E+02
 0.16410939549E+03 0.29740956123E+03 0.46210339338E+03 0.62674296024E+03 0.75015912721E+03
 0.79615230694E+03 0.75015912721E+03 0.62674296024E+03 0.46210339338E+03 0.29740956123E+03
 0.16410939549E+03 0.77108743777E+02 0.34362967693E+02 0.20360121809E+02 0.14990832385E+02
 0.11476798678E+02 0.92974001183E+01 0.80337146595E+01 0.73979586387E+01 0.70078811740E+01
 0.66497230449E+01 0.68654048791E+01 0.70078811740E+01 0.73117701133E+01 0.76574985504E+01
 0.82269149175E+01 0.93470368114E+01 0.11286591625E+02 0.14454010528E+02 0.19347251409E+02
 0.29825460265E+02 0.62849319098E+02 0.13328546436E+03 0.24405816132E+03 0.38271265648E+03
 0.52208653066E+03 0.62674296024E+03 0.66575651209E+03 0.62674296024E+03 0.52208653066E+03
 0.38271265648E+03 0.24405816132E+03 0.13328546436E+03 0.62849319098E+02 0.29825460265E+02
 0.19347251409E+02 0.14454010528E+02 0.11286591625E+02 0.93470368114E+01 0.82269149175E+01
 0.76574985504E+01 0.73117701133E+01 0.70078811740E+01 0.72830066083E+01 0.73979586387E+01
 0.76574985504E+01 0.79788045677E+01 0.84907952900E+01 0.94371872662E+01 0.11050410574E+02
 0.13708509158E+02 0.17917200277E+02 0.24819462297E+02 0.45662437508E+02 0.94107282330E+02
 0.17434261065E+03 0.27756840057E+03 0.38271265648E+03 0.46210339338E+03 0.49175201911E+03
 0.46210339338E+03 0.38271265648E+03 0.27756840057E+03 0.17434261065E+03 0.94107282330E+02
 0.45662437508E+02 0.24819462297E+02 0.17917200277E+02 0.13708509158E+02 0.11050410574E+02
 0.94371872662E+01 0.84907952900E+01 0.79788045677E+01 0.76574985504E+01 0.73979586387E+01
 0.79536933688E+01 0.80337146595E+01 0.82269149175E+01 0.84907952900E+01 0.89085454292E+01
 0.96424297832E+01 0.10876863230E+02 0.12930705121E+02 0.16264656633E+02 0.21058706622E+02
 0.31496796179E+02 0.58592909172E+02 0.10775108208E+03 0.17434261065E+03 0.24405816132E+03
 0.29740956123E+03 0.31744034604E+03 0.29740956123E+03 0.24405816132E+03 0.17434261065E+03
 0.10775108208E+03 0.58592909172E+02 0.31496796179E+02 0.21058706622E+02 0.16264656633E+02
 0.12930705121E+02 0.10876863230E+02 0.96424297832E+01 0.89085454292E+01 0.84907952900E+01
 0.82269149175E+01 0.80337146595E+01 0.92777592809E+01 0.92974001183E+01 0.93470368114E+01
 0.94371872662E+01 0.96424297832E+01 0.10077453169E+02 0.10881832382E+02 0.12293712782E+02
 0.14672695269E+02 0.18256542115E+02 0.23203459795E+02 0.34683997126E+02 0.58592909172E+02
 0.94107282330E+02 0.13328546436E+03 0.16410939549E+03 0.17582048400E+03 0.16410939549E+03
 0.13328546436E+03 0.94107282330E+02 0.58592909172E+02 0.34683997126E+02 0.23203459795E+02
 0.18256542115E+02 0.14672695269E+02 0.12293712782E+02 0.10881832382E+02 0.10077453169E+02
 0.96424297832E+01 0.94371872662E+01 0.93470368114E+01 0.92974001183E+01 0.11548286538E+02
 0.11476798678E+02 0.11286591625E+02 0.11050410574E+02 0.10876863230E+02 0.10881832382E+02
 0.11182558228E+02 0.11940351179E+02 0.13389531732E+02 0.15746354636E+02 0.18999166691E+02
 0.23203459795E+02 0.31496796179E+02 0.45662437508E+02 0.62849319098E+02 0.77108743777E+02
 0.82655304121E+02 0.77108743777E+02 0.62849319098E+02 0.45662437508E+02 0.31496796179E+02
 0.23203459795E+02 0.18999166691E+02 0.15746354636E+02 0.13389531732E+02 0.11940351179E+02
 0.11182558228E+02 0.10881832382E+02 0.10876863230E+02 0.11050410574E+02 0.11286591625E+02
 0.11476798678E+02 0.15186201702E+02 0.14990832385E+02 0.14454010528E+02 0.13708509158E+02
 0.12930705121E+02 0.12293712782E+02 0.11940351179E+02 0.11992016068E+02 0.12574356320E+02
 0.13809989100E+02 0.15746354636E+02 0.18256542115E+02 0.21058706622E+02 0.24819462297E+02
 0.29825460265E+02 0.34362967693E+02 0.36206151777E+02 0.34362967693E+02 0.29825460265E+02
 0.24819462297E+02 0.21058706622E+02 0.18256542115E+02 0.15746354636E+02 0.13809989100E+02
 0.12574356320E+02 0.11992016068E+02 0.11940351179E+02 0.12293712782E+02 0.12930705121E+02
 0.13708509158E+02 0.14454010528E+02 0.14990832385E+02 0.20750818538E+02 0.20360121809E+02
 0.19347251409E+02 0.17917200277E+02 0.16264656633E+02 0.14672695269E+02 0.13389531732E+02
 0.12574356320E+02 0.12297171183E+02 0.12574356320E+02 0.13389531732E+02 0.14672695269E+02
 0.16264656633E+02 0.17917200277E+02 0.19347251409E+02 0.20360121809E+02 0.20750818538E+02
 0.20360121809E+02 0.19347251409E+02 0.17917200277E+02 0.16264656633E+02 0.14672695269E+02
 0.13389531732E+02 0.12574356320E+02 0.12297171183E+02 0.12574356320E+02 0.13389531732E+02
 0.14672695269E+02 0.16264656633E+02 0.17917200277E+02 0.19347251409E+02 0.20360121809E+02
 0.36206151777E+02 0.34362967693E+02 0.29825460265E+02 0.24819462297E+02 0.21058706622E+02
 0.18256542115E+02 0.15746354636E+02 0.13809989100E+02 0.12574356320E+02 0.11992016068E+02
 0.11940351179E+02 0.12293712782E+02 0.12930705121E+02 0.13708509158E+02 0.14454010528E+02
 0.14990832385E+02 0.15186201702E+02 0.14990832385E+02 0.14454010528E+02 0.13708509158E+02
 0.12930705121E+02 0.12293712782E+02 0.11940351179E+02 0.11992016068E+02 0.12574356320E+02
 0.13809989100E+02 0.15746354636E+02 0.18256542115E+02 0.21058706622E+02 0.24819462297E+02
 0.29825460265E+02 0.34362967693E+02 0.82655304121E+02 0.77108743777E+02 0.62849319098E+02
 0.45662437508E+02 0.31496796179E+02 0.23203459795E+02 0.18999166691E+02 0.15746354636E+02
 0.13389531732E+02 0.11940351179E+02 0.11182558228E+02 0.10881832382E+02 0.10876863230E+02
 0.11050410574E+02 0.11286591625E+02 0.11476798678E+02 0.11548286538E+02 0.11476798678E+02
 0.11286591625E+02 0.11050410574E+02 0.10876863230E+02 0.10881832382E+02 0.11182558228E+02
 0.11940351179E+02 0.13389531732E+02 0.15746354636E+02 0.18999166691E+02 0.23203459795E+02
 0.31496796179E+02 0.45662437508E+02 0.62849319098E+02 0.77108743777E+02 0.17582048400E+03
 0.16410939549E+03 0.13328546436E+03 0.94107282330E+02 0.58592909172E+02 0.34683997126E+02
 0.23203459795E+02 0.18256542115E+02 0.14672695269E+02 0.12293712782E+02 0.10881832382E+02
 0.10077453169E+02 0.96424297832E+01 0.94371872662E+01 0.93470368114E+01 0.92974001183E+01
 0.92777592809E+01 0.92974001183E+01 0.93470368114E+01 0.94371872662E+01 0.96424297832E+01
 0.10077453169E+02 0.10881832382E+02 0.12293712782E+02 0.14672695269E+02 0.18256542115E+02
 0.23203459795E+02 0.34683997126E+02 0.58592909172E+02 0.94107282330E+02 0.13328546436E+03
 0.16410939549E+03 0.31744034604E+03 0.29740956123E+03 0.24405816132E+03 0.17434261065E+03
 0.10775108208E+03 0.58592909172E+02 0.31496796179E+02 0.21058706622E+02 0.16264656633E+02
 0.12930705121E+02 0.10876863230E+02 0.96424297832E+01 0.89085454292E+01 0.84907952900E+01
 0.82269149175E+01 0.80337146595E+01 0.79536933688E+01 0.80337146595E+01 0.82269149175E+01
 0.84907952900E+01 0.89085454292E+01 0.96424297832E+01 0.10876863230E+02 0.12930705121E+02
 0.16264656633E+02 0.21058706622E+02 0.31496796179E+02 0.58592909172E+02 0.10775108208E+03
 0.17434261065E+03 0.24405816132E+03 0.29740956123E+03 0.49175201911E+03 0.46210339338E+03
 0.38271265648E+03 0.27756840057E+03 0.17434261065E+03 0.94107282330E+02 0.45662437508E+02
 0.24819462297E+02 0.17917200277E+02 0.13708509158E+02 0.11050410574E+02 0.94371872662E+01
 0.84907952900E+01 0.79788045677E+01 0.76574985504E+01 0.73979586387E+01 0.72830066083E+01
 0.73979586387E+01 0.76574985504E+01 0.79788045677E+01 0.84907952900E+01 0.94371872662E+01
 0.11050410574E+02 0.13708509158E+02 0.17917200277E+02 0.24819462297E+02 0.45662437508E+02
 0.94107282330E+02 0.17434261065E+03 0.27756840057E+03 0.38271265648E+03 0.46210339338E+03
 0.66575651209E+03 0.62674296024E+03 0.52208653066E+03 0.38271265648E+03 0.24405816132E+03
 0.13328546436E+03 0.62849319098E+02 0.29825460265E+02 0.19347251409E+02 0.14454010528E+02
 0.11286591625E+02 0.93470368114E+01 0.82269149175E+01 0.76574985504E+01 0.73117701133E+01
 0.70078811740E+01 0.68654048791E+01 0.70078811740E+01 0.73117701133E+01 0.76574985504E+01
 0.82269149175E+01 0.93470368114E+01 0.11286591625E+02 0.14454010528E+02 0.19347251409E+02
 0.29825460265E+02 0.62849319098E+02 0.13328546436E+03 0.24405816132E+03 0.38271265648E+03
 0.52208653066E+03 0.62674296024E+03 0.79615230694E+03 0.75015912721E+03 0.62674296024E+03
 0.46210339338E+03 0.29740956123E+03 0.16410939549E+03 0.77108743777E+02 0.34362967693E+02
 0.20360121809E+02 0.14990832385E+02 0.11476798678E+02 0.92974001183E+01 0.80337146595E+01
 0.73979586387E+01 0.70078811740E+01 0.66497230449E+01 0.64784134014E+01 0.66497230449E+01
 0.70078811740E+01 0.73979586387E+01 0.80337146595E+01 0.92974001183E+01 0.11476798678E+02
 0.14990832385E+02 0.20360121809E+02 0.34362967693E+02 0.77108743777E+02 0.16410939549E+03
 0.29740956123E+03 0.46210339338E+03 0.62674296024E+03 0.75015912721E+03 0.79615230694E+03
 0.75015912721E+03 0.62674296024E+03 0.46210339338E+03 0.29740956123E+03 0.16410939549E+03
 0.77108743777E+02 0.34362967693E+02 0.20360121809E+02 0.14990832385E+02 0.11476798678E+02
 0.92974001183E+01 0.80337146595E+01 0.73979586387E+01 0.70078811740E+01 0.66497230449E+01
 0.64784134014E+01 0.66497230449E+01 0.70078811740E+01 0.73979586387E+01 0.80337146595E+01
 0.92974001183E+01 0.11476798678E+02 0.14990832385E+02 0.20360121809E+02 0.34362967693E+02
 0.77108743777E+02 0.16410939549E+03 0.29740956123E+03 0.46210339338E+03 0.62674296024E+03
 0.75015912721E+03 0.75015912721E+03 0.70662938744E+03 0.58982682094E+03 0.43407701931E+03
 0.27852769748E+03 0.15313645023E+03 0.71972010755E+02 0.32691222015E+02 0.19996431162E+02
 0.14800149249E+02 0.11406331747E+02 0.93139658569E+01 0.81072337242E+01 0.75039947851E+01
 0.71393566597E+01 0.68079691170E+01 0.66497230449E+01 0.68079691170E+01 0.71393566597E+01
 0.75039947851E+01 0.81072337242E+01 0.93139658569E+01 0.11406331747E+02 0.14800149249E+02
 0.19996431162E+02 0.32691222015E+02 0.71972010755E+02 0.15313645023E+03 0.27852769748E+03
 0.43407701931E+03 0.58982682094E+03 0.70662938744E+03 0.62674296024E+03 0.58982682094E+03
 0.49081742135E+03 0.35906849808E+03 0.22828383390E+03 0.12430038382E+03 0.58799497075E+02
 0.28588711204E+02 0.19030523483E+02 0.14277085240E+02 0.11219671657E+02 0.93568769309E+01
 0.82859919362E+01 0.77445396163E+01 0.74205824707E+01 0.71393566597E+01 0.70078811740E+01
 0.71393566597E+01 0.74205824707E+01 0.77445396163E+01 0.82859919362E+01 0.93568769309E+01
 0.11219671657E+02 0.14277085240E+02 0.19030523483E+02 0.28588711204E+02 0.58799497075E+02
 0.12430038382E+03 0.22828383390E+03 0.35906849808E+03 0.49081742135E+03 0.58982682094E+03
 0.46210339338E+03 0.43407701931E+03 0.35906849808E+03 0.25986751211E+03 0.16277956976E+03
 0.87780897460E+02 0.43011889098E+02 0.24081911328E+02 0.17631551012E+02 0.13552786671E+02
 0.10989359586E+02 0.94397400093E+01 0.85341271054E+01 0.80465030396E+01 0.77445396163E+01
 0.75039947851E+01 0.73979586387E+01 0.75039947851E+01 0.77445396163E+01 0.80465030396E+01
 0.85341271054E+01 0.94397400093E+01 0.10989359586E+02 0.13552786671E+02 0.17631551012E+02
 0.24081911328E+02 0.43011889098E+02 0.87780897460E+02 0.16277956976E+03 0.25986751211E+03
 0.35906849808E+03 0.43407701931E+03 0.29740956123E+03 0.27852769748E+03 0.22828383390E+03
 0.16277956976E+03 0.10049458423E+03 0.54899343129E+02 0.30122904919E+02 0.20659416289E+02
 0.16022067469E+02 0.12799693877E+02 0.10821046817E+02 0.96351290875E+01 0.89323006316E+01
 0.85341271054E+01 0.82859919362E+01 0.81072337242E+01 0.80337146595E+01 0.81072337242E+01
 0.82859919362E+01 0.85341271054E+01 0.89323006316E+01 0.96351290875E+01 0.10821046817E+02
 0.12799693877E+02 0.16022067469E+02 0.20659416289E+02 0.30122904919E+02 0.54899343129E+02
 0.10049458423E+03 0.16277956976E+03 0.22828383390E+03 0.27852769748E+03 0.16410939549E+03
 0.15313645023E+03 0.12430038382E+03 0.87780897460E+02 0.54899343129E+02 0.33016635424E+02
 0.22640685142E+02 0.17949911503E+02 0.14479044402E+02 0.12185102014E+02 0.10825824475E+02
 0.10052417733E+02 0.96351290875E+01 0.94397400093E+01 0.93568769309E+01 0.93139658569E+01
 0.92974001183E+01 0.93139658569E+01 0.93568769309E+01 0.94397400093E+01 0.96351290875E+01
 0.10052417733E+02 0.10825824475E+02 0.12185102014E+02 0.14479044402E+02 0.17949911503E+02
 0.22640685142E+02 0.33016635424E+02 0.54899343129E+02 0.87780897460E+02 0.12430038382E+03
 0.15313645023E+03 0.77108743777E+02 0.71972010755E+02 0.58799497075E+02 0.43011889098E+02
 0.30122904919E+02 0.22640685142E+02 0.18669827590E+02 0.15514263394E+02 0.13240521714E+02
 0.11845479115E+02 0.11115796075E+02 0.10825824475E+02 0.10821046817E+02 0.10989359586E+02
 0.11219671657E+02 0.11406331747E+02 0.11476798678E+02 0.11406331747E+02 0.11219671657E+02
 0.10989359586E+02 0.10821046817E+02 0.10825824475E+02 0.11115796075E+02 0.11845479115E+02
 0.13240521714E+02 0.15514263394E+02 0.18669827590E+02 0.22640685142E+02 0.30122904919E+02
 0.43011889098E+02 0.58799497075E+02 0.71972010755E+02 0.34362967693E+02 0.32691222015E+02
 0.28588711204E+02 0.24081911328E+02 0.20659416289E+02 0.17949911503E+02 0.15514263394E+02
 0.13645240551E+02 0.12456157719E+02 0.11895945544E+02 0.11845479115E+02 0.12185102014E+02
 0.12799693877E+02 0.13552786671E+02 0.14277085240E+02 0.14800149249E+02 0.14990832385E+02
 0.14800149249E+02 0.14277085240E+02 0.13552786671E+02 0.12799693877E+02 0.12185102014E+02
 0.11845479115E+02 0.11895945544E+02 0.12456157719E+02 0.13645240551E+02 0.15514263394E+02
 0.17949911503E+02 0.20659416289E+02 0.24081911328E+02 0.28588711204E+02 0.32691222015E+02
 0.20360121809E+02 0.19996431162E+02 0.19030523483E+02 0.17631551012E+02 0.16022067469E+02
 0.14479044402E+02 0.13240521714E+02 0.12456157719E+02 0.12189899111E+02 0.12456157719E+02
 0.13240521714E+02 0.14479044402E+02 0.16022067469E+02 0.17631551012E+02 0.19030523483E+02
 0.19996431162E+02 0.20360121809E+02 0.19996431162E+02 0.19030523483E+02 0.17631551012E+02
 0.16022067469E+02 0.14479044402E+02 0.13240521714E+02 0.12456157719E+02 0.12189899111E+02
 0.12456157719E+02 0.13240521714E+02 0.14479044402E+02 0.16022067469E+02 0.17631551012E+02
 0.19030523483E+02 0.19996431162E+02 0.14990832385E+02 0.14800149249E+02 0.14277085240E+02
 0.13552786671E+02 0.12799693877E+02 0.12185102014E+02 0.11845479115E+02 0.11895945544E+02
 0.12456157719E+02 0.13645240551E+02 0.15514263394E+02 0.17949911503E+02 0.20659416289E+02
 0.24081911328E+02 0.28588711204E+02 0.32691222015E+02 0.34362967693E+02 0.32691222015E+02
 0.28588711204E+02 0.24081911328E+02 0.20659416289E+02 0.17949911503E+02 0.15514263394E+02
 0.13645240551E+02 0.12456157719E+02 0.11895945544E+02 0.11845479115E+02 0.12185102014E+02
 0.12799693877E+02 0.13552786671E+02 0.14277085240E+02 0.14800149249E+02 0.11476798678E+02
 0.11406331747E+02 0.11219671657E+02 0.10989359586E+02 0.10821046817E+02 0.10825824475E+02
 0.11115796075E+02 0.11845479115E+02 0.13240521714E+02 0.15514263394E+02 0.18669827590E+02
 0.22640685142E+02 0.30122904919E+02 0.43011889098E+02 0.58799497075E+02 0.71972010755E+02
 0.77108743777E+02 0.71972010755E+02 0.58799497075E+02 0.43011889098E+02 0.30122904919E+02
 0.22640685142E+02 0.18669827590E+02 0.15514263394E+02 0.13240521714E+02 0.11845479115E+02
 0.11115796075E+02 0.10825824475E+02 0.10821046817E+02 0.10989359586E+02 0.11219671657E+02
 0.11406331747E+02 0.92974001183E+01 0.93139658569E+01 0.93568769309E+01 0.94397400093E+01
 0.96351290875E+01 0.10052417733E+02 0.10825824475E+02 0.12185102014E+02 0.14479044402E+02
 0.17949911503E+02 0.22640685142E+02 0.33016635424E+02 0.54899343129E+02 0.87780897460E+02
 0.12430038382E+03 0.15313645023E+03 0.16410939549E+03 0.15313645023E+03 0.12430038382E+03
 0.87780897460E+02 0.54899343129E+02 0.33016635424E+02 0.22640685142E+02 0.17949911503E+02
 0.14479044402E+02 0.12185102014E+02 0.10825824475E+02 0.10052417733E+02 0.96351290875E+01
 0.94397400093E+01 0.93568769309E+01 0.93139658569E+01 0.80337146595E+01 0.81072337242E+01
 0.82859919362E+01 0.85341271054E+01 0.89323006316E+01 0.96351290875E+01 0.10821046817E+02
 0.12799693877E+02 0.16022067469E+02 0.20659416289E+02 0.30122904919E+02 0.54899343129E+02
 0.10049458423E+03 0.16277956976E+03 0.22828383390E+03 0.27852769748E+03 0.29740956123E+03
 0.27852769748E+03 0.22828383390E+03 0.16277956976E+03 0.10049458423E+03 0.54899343129E+02
 0.30122904919E+02 0.20659416289E+02 0.16022067469E+02 0.12799693877E+02 0.10821046817E+02
 0.96351290875E+01 0.89323006316E+01 0.85341271054E+01 0.82859919362E+01 0.81072337242E+01
 0.73979586387E+01 0.75039947851E+01 0.77445396163E+01 0.80465030396E+01 0.85341271054E+01
 0.94397400093E+01 0.10989359586E+02 0.13552786671E+02 0.17631551012E+02 0.24081911328E+02
 0.43011889098E+02 0.87780897460E+02 0.16277956976E+03 0.25986751211E+03 0.35906849808E+03
 0.43407701931E+03 0.46210339338E+03 0.43407701931E+03 0.35906849808E+03 0.25986751211E+03
 0.16277956976E+03 0.87780897460E+02 0.43011889098E+02 0.24081911328E+02 0.17631551012E+02
 0.13552786671E+02 0.10989359586E+02 0.94397400093E+01 0.85341271054E+01 0.80465030396E+01
 0.77445396163E+01 0.75039947851E+01 0.70078811740E+01 0.71393566597E+01 0.74205824707E+01
 0.77445396163E+01 0.82859919362E+01 0.93568769309E+01 0.11219671657E+02 0.14277085240E+02
 0.19030523483E+02 0.28588711204E+02 0.58799497075E+02 0.12430038382E+03 0.22828383390E+03
 0.35906849808E+03 0.49081742135E+03 0.58982682094E+03 0.62674296024E+03 0.58982682094E+03
 0.49081742135E+03 0.35906849808E+03 0.22828383390E+03 0.12430038382E+03 0.58799497075E+02
 0.28588711204E+02 0.19030523483E+02 0.14277085240E+02 0.11219671657E+02 0.93568769309E+01
 0.82859919362E+01 0.77445396163E+01 0.74205824707E+01 0.71393566597E+01 0.66497230449E+01
 0.68079691170E+01 0.71393566597E+01 0.75039947851E+01 0.81072337242E+01 0.93139658569E+01
 0.11406331747E+02 0.14800149249E+02 0.19996431162E+02 0.32691222015E+02 0.71972010755E+02
 0.15313645023E+03 0.27852769748E+03 0.43407701931E+03 0.58982682094E+03 0.70662938744E+03
 0.75015912721E+03 0.70662938744E+03 0.58982682094E+03 0.43407701931E+03 0.27852769748E+03
 0.15313645023E+03 0.71972010755E+02 0.32691222015E+02 0.19996431162E+02 0.14800149249E+02
 0.11406331747E+02 0.93139658569E+01 0.81072337242E+01 0.75039947851E+01 0.71393566597E+01
 0.68079691170E+01 0.64784134014E+01 0.66497230449E+01 0.70078811740E+01 0.73979586387E+01
 0.80337146595E+01 0.92974001183E+01 0.11476798678E+02 0.14990832385E+02 0.20360121809E+02
 0.34362967693E+02 0.77108743777E+02 0.16410939549E+03 0.29740956123E+03 0.46210339338E+03
 0.62674296024E+03 0.75015912721E+03 0.79615230694E+03 0.75015912721E+03 0.62674296024E+03
 0.46210339338E+03 0.29740956123E+03 0.16410939549E+03 0.77108743777E+02 0.34362967693E+02
 0.20360121809E+02 0.14990832385E+02 0.11476798678E+02 0.92974001183E+01 0.80337146595E+01
 0.73979586387E+01 0.70078811740E+01 0.66497230449E+01 0.66497230449E+01 0.68079691170E+01
 0.71393566597E+01 0.75039947851E+01 0.81072337242E+01 0.93139658569E+01 0.11406331747E+02
 0.14800149249E+02 0.19996431162E+02 0.32691222015E+02 0.71972010755E+02 0.15313645023E+03
 0.27852769748E+03 0.43407701931E+03 0.58982682094E+03 0.70662938744E+03 0.75015912721E+03
 0.70662938744E+03 0.58982682094E+03 0.43407701931E+03 0.27852769748E+03 0.15313645023E+03
 0.71972010755E+02 0.32691222015E+02 0.19996431162E+02 0.14800149249E+02 0.11406331747E+02
 0.93139658569E+01 0.81072337242E+01 0.75039947851E+01 0.71393566597E+01 0.68079691170E+01
 0.70078811740E+01 0.71393566597E+01 0.74205824707E+01 0.77445396163E+01 0.82859919362E+01
 0.93568769309E+01 0.11219671657E+02 0.14277085240E+02 0.19030523483E+02 0.28588711204E+02
 0.58799497075E+02 0.12430038382E+03 0.22828383390E+03 0.35906849808E+03 0.49081742135E+03
 0.58982682094E+03 0.62674296024E+03 0.58982682094E+03 0.49081742135E+03 0.35906849808E+03
 0.22828383390E+03 0.12430038382E+03 0.58799497075E+02 0.28588711204E+02 0.19030523483E+02