    4    4    1    1
  0.1200752E+02  0.3635000E-09  0.3635000E-09  0.3635000E-09  0.5000000E-15
  1.000000000000000E-004
  CAR 
 unknown system                          
     44      4     30
 
  0.0000000E+00  0.0000000E+00  0.0000000E+00  0.3703704E-01
    1       -1.843299   1.000000
    2        2.609651   1.000000
    3        2.609651   1.000000
    4        2.609651   1.000000
    5        3.058159   1.000000
    6        3.058159   1.000000
    7        3.058159   1.000000
    8        4.417080   1.000000
    9        4.417080   1.000000
   10        4.417080   1.000000
   11        5.221076   1.000000
   12        5.221076   1.000000
   13        5.756617   1.000000
   14        5.756617   1.000000
   15        5.756617   1.000000
   16        5.910958   1.000000
   17        5.910958   1.000000
   18        5.910958   1.000000
   19        5.910958   1.000000
   20        5.910958   1.000000
   21        5.910958   1.000000
   22        8.893224  -0.000000
   23        8.893224  -0.000000
   24        8.893224  -0.000000
   25       14.386272   0.000000
   26       14.386272   0.000000
   27       14.386272   0.000000
   28       20.334767   0.000000
   29       20.334767   0.000000
   30       20.334767   0.000000
 
  0.3333333E+00  0.0000000E+00  0.0000000E+00  0.2222222E+00
    1       -0.547099   1.000000
    2        2.196858   1.000000
    3        3.111623   1.000000
    4        3.111623   1.000000
    5        3.383683   1.000000
    6        3.435176   1.000000
    7        3.435176   1.000000
    8        4.062880   1.000000
    9        4.613016   1.000000
   10        4.613016   1.000000
   11        4.719049   1.000000
   12        4.719049   1.000000
   13        4.921877   1.000000
   14        5.340967   1.000000
   15        5.352612   1.000000
   16        5.366019   1.000000
   17        5.366019   1.000000
   18        5.452469   1.000000
   19        5.452469   1.000000
   20        5.620483   1.000000
   21        5.911523   1.000000
   22        5.911523   1.000000
   23       11.380540  -0.000000
   24       11.380540  -0.000000
   25       14.936340   0.000000
   26       14.936340   0.000000
   27       15.985029   0.000000
   28       15.985029   0.000000
   29       17.267950   0.000000
   30       17.267950   0.000000
 
  0.3333333E+00  0.3333333E+00  0.0000000E+00  0.4444444E+00
    1        0.636073   1.000000
    2        2.934877   1.000000
    3        2.934877   1.000000
    4        3.416853   1.000000
    5        3.586825   1.000000
    6        3.645874   1.000000
    7        3.645874   1.000000
    8        4.006090   1.000000
    9        4.147741   1.000000
   10        4.147741   1.000000
   11        4.292563   1.000000
   12        4.524550   1.000000
   13        4.829018   1.000000
   14        4.932406   1.000000
   15        5.152078   1.000000
   16        5.267376   1.000000
   17        5.267376   1.000000
   18        5.451587   1.000000
   19        5.451587   1.000000
   20        5.578944   1.000000
   21        5.683474   1.000000
   22        7.301742   0.878168
   23        7.301742   0.878168
   24       10.589732  -0.000000
   25       13.250862   0.000000
   26       15.751977   0.000000
   27       17.538969   0.000000
   28       17.538969   0.000000
   29       18.525579   0.000000
   30       18.525579   0.000000
 
  0.3333333E+00  0.3333333E+00  0.3333333E+00  0.2962963E+00
    1        1.493928   1.000000
    2        2.822578   1.000000
    3        2.822578   1.000000
    4        2.822578   1.000000
    5        4.029372   1.000000
    6        4.029372   1.000000
    7        4.029372   1.000000
    8        4.418331   1.000000
    9        4.496330   1.000000
   10        4.496330   1.000000
   11        4.498595   1.000000
   12        4.498595   1.000000
   13        4.498595   1.000000
   14        4.701383   1.000000
   15        4.701383   1.000000
   16        4.701383   1.000000
   17        5.510680   1.000000
   18        5.510680   1.000000
   19        5.791861   1.000000
   20        5.791861   1.000000
   21        5.791861   1.000000
   22        7.856613  -0.003168
   23        7.856613  -0.003168
   24        7.856613  -0.003168
   25       12.323613  -0.000000
   26       12.323613  -0.000000
   27       12.323613  -0.000000
   28       15.886925   0.000000
   29       22.974815   0.000000
   30       22.974815   0.000000
