unknown system                          
   1.00000000000000     
     2.376600    0.000000    0.000000
    -1.188300    2.058196    0.000000
     0.000000    0.000000    4.265640
   Fe
     2
Direct
  0.000000  0.000000  0.000000
  0.333333  0.666667  0.500000
 
   20   20   36
  175.37      165.82      140.22      106.09      71.748      43.408      24.078      13.747      9.9394      8.8352    
  8.4730      8.8356      9.9398      13.747      24.078      43.408      71.748      106.09      140.22      165.82    
  165.83      165.82      148.28      118.63      84.873      54.246      31.246      17.284      11.034      9.1706    
  8.4717      8.4709      9.1698      11.035      17.285      31.244      54.244      84.878      118.64      148.30    
  140.23      148.26      140.22      118.63      89.746      60.643      36.727      20.678      12.398      9.4865    
  8.5056      8.1687      8.5038      9.4861      12.400      20.677      36.722      60.639      89.751      118.64    
  106.08      118.57      118.57      106.09      84.872      60.642      38.779      22.757      13.560      9.8078    
  8.5602      7.9583      7.9578      8.5596      9.8086      13.561      22.756      38.774      60.634      84.864    
  71.731      84.775      89.621      84.789      71.748      54.245      36.727      22.757      14.017      10.031    
  8.6108      7.8385      7.5826      7.8389      8.6111      10.032      14.020      22.761      36.727      54.235    
  43.407      54.170      60.512      60.517      54.179      43.408      31.246      20.678      13.560      10.031    
  8.6315      7.7881      7.3746      7.3753      7.7886      8.6299      10.030      13.565      20.689      31.254    
  24.090      31.233      36.666      38.694      36.662      31.223      24.078      17.285      12.398      9.8076    
  8.6110      7.7882      7.3092      7.1586      7.3104      7.7871      8.6062      9.8031      12.400      17.294    
  13.746      17.310      20.700      22.762      22.757      20.688      17.301      13.747      11.034      9.4863    
  8.5603      7.8386      7.3744      7.1586      7.1595      7.3760      7.8381      8.5549      9.4767      11.026    
  9.9259      11.060      12.457      13.633      14.090      13.629      12.457      11.069      9.9396      9.1705    
  8.5055      7.9586      7.5825      7.3752      7.3106      7.3761      7.5860      7.9632      8.5052      9.1614    
  8.8350      9.2011      9.5513      9.9037      10.145      10.147      9.9094      9.5607      9.2093      8.8353    
  8.4715      8.1689      7.9579      7.8388      7.7888      7.7873      7.8378      7.9631      8.1796      8.4800    
  8.4855      8.5218      8.5874      8.6713      8.7465      8.7789      8.7512      8.6759      8.5861      8.5130    
  8.4730      8.4709      8.5040      8.5595      8.6110      8.6300      8.6060      8.5548      8.5056      8.4801    
  8.8346      8.5217      8.2649      8.0898      7.9974      7.9651      7.9665      7.9980      8.0843      8.2543    
  8.5136      8.8354      9.1699      9.4861      9.8083      10.032      10.030      9.8030      9.4770      9.1616    
  9.9256      9.2009      8.5878      8.0899      7.7528      7.5716      7.5167      7.5710      7.7495      8.0849    
  8.5875      9.2100      9.9397      11.035      12.400      13.561      14.020      13.565      12.400      11.026    
  13.746      11.060      9.5516      8.6714      7.9971      7.5716      7.3765      7.3757      7.5702      7.9979    
  8.6767      9.5608      11.068      13.747      17.285      20.677      22.756      22.761      20.689      17.294    
  24.091      17.310      12.457      9.9036      8.7462      7.9652      7.5170      7.3756      7.5153      7.9659    
  8.7512      9.9087      12.455      17.300      24.078      31.244      36.722      38.774      36.727      31.254    
  43.407      31.233      20.700      13.633      10.145      8.7790      7.9666      7.5708      7.5700      7.9660    
  8.7805      10.146      13.627      20.689      31.224      43.408      54.244      60.639      60.634      54.236    
  71.731      54.170      36.666      22.762      14.091      10.147      8.7510      7.9979      7.7494      7.9981    
  8.7513      10.146      14.087      22.757      36.666      54.180      71.748      84.878      89.751      84.864    
  106.08      84.775      60.512      38.694      22.757      13.629      9.9091      8.6760      8.0845      8.0850    
  8.6767      9.9085      13.627      22.757      38.699      60.521      84.784      106.09      118.64      118.64    
  140.23      118.57      89.621      60.517      36.661      20.688      12.457      9.5609      8.5864      8.2541    
  8.5874      9.5607      12.456      20.689      36.666      60.521      89.616      118.55      140.22      148.30    
  165.83      148.26      118.57      84.789      54.178      31.223      17.301      11.069      9.2093      8.5127    
  8.5135      9.2102      11.069      17.300      31.224      54.180      84.784      118.55      148.25      165.82    
  165.82      156.80      132.60      100.29      67.779      40.986      22.812      13.214      9.7366      8.6842    
  8.3325      8.6846      9.7369      13.214      22.812      40.986      67.779      100.29      132.60      156.80    
  156.80      156.80      140.22      112.16      80.196      51.209      29.521      16.470      10.721      9.0049    
  8.3254      8.3247      9.0041      10.722      16.471      29.519      51.208      80.201      112.18      140.24    
  132.61      140.21      132.60      112.16      84.808      57.252      34.667      19.615      11.954      9.2989    
  8.3540      8.0283      8.3522      9.2984      11.955      19.615      34.663      57.248      84.812      112.17    
  100.29      112.11      112.12      100.29      80.196      57.251      36.596      21.549      13.011      9.5841    
  8.4040      7.8228      7.8222      8.4033      9.5847      13.012      21.548      36.591      57.243      80.188    
  67.763      80.123      84.715      80.136      67.779      51.209      34.667      21.549      13.428      9.7810    
  8.4514      7.7059      7.4603      7.7064      8.4516      9.7816      13.430      21.553      34.667      51.200    
  40.984      51.161      57.165      57.170      51.169      40.985      29.521      19.616      13.010      9.7809    
  8.4708      7.6569      7.2603      7.2610      7.6574      8.4694      9.7803      13.015      19.626      29.528    
  22.823      29.531      34.652      36.565      34.647      29.522      22.812      16.471      11.954      9.5839    
  8.4515      7.6569      7.1976      7.0536      7.1987      7.6560      8.4472      9.5798      11.955      16.479    
  13.213      16.515      19.676      21.605      21.600      19.666      16.507      13.214      10.722      9.2986    
  8.4041      7.7061      7.2601      7.0535      7.0544      7.2616      7.7056      8.3992      9.2898      10.714    
  9.7240      10.764      12.044      13.127      13.549      13.123      12.044      10.772      9.7367      9.0048    
  8.3538      7.8230      7.4602      7.2609      7.1989      7.2616      7.4633      7.8272      8.3536      8.9964    
  8.6840      9.0489      9.3896      9.7159      9.9365      9.9379      9.7210      9.3982      9.0564      8.6844    
  8.3253      8.0284      7.8224      7.7063      7.6576      7.6561      7.7053      7.8271      8.0383      8.3331    
  8.3440      8.3862      8.4571      8.5447      8.6216      8.6542      8.6259      8.5489      8.4559      8.3780    
  8.3325      8.3246      8.3524      8.4032      8.4515      8.4695      8.4469      8.3990      8.3540      8.3332    
  8.6836      8.3861      8.1436      7.9794      7.8936      7.8640      7.8653      7.8942      7.9744      8.1338    
  8.3787      8.6844      9.0042      9.2984      9.5845      9.7817      9.7804      9.5797      9.2901      8.9965    
  9.7237      9.0487      8.4575      7.9795      7.6567      7.4833      7.4309      7.4829      7.6537      7.9750    
  8.4573      9.0571      9.7368      10.722      11.955      13.012      13.431      13.015      11.955      10.714    
  13.213      10.764      9.3899      8.5448      7.8933      7.4833      7.2955      7.2948      7.4821      7.8940    
  8.5497      9.3984      10.771      13.214      16.471      19.615      21.548      21.553      19.625      16.479    
  22.824      16.515      12.044      9.7158      8.6213      7.8641      7.4311      7.2947      7.4295      7.8647    
  8.6259      9.7204      12.043      16.506      22.812      29.519      34.662      36.591      34.667      29.528    
  40.984      29.531      19.676      13.127      9.9366      8.6544      7.8654      7.4827      7.4819      7.8648    
  8.6556      9.9372      13.122      19.666      29.524      40.985      51.207      57.248      57.244      51.200    
  67.763      51.161      34.651      21.605      13.549      9.9380      8.6257      7.8941      7.6536      7.8942    
  8.6259      9.9371      13.546      21.601      34.652      51.170      67.779      80.201      84.812      80.188    
  100.29      80.123      57.166      36.565      21.600      13.123      9.7207      8.5490      7.9745      7.9750    
  8.5497      9.7202      13.122      21.601      36.570      57.173      80.131      100.29      112.18      112.17    
  132.61      112.12      84.716      57.170      34.647      19.665      12.044      9.3985      8.4562      8.1336    
  8.4571      9.3983      12.043      19.666      34.652      57.173      84.711      112.10      132.60      140.24    
  156.80      140.21      112.12      80.135      51.169      29.522      16.507      10.772      9.0565      8.3778    
  8.3785      9.0573      10.772      16.506      29.523      51.170      80.131      112.10      140.19      156.80    
  140.23      132.60      112.12      84.704      57.110      34.523      19.491      11.850      9.2074      8.2722    
  7.9515      8.2725      9.2077      11.850      19.491      34.523      57.111      84.704      112.12      132.60    
  132.61      132.60      118.57      94.765      67.614      43.076      24.954      14.363      9.9230      8.5475    
  7.9260      7.9254      8.5468      9.9238      14.364      24.954      43.075      67.617      94.777      118.58    
  112.13      118.57      112.12      94.765      71.519      48.154      29.191      16.841      10.819      8.7947    
  7.9371      7.6437      7.9355      8.7942      10.820      16.841      29.188      48.151      71.522      94.775    
  84.701      94.759      94.760      84.705      67.614      48.153      30.787      18.382      11.601      8.9989    
  7.9720      7.4500      7.4496      7.9714      8.9993      11.602      18.382      30.783      48.147      67.608    
  57.098      67.606      71.514      67.616      57.110      43.076      29.191      18.383      11.913      9.1332    
  8.0086      7.3399      7.1227      7.3404      8.0088      9.1335      11.915      18.385      29.191      43.069    
  34.522      43.102      48.187      48.190      43.108      34.523      24.954      16.841      11.601      9.1332    
  8.0241      7.2934      6.9437      6.9444      7.2941      8.0232      9.1326      11.605      16.849      24.961    
  19.500      25.030      29.298      30.901      29.295      25.023      19.491      14.363      10.819      8.9987    
  8.0087      7.2935      6.8879      6.7618      6.8889      7.2930      8.0055      8.9956      10.820      14.370    
  11.849      14.462      17.009      18.581      18.577      17.001      14.456      11.850      9.9232      8.7944    
  7.9721      7.3401      6.9436      6.7618      6.7624      6.9446      7.3397      7.9683      8.7877      9.9170    
  9.1975      10.013      11.000      11.842      12.173      11.839      11.000      10.020      9.2076      8.5474    
  7.9370      7.4502      7.1226      6.9443      6.8891      6.9447      7.1247      7.4534      7.9368      8.5408    
  8.2720      8.6330      8.9653      9.2404      9.4150      9.4160      9.2442      8.9719      8.6389      8.2723    
  7.9258      7.6439      7.4497      7.3403      7.2943      7.2931      7.3394      7.4533      7.6516      7.9320    
  7.9605      8.0217      8.1101      8.2105      8.2940      8.3281      8.2972      8.2136      8.1091      8.0152    
  7.9515      7.9253      7.9358      7.9713      8.0087      8.0232      8.0053      7.9682      7.9371      7.9321    
  8.2716      8.0216      7.8236      7.6950      7.6320      7.6125      7.6136      7.6325      7.6911      7.8160    
  8.0158      8.2723      8.5469      8.7942      8.9990      9.1336      9.1327      8.9956      8.7879      8.5409    
  9.1972      8.6329      8.1104      7.6950      7.4186      7.2719      7.2281      7.2719      7.4165      7.6916    
  8.1102      8.6394      9.2076      9.9239      10.820      11.602      11.916      11.605      10.820      9.9170    
  11.850      10.013      8.9656      8.2106      7.6317      7.2719      7.1085      7.1080      7.2711      7.6323    
  8.2143      8.9721      10.019      11.850      14.364      16.841      18.382      18.385      16.849      14.369    
  19.500      14.462      11.000      9.2403      8.2938      7.6126      7.2283      7.1079      7.2269      7.6128    
  8.2972      9.2438      10.999      14.455      19.491      24.954      29.188      30.783      29.191      24.961    
  34.522      25.030      17.009      11.842      9.4151      8.3282      7.6137      7.2717      7.2710      7.6129    
  8.3291      9.4156      11.838      17.001      25.024      34.523      43.075      48.151      48.147      43.069    
  57.098      43.101      29.298      18.581      12.173      9.4160      8.2971      7.6324      7.4165      7.6325    
  8.2973      9.4155      12.171      18.577      29.298      43.108      57.110      67.618      71.522      67.608    
  84.700      67.606      48.187      30.901      18.577      11.839      9.2440      8.2137      7.6912      7.6917    
  8.2143      9.2437      11.838      18.577      30.905      48.193      67.612      84.705      94.777      94.775    
  112.13      94.759      71.515      48.191      29.295      17.001      11.000      8.9721      8.1092      7.8158    
  8.1101      8.9720      10.999      17.001      29.298      48.193      71.511      94.749      112.12      118.58    
  132.61      118.57      94.760      67.616      43.107      25.023      14.456      10.020      8.6389      8.0150    
  8.0156      8.6396      10.019      14.455      25.024      43.109      67.612      94.749      118.56      132.60    
  106.07      100.27      84.687      63.811      42.897      26.072      15.309      10.217      8.5085      7.7017    
  7.4300      7.7021      8.5088      10.217      15.309      26.072      42.897      63.811      84.687      100.27    
  100.28      100.27      89.589      71.445      50.792      32.336      19.093      11.780      8.9516      7.9027    
  7.3735      7.3730      7.9021      8.9523      11.782      19.093      32.335      50.794      71.452      89.598    
  84.693      89.611      84.687      71.445      53.736      36.091      22.090      13.384      9.4540      8.0888    
  7.3539      7.1094      7.3526      8.0884      9.4551      13.385      22.089      36.089      53.738      71.452    
  63.809      71.492      71.493      63.812      50.792      36.091      23.231      14.405      9.9005      8.2287    
  7.3613      6.9278      6.9275      7.3607      8.2287      9.9008      14.404      23.228      36.087      50.788    
  42.889      50.870      53.849      50.877      42.897      32.336      22.090      14.405      10.082      8.3045    
  7.3779      6.8228      6.6462      6.8233      7.3781      8.3044      10.083      14.406      22.091      32.331    
  26.072      32.459      36.283      36.285      32.463      26.072      19.092      13.384      9.9004      8.3044    
  7.3860      6.7773      6.4934      6.4941      6.7780      7.3855      8.3040      9.9028      13.390      19.097    
  15.315      19.257      22.362      23.539      22.360      19.252      15.309      11.781      9.4540      8.2285    
  7.3780      6.7773      6.4459      6.3441      6.4467      6.7772      7.3761      8.2267      9.4551      11.785    
  10.216      11.956      13.701      14.798      14.795      13.696      11.952      10.217      8.9518      8.0886    
  7.3613      6.8229      6.4933      6.3441      6.3444      6.4938      6.8226      7.3590      8.0844      8.9477    
  8.5020      9.1125      9.7697      10.323      10.542      10.321      9.7696      9.1169      8.5086      7.9026    
  7.3538      6.9280      6.6461      6.4940      6.4469      6.4939      6.6471      6.9299      7.3536      7.8982    
  7.7016      8.0537      8.3849      8.6418      8.7834      8.7839      8.6439      8.3889      8.0574      7.7019    
  7.3734      7.1095      6.9276      6.8232      6.7782      6.7773      6.8224      6.9298      7.1145      7.3773    
  7.4359      7.5274      7.6431      7.7633      7.8573      7.8940      7.8592      7.7650      7.6422      7.5232    
  7.4300      7.3730      7.3528      7.3606      7.3780      7.3856      7.3760      7.3589      7.3539      7.3774    
  7.7013      7.5273      7.4001      7.3282      7.3027      7.3008      7.3015      7.3032      7.3258      7.3952    
  7.5236      7.7019      7.9022      8.0884      8.2285      8.3044      8.3041      8.2267      8.0846      7.8983    
  8.5017      8.0535      7.6433      7.3283      7.1267      7.0243      6.9948      7.0246      7.1258      7.3262    
  7.6432      8.0578      8.5087      8.9524      9.4549      9.9008      10.083      9.9029      9.4549      8.9477    
  10.216      9.1126      8.3851      7.7633      7.3025      7.0243      6.9007      6.9005      7.0240      7.3030    
  7.7656      8.3891      9.1163      10.217      11.782      13.385      14.404      14.406      13.389      11.785    
  15.315      11.956      9.7695      8.6418      7.8572      7.3008      6.9950      6.9005      6.9938      7.3007    
  7.8592      8.6439      9.7686      11.951      15.309      19.092      22.088      23.228      22.090      19.097    
  26.072      19.257      13.701      10.323      8.7835      7.8941      7.3016      7.0245      7.0238      7.3008    
  7.8945      8.7839      10.321      13.696      19.252      26.072      32.335      36.089      36.087      32.332    
  42.889      32.459      22.362      14.798      10.542      8.7839      7.8591      7.3031      7.1257      7.3031    
  7.8592      8.7838      10.541      14.796      22.362      32.463      42.897      50.794      53.738      50.788    
  63.809      50.870      36.283      23.540      14.796      10.321      8.6437      7.7650      7.3259      7.3263    
  7.7656      8.6438      10.321      14.796      23.542      36.287      50.874      63.812      71.452      71.451    
  84.693      71.492      53.849      36.286      22.360      13.696      9.7695      8.3891      7.6424      7.3950    
  7.6431      8.3891      9.7687      13.696      22.362      36.287      53.847      71.486      84.687      89.598    
  100.28      89.611      71.493      50.876      32.463      19.252      11.952      9.1171      8.0574      7.5230    
  7.5235      8.0580      9.1164      11.951      19.252      32.463      50.874      71.486      89.602      100.27    
  71.604      67.644      57.001      42.828      28.863      18.040      11.592      8.8404      7.7440      7.0932    
  6.8812      7.0934      7.7442      8.8403      11.592      18.039      28.863      42.828      57.001      67.644    
  67.646      67.644      60.333      47.961      34.038      21.931      13.706      9.5744      8.0370      7.2017    
  6.7868      6.7864      7.2013      8.0375      9.5756      13.707      21.930      34.039      47.964      60.337    
  57.004      60.372      57.001      47.961      35.983      24.308      15.448      10.362      8.2698      7.3072    
  6.7262      6.5389      6.7253      7.3067      8.2706      10.362      15.447      24.306      35.984      47.964    
  42.827      48.060      48.061      42.828      34.038      24.307      16.122      10.881      8.4497      7.3881    
  6.6949      6.3637      6.3634      6.6944      7.3879      8.4497      10.881      16.120      24.305      34.036    
  28.859      34.200      36.209      34.203      28.863      21.930      15.448      10.882      8.5221      7.4312    
  6.6829      6.2572      6.1249      6.2576      6.6831      7.4309      8.5219      10.882      15.448      21.929    
  18.039      22.148      24.654      24.655      22.150      18.039      13.706      10.362      8.4496      7.4312    
  6.6804      6.2085      5.9947      5.9952      6.2092      6.6804      7.4308      8.4507      10.365      13.709    
  11.594      13.957      15.880      16.621      15.879      13.955      11.592      9.5746      8.2699      7.3879    
  6.6830      6.2085      5.9539      5.8767      5.9545      6.2087      6.6823      7.3873      8.2706      9.5770    
  8.8397      9.8281      10.829      11.470      11.469      10.827      9.8267      8.8404      8.0371      7.3070    
  6.6949      6.2573      5.9946      5.8767      5.8767      5.9947      6.2571      6.6939      7.3050      8.0350    
  7.7406      8.2742      8.7282      9.0639      9.1918      9.0629      8.7281      8.2766      7.7441      7.2016    
  6.7262      6.3638      6.1249      5.9952      5.9546      5.9947      6.1250      6.3645      6.7260      7.1994    
  7.0931      7.4260      7.7429      7.9917      8.1283      8.1284      7.9924      7.7445      7.4278      7.0933    
  6.7867      6.5390      6.3635      6.2575      6.2093      6.2088      6.2569      6.3644      6.5415      6.7887    
  6.8841      7.0080      7.1487      7.2841      7.3845      7.4221      7.3851      7.2846      7.1481      7.0059    
  6.8812      6.7864      6.7254      6.6943      6.6830      6.6804      6.6822      6.6938      6.7262      6.7888    
  7.0929      7.0080      6.9587      6.9461      6.9578      6.9727      6.9731      6.9582      6.9450      6.9563    
  7.0062      7.0933      7.2013      7.3067      7.3877      7.4309      7.4309      7.3873      7.3052      7.1995    
  7.7404      7.4259      7.1489      6.9462      6.8248      6.7683      6.7535      6.7689      6.8248      6.9453    
  7.1488      7.4281      7.7441      8.0376      8.2706      8.4497      8.5221      8.4508      8.2705      8.0350    
  8.8398      8.2743      7.7430      7.2841      6.9577      6.7683      6.6872      6.6872      6.7684      6.9580    
  7.2851      7.7448      8.2760      8.8404      9.5756      10.362      10.881      10.882      10.364      9.5769    
  11.595      9.8282      8.7281      7.9917      7.3843      6.9727      6.7536      6.6872      6.7528      6.9723    
  7.3851      7.9926      8.7274      9.8257      11.592      13.707      15.447      16.120      15.448      13.709    
  18.040      13.957      10.829      9.0638      8.1284      7.4221      6.9732      6.7688      6.7683      6.9724    
  7.4221      8.1287      9.0629      10.827      13.955      18.039      21.930      24.306      24.305      21.929    
  28.859      22.148      15.880      11.470      9.1921      8.1284      7.3851      6.9582      6.8247      6.9581    
  7.3852      8.1286      9.1918      11.470      15.880      22.150      28.863      34.039      35.984      34.036    
  42.827      34.200      24.654      16.621      11.469      9.0627      7.9922      7.2847      6.9451      6.9453    
  7.2851      7.9925      9.0628      11.470      16.622      24.656      34.202      42.828      47.964      47.964    
  57.004      48.060      36.209      24.655      15.879      10.827      8.7281      7.7447      7.1482      6.9562    
  7.1487      7.7448      8.7274      10.827      15.880      24.656      36.208      48.057      57.001      60.337    
  67.646      60.373      48.061      34.203      22.150      13.955      9.8268      8.2767      7.4278      7.0058    
  7.0061      7.4282      8.2761      9.8257      13.955      22.150      34.202      48.057      60.368      67.644    
  42.990      40.596      34.209      25.859      17.935      12.204      9.1453      7.8471      7.0260      6.5452    
  6.3932      6.5454      7.0262      7.8470      9.1451      12.204      17.935      25.859      34.209      40.596    
  40.596      40.596      36.185      28.818      20.757      14.115      10.003      8.1387      7.1923      6.5606    
  6.2620      6.2618      6.5603      7.1927      8.1396      10.003      14.115      20.757      28.819      36.187    
  34.210      36.238      34.209      28.818      21.835      15.323      10.750      8.3973      7.3184      6.5794    
  6.1575      6.0254      6.1569      6.5791      7.3189      8.3981      10.750      15.322      21.835      28.818    
  25.859      28.954      28.955      25.859      20.757      15.323      11.049      8.5688      7.3920      6.5938    
  6.0827      5.8485      5.8484      6.0824      6.5935      7.3918      8.5685      11.048      15.322      20.756    
  17.934      20.979      22.142      20.980      17.935      14.115      10.750      8.5689      7.4154      6.6009    
  6.0382      5.7333      5.6406      5.7336      6.0383      6.6005      7.4148      8.5687      10.750      14.115    
  12.205      14.401      15.780      15.780      14.402      12.204      10.003      8.3975      7.3920      6.6009    
  6.0235      5.6770      5.5237      5.5241      5.6776      6.0237      6.6007      7.3922      8.3985      10.004    
  9.1460      10.319      11.303      11.688      11.303      10.319      9.1452      8.1388      7.3184      6.5937    
  6.0382      5.6771      5.4863      5.4286      5.4867      5.6774      6.0383      6.5937      7.3189      8.1397    
  7.8467      8.4555      8.9833      9.3100      9.3098      8.9829      8.4554      7.8471      7.1924      6.5792    
  6.0827      5.7334      5.5237      5.4286      5.4285      5.5235      5.7333      6.0825      6.5788      7.1918    
  7.0249      7.4948      7.8967      8.1650      8.2587      8.1646      7.8966      7.4956      7.0261      6.5605    
  6.1574      5.8486      5.6406      5.5241      5.4868      5.5236      5.6402      5.8486      6.1573      6.5598    
  6.5452      6.8493      7.1368      7.3625      7.4866      7.4864      7.3623      7.1370      6.8498      6.5453    
  6.2620      6.0255      5.8485      5.7336      5.6777      5.6774      5.7331      5.8486      6.0262      6.2625    
  6.3941      6.5441      6.6989      6.8377      6.9356      6.9710      6.9355      6.8376      6.6985      6.5434    
  6.3932      6.2618      6.1570      6.0823      6.0382      6.0237      6.0382      6.0825      6.1575      6.2626    
  6.5450      6.5440      6.5617      6.5947      6.6313      6.6557      6.6559      6.6315      6.5944      6.5611    
  6.5436      6.5453      6.5604      6.5791      6.5934      6.6005      6.6007      6.5937      6.5789      6.5598    
  7.0247      6.8492      6.6991      6.5947      6.5376      6.5149      6.5101      6.5155      6.5381      6.5946    
  6.6990      6.8499      7.0261      7.1928      7.3189      7.3918      7.4150      7.3922      7.3189      7.1918    
  7.8467      7.4948      7.1369      6.8378      6.6311      6.5149      6.4666      6.4667      6.5151      6.6313    
  6.8379      7.1372      7.4952      7.8471      8.1396      8.3981      8.5685      8.5687      8.3983      8.1396    
  9.1462      8.4556      7.8966      7.3624      6.9355      6.6557      6.5102      6.4667      6.5097      6.6552    
  6.9355      7.3626      7.8962      8.4546      9.1452      10.003      10.750      11.048      10.750      10.004    
  12.205      10.319      8.9832      8.1650      7.4866      6.9710      6.6559      6.5155      6.5151      6.6553    
  6.9708      7.4868      8.1648      8.9824      10.318      12.204      14.115      15.322      15.322      14.115    
  17.934      14.401      11.302      9.3100      8.2588      7.4864      6.9354      6.6315      6.5381      6.6314    
  6.9355      7.4867      8.2592      9.3101      11.303      14.402      17.935      20.757      21.835      20.756    
  25.859      20.979      15.780      11.689      9.3098      8.1646      7.3622      6.8376      6.5945      6.5946    
  6.8379      7.3625      8.1648      9.3102      11.689      15.781      20.980      25.859      28.819      28.818    
  34.210      28.955      22.142      15.781      11.303      8.9828      7.8966      7.1371      6.6986      6.5610    
  6.6989      7.1372      7.8962      8.9824      11.303      15.781      22.142      28.954      34.209      36.186    
  40.596      36.239      28.955      20.980      14.402      10.319      8.4555      7.4957      6.8498      6.5433    
  6.5436      6.8500      7.4953      8.4546      10.318      14.402      20.980      28.954      36.237      40.596    
  23.290      22.080      18.903      14.907      11.369      9.0617      7.8633      7.0345      6.4449      6.1181    
  6.0172      6.1183      6.4450      7.0344      7.8632      9.0616      11.369      14.907      18.903      22.080    
  22.080      22.080      19.860      16.255      12.516      9.6972      8.1089      7.1887      6.4902      6.0520    
  5.8526      5.8525      6.0519      6.4904      7.1893      8.1095      9.6973      12.516      16.254      19.860    
  18.903      19.919      18.903      16.255      12.968      10.120      8.3020      7.2871      6.5205      5.9938    