unknown system                          
   1.00000000000000     
     2.376600    0.000000    0.000000
    -1.188300    2.058196    0.000000
     0.000000    0.000000    4.265640
   Fe
     2
Direct
  0.000000  0.000000  0.000000
  0.333333  0.666667  0.500000
 
   20   20   36
 0.17537015801E+03 0.16581695015E+03 0.14021896644E+03 0.10608578658E+03 0.71748205826E+02
 0.43408291015E+02 0.24078068961E+02 0.13746861299E+02 0.99394325497E+01 0.88351928457E+01
 0.84730203093E+01 0.88356411212E+01 0.99397890341E+01 0.13746719773E+02 0.24077638005E+02
 0.43408091099E+02 0.71748420172E+02 0.10608610830E+03 0.14021906818E+03 0.16581688199E+03
 0.16582528435E+03 0.16581660041E+03 0.14828026626E+03 0.11862769802E+03 0.84872568420E+02
 0.54245625957E+02 0.31246057814E+02 0.17284360019E+02 0.11034149598E+02 0.91705861819E+01
 0.84717024033E+01 0.84709340178E+01 0.91697664989E+01 0.11034989930E+02 0.17285250817E+02
 0.31244426106E+02 0.54243793254E+02 0.84877759632E+02 0.11864350731E+03 0.14829936646E+03
 0.14023155076E+03 0.14826433058E+03 0.14021903110E+03 0.11862803921E+03 0.89746140779E+02
 0.60642778604E+02 0.36726927476E+02 0.20677820285E+02 0.12398353640E+02 0.94865385289E+01
 0.85055945664E+01 0.81687252687E+01 0.85037779331E+01 0.94860698966E+01 0.12399889771E+02
 0.20677482959E+02 0.36722294149E+02 0.60638710886E+02 0.89750674373E+02 0.11864173385E+03
 0.10608067875E+03 0.11856654569E+03 0.11856848890E+03 0.10608644265E+03 0.84872497227E+02
 0.60642498150E+02 0.38778862564E+02 0.22756686955E+02 0.13559846171E+02 0.98078444405E+01
 0.85602475055E+01 0.79583332914E+01 0.79577557690E+01 0.85595698319E+01 0.98085833921E+01
 0.13561287819E+02 0.22755900523E+02 0.38773688873E+02 0.60633964615E+02 0.84863927717E+02
 0.71731092845E+02 0.84775383937E+02 0.89621178089E+02 0.84789190465E+02 0.71748272478E+02
 0.54245065549E+02 0.36727005823E+02 0.22756879994E+02 0.14016884808E+02 0.10030923547E+02
 0.86108294303E+01 0.78384830523E+01 0.75826199912E+01 0.78389359631E+01 0.86110752963E+01
 0.10031694651E+02 0.14019983801E+02 0.22761330074E+02 0.36727138889E+02 0.54235390889E+02
 0.43406557617E+02 0.54170286446E+02 0.60512083076E+02 0.60516758510E+02 0.54178539816E+02
 0.43407980173E+02 0.31246022257E+02 0.20678235772E+02 0.13559753555E+02 0.10030815089E+02
 0.86315072078E+01 0.77881208368E+01 0.73745606704E+01 0.73753072085E+01 0.77885882934E+01
 0.86299160507E+01 0.10030161168E+02 0.13565183887E+02 0.20689192264E+02 0.31254361953E+02
 0.24090120592E+02 0.31232629930E+02 0.36666480118E+02 0.38693897342E+02 0.36661663199E+02
 0.31222824849E+02 0.24077852463E+02 0.17284661249E+02 0.12398350993E+02 0.98075763543E+01
 0.86109537303E+01 0.77881734300E+01 0.73092018171E+01 0.71586028447E+01 0.73103910984E+01
 0.77871351439E+01 0.86062305562E+01 0.98030735074E+01 0.12399889771E+02 0.17293733515E+02
 0.13745910479E+02 0.17309513239E+02 0.20700205691E+02 0.22761954384E+02 0.22756509505E+02
 0.20688480677E+02 0.17301072958E+02 0.13746842296E+02 0.11034321615E+02 0.94862663966E+01
 0.85602990423E+01 0.78386432950E+01 0.73743813664E+01 0.71585636355E+01 0.71594924721E+01
 0.73760313975E+01 0.78381266691E+01 0.85549495746E+01 0.94767033681E+01 0.11025778271E+02
 0.99258664148E+01 0.11060200621E+02 0.12456941856E+02 0.13632684219E+02 0.14090175529E+02
 0.13628826890E+02 0.12456873312E+02 0.11069194851E+02 0.99396093253E+01 0.91704908282E+01
 0.85054553322E+01 0.79585568934E+01 0.75825059249E+01 0.73751906604E+01 0.73106418496E+01
 0.73760941534E+01 0.75860246987E+01 0.79631853202E+01 0.85052179656E+01 0.91613641344E+01
 0.88349625086E+01 0.92010934866E+01 0.95512724303E+01 0.99037481627E+01 0.10145173855E+02
 0.10146800930E+02 0.99094210746E+01 0.95606515733E+01 0.92092816077E+01 0.88353479876E+01
 0.84715077721E+01 0.81688720743E+01 0.79578782807E+01 0.78387739763E+01 0.77887717092E+01
 0.77872659665E+01 0.78378044397E+01 0.79630842300E+01 0.81795797039E+01 0.84800149950E+01
 0.84855028961E+01 0.85218176271E+01 0.85873733003E+01 0.86713265368E+01 0.87464572181E+01
 0.87789071341E+01 0.87511929021E+01 0.86759470290E+01 0.85861460305E+01 0.85129612139E+01
 0.84729917703E+01 0.84708666677E+01 0.85040152997E+01 0.85594522400E+01 0.86109537303E+01
 0.86300112332E+01 0.86059846903E+01 0.85547804460E+01 0.85055945664E+01 0.84801422761E+01
 0.88345631525E+01 0.85216962626E+01 0.82648940712E+01 0.80897926832E+01 0.79974493455E+01
 0.79651303175E+01 0.79664521676E+01 0.79980217767E+01 0.80843169649E+01 0.82542955588E+01
 0.85136284154E+01 0.88353969071E+01 0.91698611350E+01 0.94860867958E+01 0.98082863810E+01
 0.10031718878E+02 0.10030293854E+02 0.98030445825E+01 0.94769923996E+01 0.91615541242E+01
 0.99255628249E+01 0.92009299290E+01 0.85877541361E+01 0.80898696221E+01 0.77528256563E+01
 0.75715631970E+01 0.75167242391E+01 0.75709823713E+01 0.77494729817E+01 0.80849466581E+01
 0.85875331685E+01 0.92099602204E+01 0.99396622199E+01 0.11035130909E+02 0.12399738131E+02
 0.13561287038E+02 0.14020342410E+02 0.13565275722E+02 0.12399740778E+02 0.11025747233E+02
 0.13746072886E+02 0.11060278768E+02 0.95515556211E+01 0.86714076228E+01 0.79971268327E+01
 0.75715586118E+01 0.73764657662E+01 0.73756626650E+01 0.75701939592E+01 0.79978630579E+01
 0.86766979328E+01 0.95607613727E+01 0.11068406439E+02 0.13746863178E+02 0.17285369328E+02
 0.20677490701E+02 0.22756091582E+02 0.22761328094E+02 0.20688784520E+02 0.17293550796E+02
 0.24090551548E+02 0.17309724934E+02 0.12456774612E+02 0.99036402809E+01 0.87462278288E+01
 0.79651699230E+01 0.75169634098E+01 0.73755931157E+01 0.75153371012E+01 0.79659067129E+01
 0.87511929021E+01 0.99086582235E+01 0.12455433279E+02 0.17300347903E+02 0.24077852463E+02
 0.31244404535E+02 0.36722161083E+02 0.38773517251E+02 0.36726927476E+02 0.31254375940E+02
 0.43406770813E+02 0.31232581001E+02 0.20699788223E+02 0.13632519538E+02 0.10145336724E+02
 0.87790251310E+01 0.79666058860E+01 0.75708268224E+01 0.75700429956E+01 0.79660208257E+01
 0.87804648439E+01 0.10145959341E+02 0.13627306688E+02 0.20689191584E+02 0.31224425384E+02
 0.43407993454E+02 0.54243545348E+02 0.60638588801E+02 0.60634122983E+02 0.54235703391E+02
 0.71730912563E+02 0.54169890381E+02 0.36666286181E+02 0.22762064874E+02 0.14090542718E+02
 0.10146856926E+02 0.87510385051E+01 0.79979152448E+01 0.77494021180E+01 0.79980790387E+01
 0.87512678943E+01 0.10145852468E+02 0.14086804885E+02 0.22757318799E+02 0.36666473875E+02
 0.54180073299E+02 0.71748306542E+02 0.84877926778E+02 0.89750951455E+02 0.84864166055E+02
 0.10608038472E+03 0.84775095902E+02 0.60512273348E+02 0.38694304766E+02 0.22756663017E+02
 0.13628637882E+02 0.99091263763E+01 0.86760210676E+01 0.80844677652E+01 0.80850205195E+01
 0.86766908855E+01 0.99084714070E+01 0.13627282363E+02 0.22757361821E+02 0.38699218865E+02
 0.60520626884E+02 0.84783788608E+02 0.10608647034E+03 0.11864361689E+03 0.11864150224E+03
 0.14023144903E+03 0.11856682441E+03 0.89621467592E+02 0.60517013711E+02 0.36661475505E+02
 0.20688125802E+02 0.12456774612E+02 0.95609094283E+01 0.85863669981E+01 0.82541221587E+01
 0.85873733003E+01 0.95607360369E+01 0.12455501823E+02 0.20689254178E+02 0.36666480118E+02
 0.60520691812E+02 0.89616333348E+02 0.11855291713E+03 0.14021903110E+03 0.14829881085E+03
 0.16582533889E+03 0.14826499130E+03 0.11856857789E+03 0.84788886499E+02 0.54178279121E+02
 0.31222672060E+02 0.17301251955E+02 0.11069455920E+02 0.92093186688E+01 0.85126778295E+01
 0.85134663956E+01 0.92101608391E+01 0.11068589361E+02 0.17300315205E+02 0.31224321524E+02
 0.54180208668E+02 0.84783772676E+02 0.11855272740E+03 0.14824576602E+03 0.16581658678E+03
 0.16581944547E+03 0.15679557782E+03 0.13259691812E+03 0.10029299343E+03 0.67778596325E+02
 0.40985697288E+02 0.22812193854E+02 0.13213699167E+02 0.97365707457E+01 0.86842078647E+01
 0.83325002143E+01 0.86846412525E+01 0.97369149758E+01 0.13213561165E+02 0.22811775452E+02
 0.40985502316E+02 0.67778802554E+02 0.10029330435E+03 0.13259701689E+03 0.15679551232E+03
 0.15680326889E+03 0.15679523779E+03 0.14021832841E+03 0.11216110161E+03 0.80195883186E+02
 0.51209251202E+02 0.29520636325E+02 0.16470367388E+02 0.10721376065E+02 0.90049060061E+01
 0.83254499967E+01 0.83247124485E+01 0.90041180794E+01 0.10722205121E+02 0.16471328010E+02
 0.29519256859E+02 0.51207594221E+02 0.80200640304E+02 0.11217566957E+03 0.14023597402E+03
 0.13260854531E+03 0.14020740975E+03 0.13259698030E+03 0.11216143308E+03 0.84807728760E+02
 0.57251607830E+02 0.34666841286E+02 0.19615144686E+02 0.11954004217E+02 0.92988776195E+01
 0.83539667723E+01 0.80283007907E+01 0.83522144608E+01 0.92984012353E+01 0.11955486457E+02
 0.19614954512E+02 0.34662628544E+02 0.57247819213E+02 0.84811846505E+02 0.11217404670E+03
 0.10028831628E+03 0.11211474865E+03 0.11211653752E+03 0.10029363080E+03 0.80195814959E+02
 0.57251335585E+02 0.36596231845E+02 0.21548575150E+02 0.13010503788E+02 0.95841208068E+01
 0.84040136620E+01 0.78227841532E+01 0.78222332905E+01 0.84033433277E+01 0.95847480905E+01
 0.13011780504E+02 0.21547797967E+02 0.36591410591E+02 0.57243427838E+02 0.80187895673E+02
 0.67762856617E+02 0.80122927474E+02 0.84715384688E+02 0.80135650374E+02 0.67778661908E+02
 0.51208707209E+02 0.34666916404E+02 0.21548762410E+02 0.13427686503E+02 0.97810138045E+01
 0.84513531897E+01 0.77059460621E+01 0.74602611906E+01 0.77064088199E+01 0.84515911781E+01
 0.97816468174E+01 0.13430418670E+02 0.21552786029E+02 0.34667046059E+02 0.51199837652E+02
 0.40984136933E+02 0.51161207032E+02 0.57165328321E+02 0.57169651405E+02 0.51168819978E+02
 0.40985395544E+02 0.29520601077E+02 0.19615547880E+02 0.13010415014E+02 0.97809088168E+01
 0.84708407720E+01 0.76568660698E+01 0.72602649511E+01 0.72610037042E+01 0.76573926122E+01
 0.84694179770E+01 0.97802814342E+01 0.13015403182E+02 0.19625699332E+02 0.29528378812E+02
 0.22823303873E+02 0.29531207915E+02 0.34651579721E+02 0.36564904299E+02 0.34647186886E+02
 0.29522210978E+02 0.22811983938E+02 0.16470660051E+02 0.11954002542E+02 0.95838608861E+01
 0.84514725410E+01 0.76569166108E+01 0.71975549804E+01 0.70535685730E+01 0.71986993230E+01
 0.76560230841E+01 0.84471736622E+01 0.95797641735E+01 0.11955486457E+02 0.16479080434E+02
 0.13212761765E+02 0.16514958263E+02 0.19676291348E+02 0.21605136728E+02 0.21600131882E+02
 0.19665527949E+02 0.16507246033E+02 0.13213681260E+02 0.10721542716E+02 0.92986129314E+01
 0.84040624540E+01 0.77061009178E+01 0.72600919617E+01 0.70535310511E+01 0.70543638276E+01
 0.72615696878E+01 0.77056094203E+01 0.83991546653E+01 0.92898211986E+01 0.10713649153E+02
 0.97239994160E+01 0.10763761092E+02 0.12044219037E+02 0.13126819893E+02 0.13549136902E+02
 0.13123234124E+02 0.12044152214E+02 0.10772106688E+02 0.97367413618E+01 0.90048122325E+01
 0.83538316088E+01 0.78230016755E+01 0.74601516454E+01 0.72608913613E+01 0.71989421193E+01
 0.72616303342E+01 0.74632915676E+01 0.78272213524E+01 0.83536015997E+01 0.89963615100E+01
 0.86839922042E+01 0.90488734407E+01 0.93896412244E+01 0.97158563976E+01 0.99364805485E+01
 0.99379382100E+01 0.97210010936E+01 0.93982343933E+01 0.90564215012E+01 0.86843577286E+01
 0.83252620152E+01 0.80284449003E+01 0.78223526272E+01 0.77062512691E+01 0.76575698041E+01
 0.76561497349E+01 0.77052970138E+01 0.78271231668E+01 0.80383292752E+01 0.83331180662E+01
 0.83440286351E+01 0.83862326967E+01 0.84571301150E+01 0.85447481357E+01 0.86215541628E+01
 0.86542408045E+01 0.86258685554E+01 0.85489388315E+01 0.84559482074E+01 0.83780430501E+01
 0.83324732984E+01 0.83246483034E+01 0.83524444699E+01 0.84032277179E+01 0.84514725410E+01
 0.84695107253E+01 0.84469356738E+01 0.83989902637E+01 0.83539667723E+01 0.83332419025E+01
 0.86836049634E+01 0.83861144374E+01 0.81435758343E+01 0.79794079312E+01 0.78936341351E+01
 0.78640148240E+01 0.78652571677E+01 0.78942038351E+01 0.79743742222E+01 0.81337937550E+01
 0.83786812878E+01 0.86844038756E+01 0.90042093312E+01 0.92984164330E+01 0.95844596424E+01
 0.97816712987E+01 0.97804109032E+01 0.95797356462E+01 0.92901010845E+01 0.89965465355E+01
 0.97237053374E+01 0.90487137863E+01 0.84574992739E+01 0.79794831402E+01 0.76566895801E+01
 0.74832815418E+01 0.74308662398E+01 0.74828528936E+01 0.76537081183E+01 0.79749771235E+01
 0.84572851948E+01 0.90570705494E+01 0.97367915132E+01 0.10722342116E+02 0.11955339529E+02
 0.13011780397E+02 0.13430767032E+02 0.13015491850E+02 0.11955341205E+02 0.10713619496E+02
 0.13212919897E+02 0.10763836419E+02 0.93899155384E+01 0.85448278966E+01 0.78933218568E+01
 0.74832767189E+01 0.72954771879E+01 0.72947648436E+01 0.74820736239E+01 0.78940274666E+01
 0.85496827648E+01 0.93983646147E+01 0.10771327418E+02 0.13213701390E+02 0.16471443466E+02
 0.19614961767E+02 0.21547983141E+02 0.21552783942E+02 0.19625303392E+02 0.16478903227E+02
 0.22823722275E+02 0.16515163809E+02 0.12044056453E+02 0.97157523170E+01 0.86213321890E+01
 0.78640524492E+01 0.74310974864E+01 0.72946974004E+01 0.74295292523E+01 0.78646547841E+01
 0.86258685554E+01 0.97203515276E+01 0.12042765075E+02 0.16506447151E+02 0.22811983938E+02
 0.29519235176E+02 0.34662498888E+02 0.36591244301E+02 0.34666841286E+02 0.29528392377E+02
 0.40984343537E+02 0.29531160611E+02 0.19675886184E+02 0.13126659933E+02 0.99366386081E+01
 0.86543546585E+01 0.78654056822E+01 0.74827022380E+01 0.74819277912E+01 0.78647656734E+01
 0.86556298916E+01 0.99372335076E+01 0.13121880373E+02 0.19666082300E+02 0.29523560584E+02
 0.40985407176E+02 0.51207353459E+02 0.57247701274E+02 0.57243582144E+02 0.51200140882E+02
 0.67762681126E+02 0.51160822593E+02 0.34651391626E+02 0.21605243611E+02 0.13549492897E+02
 0.99379923587E+01 0.86257189676E+01 0.78941011265E+01 0.76536397890E+01 0.78942370364E+01
 0.86259409414E+01 0.99371295968E+01 0.13546137262E+02 0.21600931281E+02 0.34651573664E+02
 0.51170185361E+02 0.67778692645E+02 0.80200803021E+02 0.84812115538E+02 0.80188126616E+02
 0.10028803056E+03 0.80122648065E+02 0.57165513234E+02 0.36565299659E+02 0.21600280743E+02
 0.13123050816E+02 0.97207157028E+01 0.85490114950E+01 0.79745202720E+01 0.79750479643E+01
 0.85496756674E+01 0.97201702175E+01 0.13121857025E+02 0.21600973260E+02 0.36569871312E+02
 0.57173248890E+02 0.80130687506E+02 0.10029365600E+03 0.11217577538E+03 0.11217382104E+03
 0.13260844654E+03 0.11211501998E+03 0.84715666185E+02 0.57169899129E+02 0.34647004847E+02
 0.19665183671E+02 0.12044056453E+02 0.93984850311E+01 0.84561622864E+01 0.81336241705E+01
 0.84571301150E+01 0.93983409386E+01 0.12042831898E+02 0.19666143185E+02 0.34651579721E+02
 0.57173311700E+02 0.84710967172E+02 0.11210220070E+03 0.13259698030E+03 0.14023543374E+03
 0.15680332193E+03 0.14020805221E+03 0.11211662463E+03 0.80135355047E+02 0.51168566706E+02
 0.29522062747E+02 0.16507419178E+02 0.10772359802E+02 0.90564578998E+01 0.83777674227E+01
 0.83785239197E+01 0.90572666024E+01 0.10771505206E+02 0.16506414750E+02 0.29523459657E+02
 0.51170316529E+02 0.80130671587E+02 0.11210201648E+03 0.14019028620E+03 0.15679522533E+03
 0.14022534786E+03 0.13260112641E+03 0.11211674166E+03 0.84704139308E+02 0.57110333385E+02
 0.34522995690E+02 0.19491197295E+02 0.11850273374E+02 0.92073987838E+01 0.82721511506E+01
 0.79514891692E+01 0.82725418081E+01 0.92077073398E+01 0.11850144616E+02 0.19490814831E+02
 0.34522816516E+02 0.57110518918E+02 0.84704420968E+02 0.11211683195E+03 0.13260106782E+03
 0.13260712578E+03 0.13260081432E+03 0.11856801233E+03 0.94765195794E+02 0.67613854094E+02
 0.43076131468E+02 0.24954369195E+02 0.14362580683E+02 0.99230319824E+01 0.85475202208E+01
 0.79260082930E+01 0.79253578876E+01 0.85468219437E+01 0.99238179740E+01 0.14363692028E+02
 0.24953622752E+02 0.43074927502E+02 0.67617477299E+02 0.94776506002E+02 0.11858183075E+03
 0.11212584908E+03 0.11857075206E+03 0.11211679684E+03 0.94765499423E+02 0.71518918118E+02
 0.48153711783E+02 0.29190830420E+02 0.16840812096E+02 0.10818521774E+02 0.87946897050E+01
 0.79371097270E+01 0.76437433927E+01 0.79355436042E+01 0.87942030540E+01 0.10819848193E+02
 0.16840981619E+02 0.29187708495E+02 0.48150663323E+02 0.71521955931E+02 0.94775275487E+02
 0.84700587932E+02 0.94758821905E+02 0.94760206519E+02 0.84704723118E+02 0.67613794320E+02
 0.48153462998E+02 0.30786745585E+02 0.18382385321E+02 0.11601020999E+02 0.89989260792E+01
 0.79720314781E+01 0.74500324505E+01 0.74495567258E+01 0.79713928545E+01 0.89992741703E+01
 0.11601877330E+02 0.18381644566E+02 0.30782861819E+02 0.48147207892E+02 0.67607586309E+02
 0.57098194071E+02 0.67606080435E+02 0.71514434188E+02 0.67615957707E+02 0.57110395794E+02
 0.43075634369E+02 0.29190896234E+02 0.18382556039E+02 0.11913432039E+02 0.91332462854E+01
 0.80086197798E+01 0.73399343127E+01 0.71226556162E+01 0.73404134033E+01 0.80088352680E+01
 0.91335344700E+01 0.11915228877E+02 0.18385477602E+02 0.29191016215E+02 0.43068869549E+02
 0.34521880642E+02 0.43101591053E+02 0.48187044188E+02 0.48190438410E+02 0.43107519937E+02
 0.34522719892E+02 0.24954334769E+02 0.16841180081E+02 0.11600943251E+02 0.91331512426E+01
 0.80241453962E+01 0.72934363747E+01 0.69437241354E+01 0.69444298489E+01 0.72940939662E+01
 0.80231528679E+01 0.91325985958E+01 0.11604774493E+02 0.16849205960E+02 0.24960616579E+02
 0.19499831959E+02 0.25030260069E+02 0.29298097751E+02 0.30900732164E+02 0.29294808232E+02
 0.25023377115E+02 0.19491006180E+02 0.14362848812E+02 0.10818522943E+02 0.89986895922E+01
 0.80087250845E+01 0.72934810797E+01 0.68878610199E+01 0.67618175806E+01 0.68888745414E+01
 0.72929513333E+01 0.80055275485E+01 0.89956478925E+01 0.10819848193E+02 0.14369543223E+02
 0.11849384284E+02 0.14461525612E+02 0.17009348324E+02 0.18580520578E+02 0.18576668314E+02
 0.17001100742E+02 0.14455710840E+02 0.11850258662E+02 0.99231833503E+01 0.87944464428E+01
 0.79720725258E+01 0.73400737835E+01 0.69435690969E+01 0.67617848271E+01 0.67623711540E+01
 0.69446053910E+01 0.73396530712E+01 0.79683201501E+01 0.87876749186E+01 0.99169996891E+01
 0.91974566176E+01 0.10013094985E+02 0.11000167379E+02 0.11842285024E+02 0.12172993019E+02
 0.11839419597E+02 0.11000105534E+02 0.10019723307E+02 0.92075518575E+01 0.85474310762E+01
 0.79369862128E+01 0.74502324829E+01 0.71225588765E+01 0.69443294290E+01 0.68890946140E+01
 0.69446600095E+01 0.71247297415E+01 0.74533897623E+01 0.79367771983E+01 0.85407639909E+01
 0.82719762405E+01 0.86330045475E+01 0.89653430335E+01 0.92404350044E+01 0.94149657003E+01
 0.94159883949E+01 0.92442120426E+01 0.89718831002E+01 0.86388697705E+01 0.82722859026E+01
 0.79258391841E+01 0.76438795724E+01 0.74496669153E+01 0.73402685480E+01 0.72942534060E+01
 0.72930660681E+01 0.73393687451E+01 0.74532999194E+01 0.76515974278E+01 0.79319814080E+01
 0.79605062974E+01 0.80216595696E+01 0.81101009197E+01 0.82105213046E+01 0.82939897127E+01
 0.83281256645E+01 0.82972087758E+01 0.82135986737E+01 0.81090503781E+01 0.80152278836E+01
 0.79514666635E+01 0.79253027386E+01 0.79357526187E+01 0.79712830716E+01 0.80087250845E+01
 0.80232386441E+01 0.80053120603E+01 0.79681693194E+01 0.79371097270E+01 0.79320953679E+01
 0.82716236822E+01 0.80215502092E+01 0.78236267189E+01 0.76949698465E+01 0.76319503673E+01
 0.76125318048E+01 0.76135592836E+01 0.76325024435E+01 0.76910943255E+01 0.78159934401E+01
 0.80157844741E+01 0.82723240018E+01 0.85469036079E+01 0.87942135791E+01 0.89990103018E+01
 0.91335596485E+01 0.91327188170E+01 0.89956205110E+01 0.87879287059E+01 0.85409347996E+01
 0.91971897532E+01 0.86328560525E+01 0.81104365667E+01 0.76950400698E+01 0.74185721200E+01
 0.72719274466E+01 0.72280743289E+01 0.72718744851E+01 0.74165411332E+01 0.76916217938E+01
 0.81102422806E+01 0.86394353381E+01 0.92075935491E+01 0.99239436824E+01 0.10819714846E+02
 0.11601879126E+02 0.11915547856E+02 0.11604854035E+02 0.10819713677E+02 0.99169740296E+01
 0.11849530147E+02 0.10013162195E+02 0.89655918559E+01 0.82105972284E+01 0.76316674531E+01
 0.72719219615E+01 0.71084551397E+01 0.71079750890E+01 0.72711312573E+01 0.76322866841E+01
 0.82143127794E+01 0.89720607604E+01 0.10018980079E+02 0.11850275767E+02 0.14363798799E+02
 0.16840987434E+02 0.18381812812E+02 0.18385475130E+02 0.16848843792E+02 0.14369381864E+02
 0.19500214424E+02 0.14461713504E+02 0.11000018132E+02 0.92403418074E+01 0.82937890227E+01
 0.76125637935E+01 0.72282828639E+01 0.71079137204E+01 0.72268824264E+01 0.76128300067E+01
 0.82972087758E+01 0.92438482835E+01 0.10998871940E+02 0.14454748699E+02 0.19491006180E+02
 0.24953600703E+02 0.29187588514E+02 0.30782710740E+02 0.29190830420E+02 0.24960628957E+02
 0.34522068412E+02 0.25030217420E+02 0.17008978446E+02 0.11842138632E+02 0.94151099938E+01
 0.83282276864E+01 0.76136928800E+01 0.72717379113E+01 0.72710001686E+01 0.76129316145E+01
 0.83290820646E+01 0.94156266846E+01 0.11838492319E+02 0.17001267688E+02 0.25024097634E+02
 0.34522728488E+02 0.43074707091E+02 0.48150557240E+02 0.48147350593E+02 0.43069146237E+02
 0.57098032344E+02 0.43101239944E+02 0.29297926387E+02 0.18580617170E+02 0.12173316937E+02
 0.94160372718E+01 0.82970729348E+01 0.76324106809E+01 0.74164801105E+01 0.76324778356E+01
 0.82972736248E+01 0.94155312679E+01 0.12170942701E+02 0.18577428646E+02 0.29298092144E+02
 0.43108455811E+02 0.57110419601E+02 0.67617627357E+02 0.71522202030E+02 0.67607796141E+02
 0.84700326025E+02 0.67605825694E+02 0.48187213667E+02 0.30901092953E+02 0.18576803887E+02
 0.11839252626E+02 0.92439532822E+01 0.82136672839E+01 0.76912267865E+01 0.76916840317E+01
 0.82143054657E+01 0.92436827201E+01 0.11838471741E+02 0.18577467627E+02 0.30904752206E+02
 0.48193315819E+02 0.67612144423E+02 0.84704742872E+02 0.94776601174E+02 0.94775067030E+02
 0.11212575879E+03 0.94759071903E+02 0.71514692578E+02 0.48190664680E+02 0.29294642475E+02
 0.17000786872E+02 0.11000018132E+02 0.89721129237E+01 0.81092446642E+01 0.78158349549E+01
 0.81101009197E+01 0.89720417615E+01 0.10998933785E+02 0.17001323697E+02 0.29298097751E+02
 0.48193372609E+02 0.71511126469E+02 0.94749109187E+02 0.11211679684E+03 0.11858133458E+03
 0.13260717452E+03 0.11857134198E+03 0.94760288083E+02 0.67615687093E+02 0.43107288059E+02
 0.25023242027E+02 0.14455867198E+02 0.10019953538E+02 0.86389041675E+01 0.80149746258E+01
 0.80156405768E+01 0.86396182301E+01 0.10019143100E+02 0.14454717165E+02 0.25024005195E+02
 0.43108575042E+02 0.67612128550E+02 0.94748940754E+02 0.11855741548E+03 0.13260080448E+03
 0.10606644851E+03 0.10027413776E+03 0.84687043070E+02 0.63811200924E+02 0.42896703824E+02
 0.26072212415E+02 0.15309451597E+02 0.10217152275E+02 0.85085170672E+01 0.77017459199E+01
 0.74300455466E+01 0.77020726797E+01 0.85087715746E+01 0.10217036348E+02 0.15309123633E+02
 0.26072060695E+02 0.42896863661E+02 0.63811442107E+02 0.84687120492E+02 0.10027408798E+03
 0.10027798596E+03 0.10027386836E+03 0.89589369575E+02 0.71445072751E+02 0.50791596868E+02
 0.32335965459E+02 0.19092529755E+02 0.11780416610E+02 0.89516257969E+01 0.79026618155E+01
 0.73735194725E+01 0.73729972317E+01 0.79020955350E+01 0.89523197618E+01 0.11781626856E+02
 0.19092502324E+02 0.32335311704E+02 0.50793800454E+02 0.71452260685E+02 0.89598317440E+02
 0.84692939941E+02 0.89610636785E+02 0.84687087920E+02 0.71445334102E+02 0.53736463821E+02
 0.36090907987E+02 0.22090351478E+02 0.13384097928E+02 0.94539681779E+01 0.80888487303E+01
 0.73539211251E+01 0.71094166974E+01 0.73526394239E+01 0.80883769215E+01 0.94550559430E+01
 0.13384647225E+02 0.22088573363E+02 0.36088818563E+02 0.53738168290E+02 0.71451518702E+02
 0.63809060537E+02 0.71492175454E+02 0.71493050777E+02 0.63811703416E+02 0.50791549753E+02
 0.36090694671E+02 0.23230677642E+02 0.14404695150E+02 0.99004838004E+01 0.82286545332E+01
 0.73612549308E+01 0.69278354622E+01 0.69274687455E+01 0.73606900898E+01 0.82286873189E+01
 0.99008431215E+01 0.14404035234E+02 0.23228016109E+02 0.36086560174E+02 0.50787520907E+02
 0.42889108969E+02 0.50870336835E+02 0.53848861590E+02 0.50876609046E+02 0.42896761116E+02
 0.32335539215E+02 0.22090403048E+02 0.14404840792E+02 0.10081964805E+02 0.83044796255E+01
 0.73778901551E+01 0.68228185650E+01 0.66461679680E+01 0.68232910337E+01 0.73780716945E+01
 0.83043813775E+01 0.10082656106E+02 0.14406416805E+02 0.22090508604E+02 0.32331413727E+02
 0.26071635796E+02 0.32459078653E+02 0.36283190086E+02 0.36285397418E+02 0.32462867641E+02
 0.26071975641E+02 0.19092496414E+02 0.13384412527E+02 0.99004227805E+01 0.83043996786E+01
 0.73860212258E+01 0.67772687539E+01 0.64934325123E+01 0.64940614202E+01 0.67780257395E+01
 0.73855416749E+01 0.83039564787E+01 0.99027997931E+01 0.13389712084E+02 0.19096825199E+02
 0.15314943083E+02 0.19256638024E+02 0.22362129850E+02 0.23539475547E+02 0.22360208605E+02
 0.19252409664E+02 0.15309288942E+02 0.11780647493E+02 0.94539737660E+01 0.82284537281E+01
 0.73779745195E+01 0.67773047451E+01 0.64458697982E+01 0.63441322895E+01 0.64466824956E+01
 0.67771909413E+01 0.73761364528E+01 0.82267156480E+01 0.94550559430E+01 0.11785114933E+02
 0.10216361919E+02 0.11955723330E+02 0.13701424022E+02 0.14797828219E+02 0.14795427726E+02
 0.13696336911E+02 0.11952271187E+02 0.10217142476E+02 0.89517542551E+01 0.80886382831E+01
 0.73612845929E+01 0.68229348462E+01 0.64933043119E+01 0.63441065695E+01 0.63443968189E+01
 0.64938118900E+01 0.68226166047E+01 0.73589829483E+01 0.80844113904E+01 0.89477473561E+01
 0.85019536469E+01 0.91125178839E+01 0.97696559937E+01 0.10323344503E+02 0.10541625379E+02
 0.10321412198E+02 0.97696018544E+01 0.91169310042E+01 0.85086438445E+01 0.79025800337E+01
 0.73538152580E+01 0.69280087231E+01 0.66460902201E+01 0.64939787409E+01 0.64468682761E+01
 0.64938574110E+01 0.66471047318E+01 0.69298503159E+01 0.73536379018E+01 0.78981975583E+01
 0.77016288442E+01 0.80536577570E+01 0.83849033623E+01 0.86418356748E+01 0.87833717765E+01
 0.87838715885E+01 0.86439353662E+01 0.83888735621E+01 0.80573855166E+01 0.77018577784E+01
 0.73733785001E+01 0.71095402238E+01 0.69275648876E+01 0.68231654397E+01 0.67781584801E+01
 0.67772876907E+01 0.68223747295E+01 0.69297731971E+01 0.71145004929E+01 0.73773390439E+01
 0.74358649964E+01 0.75273937812E+01 0.76430528142E+01 0.77632726716E+01 0.78573230557E+01
 0.78940151447E+01 0.78591858987E+01 0.77649834052E+01 0.76422037022E+01 0.75232093909E+01
 0.74300290886E+01 0.73729551997E+01 0.73528167801E+01 0.73605896288E+01 0.73779745195E+01
 0.73856168622E+01 0.73759549134E+01 0.73588528253E+01 0.73539211251E+01 0.73774379843E+01
 0.77013288448E+01 0.75272979543E+01 0.74000806574E+01 0.73282414777E+01 0.73027029599E+01
 0.73007977481E+01 0.73015357799E+01 0.73032030743E+01 0.73258260359E+01 0.73951835110E+01
 0.75236470012E+01 0.77018845388E+01 0.79021629586E+01 0.80883809293E+01 0.82284609037E+01
 0.83044075022E+01 0.83040625504E+01 0.82266900379E+01 0.80846258454E+01 0.78983467637E+01
 0.85017279805E+01 0.80535262179E+01 0.76433374641E+01 0.73283040333E+01 0.71266775956E+01
 0.70242652379E+01 0.69948062164E+01 0.70246197083E+01 0.71257809419E+01 0.73262431110E+01
 0.76431733391E+01 0.80578293521E+01 0.85086726855E+01 0.89524286841E+01 0.94549434029E+01
 0.99008476792E+01 0.10082930410E+02 0.99028653708E+01 0.94549378148E+01 0.89477278202E+01
 0.10216489111E+02 0.91125726936E+01 0.83851133659E+01 0.77633425955E+01 0.73024646946E+01
 0.70242588094E+01 0.69007360516E+01 0.69005330628E+01 0.70239565434E+01 0.73029569844E+01
 0.77656260350E+01 0.83890928915E+01 0.91162678393E+01 0.10217153740E+02 0.11781720557E+02
 0.13384650793E+02 0.14404177627E+02 0.14406413556E+02 0.13389401053E+02 0.11784977752E+02
 0.15315271047E+02 0.11955884309E+02 0.97695270039E+01 0.86417589418E+01 0.78571547604E+01
 0.73008212960E+01 0.69949802955E+01 0.69004810109E+01 0.69938365795E+01 0.73007105806E+01
 0.78591858987E+01 0.86438996549E+01 0.97686033765E+01 0.11951188633E+02 0.15309288942E+02
 0.19092479640E+02 0.22088467806E+02 0.23227887948E+02 0.22090351478E+02 0.19096835856E+02
 0.26071795112E+02 0.19256602439E+02 0.13701107795E+02 0.10323218822E+02 0.87834951998E+01
 0.78940993179E+01 0.73016467232E+01 0.70245046714E+01 0.70238479349E+01 0.73007979760E+01
 0.78944529828E+01 0.87838981211E+01 0.10320994895E+02 0.13696079785E+02 0.19252417067E+02
 0.26071983237E+02 0.32335121912E+02 0.36088730403E+02 0.36086685330E+02 0.32331650179E+02
 0.42888968281E+02 0.32458778192E+02 0.22361983888E+02 0.14797909312E+02 0.10541900629E+02
 0.87839125028E+01 0.78590708537E+01 0.73031278595E+01 0.71257311392E+01 0.73031200350E+01
 0.78592391489E+01 0.87838156121E+01 0.10540707764E+02 0.14796102155E+02 0.22362124698E+02
 0.32463292539E+02 0.42896780265E+02 0.50793931323E+02 0.53738379914E+02 0.50787698892E+02
 0.63808834847E+02 0.50870119414E+02 0.36283335901E+02 0.23539783860E+02 0.14795543234E+02
 0.10321270047E+02 0.86437168951E+01 0.77650455081E+01 0.73259379558E+01 0.73262924752E+01
 0.77656182139E+01 0.86437579168E+01 0.10320978425E+02 0.14796136571E+02 0.23542251524E+02
 0.36287338596E+02 0.50874242968E+02 0.63811718909E+02 0.71452340139E+02 0.71451336806E+02
 0.84692862520E+02 0.71492392611E+02 0.53849084448E+02 0.36285591023E+02 0.22360067795E+02
 0.13696069292E+02 0.97695270039E+01 0.83890714011E+01 0.76423678273E+01 0.73950423822E+01
 0.76430528142E+01 0.83890807269E+01 0.97686575158E+01 0.13696128393E+02 0.22362129850E+02
 0.36287386388E+02 0.53846926348E+02 0.71486048007E+02 0.84687087920E+02 0.89597888752E+02
 0.10027802814E+03 0.89611146350E+02 0.71493123434E+02 0.50876375869E+02 0.32462668569E+02
 0.19252294758E+02 0.11952402056E+02 0.91171262360E+01 0.80574165953E+01 0.75229905018E+01
 0.75235239389E+01 0.80579919700E+01 0.91164082613E+01 0.11951158524E+02 0.19252337747E+02
 0.32463393929E+02 0.50874227212E+02 0.71485903506E+02 0.89602106447E+02 0.10027386076E+03
 0.71603611149E+02 0.67643792020E+02 0.57001043712E+02 0.42828066636E+02 0.28862622392E+02
 0.18039512590E+02 0.11591849692E+02 0.88403780692E+01 0.77439990004E+01 0.70931857946E+01
 0.68811896920E+01 0.70934384124E+01 0.77441908707E+01 0.88402779210E+01 0.11591587785E+02
 0.18039397518E+02 0.28862757245E+02 0.42828263201E+02 0.57001105540E+02 0.67643750889E+02
 0.67645676953E+02 0.67643574877E+02 0.60332509415E+02 0.47960931557E+02 0.34037711430E+02
 0.21930682314E+02 0.13706362423E+02 0.95744044835E+01 0.80369540196E+01 0.72017056062E+01