   2   2   0   0
  0.1043271E+02  0.2376600E-09  0.2376600E-09  0.4265640E-09  0.5000000E-15
  1.000000000000000E-004
  CAR 
 unknown system                          
     71.11801714     -5.61238324  301      6.63964493      1.00000000
     -5.612  0.0000E+00  0.0000E+00
     -5.357  0.0000E+00  0.0000E+00
     -5.101  0.0000E+00  0.0000E+00
     -4.845  0.0000E+00  0.0000E+00
     -4.589  0.0000E+00  0.0000E+00
     -4.334  0.0000E+00  0.0000E+00
     -4.078  0.0000E+00  0.0000E+00
     -3.822 -0.7390E-33 -0.1890E-33
     -3.566 -0.3286E-24 -0.8404E-25
     -3.310 -0.5415E-17 -0.1385E-17
     -3.055 -0.3150E-11 -0.8058E-12
     -2.799 -0.6819E-07 -0.1744E-07
     -2.543 -0.4983E-04 -0.1276E-04
     -2.287 -0.4226E-03 -0.1208E-03
     -2.032  0.8783E-02  0.2125E-02
     -1.776  0.5581E-01  0.1640E-01
     -1.520  0.1055E+00  0.4338E-01
     -1.264  0.5930E-01  0.5855E-01
     -1.009  0.1552E+00  0.9823E-01
     -0.753  0.1819E+00  0.1448E+00
     -0.497  0.1987E+00  0.1956E+00
     -0.241  0.8583E-01  0.2175E+00
      0.015  0.2442E+00  0.2800E+00
      0.270  0.2998E+00  0.3567E+00
      0.526  0.3150E+00  0.4372E+00
      0.782  0.3021E+00  0.5145E+00
      1.038  0.2417E+00  0.5763E+00
      1.293  0.3874E+00  0.6754E+00
      1.549  0.7043E+00  0.8555E+00
      1.805  0.9028E+00  0.1086E+01
      2.061  0.1436E+01  0.1454E+01
      2.316  0.1975E+01  0.1959E+01
      2.572  0.2835E+01  0.2684E+01
      2.828  0.2225E+01  0.3253E+01
      3.084  0.3001E+01  0.4021E+01
      3.339  0.2402E+01  0.4635E+01
      3.595  0.3344E+01  0.5491E+01
      3.851  0.3254E+01  0.6323E+01
      4.107  0.3245E+01  0.7153E+01
      4.363  0.2482E+01  0.7788E+01
      4.618  0.2687E+01  0.8475E+01
      4.874  0.4322E+01  0.9580E+01
      5.130  0.3815E+01  0.1056E+02
      5.386  0.3961E+01  0.1157E+02
      5.641  0.3414E+01  0.1244E+02
      5.897  0.3824E+01  0.1342E+02
      6.153  0.3501E+01  0.1432E+02
      6.409  0.3595E+01  0.1524E+02
      6.664  0.3279E+01  0.1607E+02
      6.920  0.3155E+01  0.1688E+02
      7.176  0.4584E+01  0.1805E+02
      7.432  0.5129E+01  0.1937E+02
      7.688  0.4495E+01  0.2051E+02
      7.943  0.2675E+01  0.2120E+02
      8.199  0.2858E+00  0.2127E+02
      8.455  0.5328E+00  0.2141E+02
      8.711  0.6471E+00  0.2157E+02
      8.966  0.8153E+00  0.2178E+02
      9.222  0.8077E+00  0.2199E+02
      9.478  0.4724E+00  0.2211E+02
      9.734  0.3631E+00  0.2220E+02
      9.989  0.4863E+00  0.2233E+02
     10.245  0.4138E+00  0.2243E+02
     10.501  0.4949E+00  0.2256E+02
     10.757  0.6490E+00  0.2273E+02
     11.013  0.4813E+00  0.2285E+02
     11.268  0.4698E+00  0.2297E+02
     11.524  0.5200E+00  0.2310E+02
     11.780  0.3291E+00  0.2319E+02
     12.036  0.2307E+00  0.2324E+02
     12.291  0.3795E+00  0.2334E+02
     12.547  0.3870E+00  0.2344E+02
     12.803  0.4122E+00  0.2355E+02
     13.059  0.1912E+00  0.2360E+02
     13.314  0.3563E+00  0.2369E+02
     13.570  0.6267E+00  0.2385E+02
     13.826  0.4618E+00  0.2396E+02
     14.082  0.2854E+00  0.2404E+02
     14.338  0.2149E+00  0.2409E+02
     14.593  0.1910E+00  0.2414E+02
     14.849  0.9379E-01  0.2417E+02
     15.105  0.1441E+00  0.2420E+02
     15.361  0.3549E+00  0.2429E+02
     15.616  0.2289E+00  0.2435E+02
     15.872  0.4192E+00  0.2446E+02
     16.128  0.6975E+00  0.2464E+02
     16.384  0.1003E+01  0.2489E+02
     16.639  0.8204E+00  0.2510E+02
     16.895  0.7711E+00  0.2530E+02
     17.151  0.5461E+00  0.2544E+02
     17.407  0.4481E+00  0.2556E+02
     17.663  0.7689E+00  0.2575E+02
     17.918  0.8089E+00  0.2596E+02
     18.174  0.7116E+00  0.2614E+02
     18.430  0.7852E+00  0.2634E+02
     18.686  0.9331E+00  0.2658E+02
     18.941  0.3635E+00  0.2667E+02
     19.197  0.5351E+00  0.2681E+02
     19.453  0.8432E+00  0.2703E+02
     19.709  0.6405E+00  0.2719E+02
     19.964  0.6751E+00  0.2736E+02
     20.220  0.4952E+00  0.2749E+02
     20.476  0.6642E+00  0.2766E+02
     20.732  0.5528E+00  0.2780E+02
     20.987  0.3320E+00  0.2789E+02
     21.243  0.9450E+00  0.2813E+02
     21.499  0.5788E+00  0.2827E+02
     21.755  0.6000E+00  0.2843E+02
     22.011  0.8579E+00  0.2865E+02
     22.266  0.5041E+00  0.2878E+02
     22.522  0.6004E+00  0.2893E+02
     22.778  0.8545E+00  0.2915E+02
     23.034  0.1378E+01  0.2950E+02
     23.289  0.7844E+00  0.2970E+02
     23.545  0.6484E+00  0.2987E+02
     23.801  0.1124E+01  0.3016E+02
     24.057  0.6286E+00  0.3032E+02
     24.312  0.6962E+00  0.3049E+02
     24.568  0.1146E+01  0.3079E+02
     24.824  0.9980E+00  0.3104E+02
     25.080  0.9804E+00  0.3129E+02
     25.336  0.7059E+00  0.3147E+02
     25.591  0.9847E+00  0.3173E+02
     25.847  0.1190E+01  0.3203E+02
     26.103  0.1369E+01  0.3238E+02
     26.359  0.8662E+00  0.3260E+02
     26.614  0.4023E+00  0.3270E+02
     26.870  0.9660E+00  0.3295E+02
     27.126  0.7923E+00  0.3315E+02
     27.382  0.8406E+00  0.3337E+02
     27.637  0.9898E+00  0.3362E+02
     27.893  0.6433E+00  0.3379E+02
     28.149  0.8682E+00  0.3401E+02
     28.405  0.9783E+00  0.3426E+02
     28.661  0.7421E+00  0.3445E+02
     28.916  0.5047E+00  0.3458E+02
     29.172  0.6747E+00  0.3475E+02
     29.428  0.4071E+00  0.3485E+02
     29.684  0.6397E+00  0.3502E+02
     29.939  0.9149E+00  0.3525E+02
     30.195  0.8464E+00  0.3547E+02
     30.451  0.7889E+00  0.3567E+02
     30.707  0.7063E+00  0.3585E+02
     30.962  0.7245E+00  0.3604E+02
     31.218  0.7765E+00  0.3624E+02
     31.474  0.1153E+01  0.3653E+02
     31.730  0.8760E+00  0.3675E+02
     31.986  0.7128E+00  0.3694E+02
     32.241  0.6187E+00  0.3709E+02
     32.497  0.7866E+00  0.3730E+02
     32.753  0.6948E+00  0.3747E+02
     33.009  0.7863E+00  0.3767E+02
     33.264  0.1179E+01  0.3798E+02
     33.520  0.8725E+00  0.3820E+02
     33.776  0.8648E+00  0.3842E+02
     34.032  0.9834E+00  0.3867E+02
     34.287  0.1096E+01  0.3895E+02
     34.543  0.8521E+00  0.3917E+02
     34.799  0.1009E+01  0.3943E+02
     35.055  0.1352E+01  0.3977E+02
     35.310  0.1050E+01  0.4004E+02
     35.566  0.1257E+01  0.4036E+02
     35.822  0.1016E+01  0.4062E+02
     36.078  0.7950E+00  0.4083E+02
     36.334  0.8819E+00  0.4105E+02
     36.589  0.7506E+00  0.4125E+02
     36.845  0.7728E+00  0.4144E+02
     37.101  0.3803E+00  0.4154E+02
     37.357  0.9500E+00  0.4178E+02
     37.612  0.6395E+00  0.4195E+02
     37.868  0.4625E+00  0.4206E+02
     38.124  0.8126E+00  0.4227E+02
     38.380  0.1219E+01  0.4258E+02
     38.635  0.1126E+01  0.4287E+02
     38.891  0.8661E+00  0.4309E+02
     39.147  0.7604E+00  0.4329E+02
     39.403  0.8923E+00  0.4352E+02
     39.659  0.5313E+00  0.4365E+02
     39.914  0.1041E+01  0.4392E+02
     40.170  0.9153E+00  0.4415E+02
     40.426  0.7979E+00  0.4436E+02
     40.682  0.1051E+01  0.4463E+02
     40.937  0.1505E+01  0.4501E+02
     41.193  0.8877E+00  0.4524E+02
     41.449  0.9007E+00  0.4547E+02
     41.705  0.1255E+01  0.4579E+02
     41.960  0.8900E+00  0.4602E+02
     42.216  0.8898E+00  0.4624E+02
     42.472  0.1210E+01  0.4655E+02
     42.728  0.1154E+01  0.4685E+02
     42.984  0.1138E+01  0.4714E+02
     43.239  0.1105E+01  0.4742E+02
     43.495  0.1035E+01  0.4769E+02
     43.751  0.1354E+01  0.4803E+02
     44.007  0.9226E+00  0.4827E+02
     44.262  0.8688E+00  0.4849E+02
     44.518  0.6995E+00  0.4867E+02
     44.774  0.1111E+01  0.4895E+02
     45.030  0.1125E+01  0.4924E+02
     45.285  0.6811E+00  0.4942E+02
     45.541  0.6637E+00  0.4959E+02
     45.797  0.1069E+01  0.4986E+02
     46.053  0.1127E+01  0.5015E+02
     46.309  0.1500E+01  0.5053E+02
     46.564  0.8289E+00  0.5074E+02
     46.820  0.5935E+00  0.5090E+02
     47.076  0.8721E+00  0.5112E+02
     47.332  0.1214E+01  0.5143E+02
     47.587  0.1192E+01  0.5173E+02
     47.843  0.8835E+00  0.5196E+02
     48.099  0.1120E+01  0.5225E+02
     48.355  0.7674E+00  0.5244E+02
     48.610  0.1031E+01  0.5271E+02
     48.866  0.8541E+00  0.5293E+02
     49.122  0.1497E+01  0.5331E+02
     49.378  0.1797E+01  0.5377E+02
     49.634  0.1141E+01  0.5406E+02
     49.889  0.1160E+01  0.5436E+02
     50.145  0.1222E+01  0.5467E+02
     50.401  0.1104E+01  0.5495E+02
     50.657  0.7840E+00  0.5515E+02
     50.912  0.1177E+01  0.5545E+02
     51.168  0.1490E+01  0.5583E+02
     51.424  0.5375E+00  0.5597E+02
     51.680  0.9345E+00  0.5621E+02
     51.935  0.1107E+01  0.5649E+02
     52.191  0.9515E+00  0.5674E+02
     52.447  0.1460E+01  0.5711E+02
     52.703  0.1204E+01  0.5742E+02
     52.958  0.1234E+01  0.5773E+02
     53.214  0.1422E+01  0.5810E+02
     53.470  0.1291E+01  0.5843E+02
     53.726  0.1521E+01  0.5882E+02
     53.982  0.1289E+01  0.5915E+02
     54.237  0.1430E+01  0.5951E+02
     54.493  0.9412E+00  0.5975E+02
     54.749  0.9261E+00  0.5999E+02
     55.005  0.9387E+00  0.6023E+02
     55.260  0.1359E+01  0.6058E+02
     55.516  0.1577E+01  0.6098E+02
     55.772  0.1880E+01  0.6146E+02
     56.028  0.1779E+01  0.6192E+02
     56.283  0.1483E+01  0.6230E+02
     56.539  0.1104E+01  0.6258E+02
     56.795  0.1146E+01  0.6287E+02
     57.051  0.1469E+01  0.6325E+02
     57.307  0.2120E+01  0.6379E+02
     57.562  0.1260E+01  0.6411E+02
     57.818  0.1418E+01  0.6447E+02
     58.074  0.1631E+01  0.6489E+02
     58.330  0.1695E+01  0.6533E+02
     58.585  0.1544E+01  0.6572E+02
     58.841  0.1550E+01  0.6612E+02
     59.097  0.2117E+01  0.6666E+02
     59.353  0.1788E+01  0.6711E+02
     59.608  0.1227E+01  0.6743E+02
     59.864  0.1557E+01  0.6783E+02
     60.120  0.1646E+01  0.6825E+02
     60.376  0.1514E+01  0.6864E+02
     60.632  0.1035E+01  0.6890E+02
     60.887  0.1678E+01  0.6933E+02
     61.143  0.1907E+01  0.6982E+02
     61.399  0.1952E+01  0.7032E+02
     61.655  0.1431E+01  0.7068E+02
     61.910  0.1408E+01  0.7104E+02
     62.166  0.2011E+01  0.7156E+02
     62.422  0.1586E+01  0.7196E+02
     62.678  0.1461E+01  0.7234E+02
     62.933  0.1731E+01  0.7278E+02
     63.189  0.1918E+01  0.7327E+02
     63.445  0.1773E+01  0.7372E+02
     63.701  0.1434E+01  0.7409E+02
     63.957  0.1761E+01  0.7454E+02
     64.212  0.2079E+01  0.7507E+02
     64.468  0.2120E+01  0.7561E+02
     64.724  0.2212E+01  0.7618E+02
     64.980  0.1617E+01  0.7659E+02
     65.235  0.1426E+01  0.7696E+02
     65.491  0.2725E+01  0.7766E+02
     65.747  0.1868E+01  0.7813E+02
     66.003  0.1122E+01  0.7842E+02
     66.258  0.1643E+01  0.7884E+02
     66.514  0.1721E+01  0.7928E+02
     66.770  0.1214E+01  0.7959E+02
     67.026  0.9884E+00  0.7984E+02
     67.281  0.4350E+00  0.7996E+02
     67.537  0.1125E+00  0.7998E+02
     67.793  0.6236E-01  0.8000E+02
     68.049 -0.1403E-03  0.8000E+02
     68.305 -0.4151E-03  0.8000E+02
     68.560 -0.7105E-06  0.8000E+02
     68.816 -0.3582E-10  0.8000E+02
     69.072 -0.6262E-16  0.8000E+02
     69.328  0.0000E+00  0.8000E+02
     69.583  0.0000E+00  0.8000E+02
     69.839  0.0000E+00  0.8000E+02
     70.095  0.0000E+00  0.8000E+02
     70.351  0.0000E+00  0.8000E+02
     70.606  0.0000E+00  0.8000E+02
     70.862  0.0000E+00  0.8000E+02
     71.118  0.0000E+00  0.8000E+02
