    2    2    1    1
  0.1043271E+02  0.2376600E-09  0.2376600E-09  0.4265640E-09  0.5000000E-15
  1.000000000000000E-004
  CAR 
 unknown system                          
     16     96     40
 
  0.0000000E+00  0.0000000E+00  0.0000000E+00  0.7513148E-03
    1       -2.124638   1.000000
    2        1.720843   1.000000
    3        4.397482   1.000000
    4        5.126176   1.000000
    5        5.126286   1.000000
    6        5.395575   1.000000
    7        5.395708   1.000000
    8        5.763849   1.000000
    9        6.410826   1.034342
   10        6.410856   1.034338
   11        7.358874  -0.000002
   12        7.358905  -0.000002
   13       13.435225   0.000000
   14       29.250047   0.000000
   15       30.114400   0.000000
   16       32.912611   0.000000
   17       35.185020   0.000000
   18       35.185076   0.000000
   19       35.701258   0.000000
   20       36.025678   0.000000
   21       36.025832   0.000000
   22       38.778710   0.000000
   23       38.778735   0.000000
   24       39.751908   0.000000
   25       42.138756   0.000000
   26       42.138765   0.000000
   27       42.453960   0.000000
   28       45.797178   0.000000
   29       45.797536   0.000000
   30       47.584939   0.000000
   31       47.585044   0.000000
   32       49.715867   0.000000
   33       57.265427   0.000000
   34       60.804354   0.000000
   35       60.805150   0.000000
   36       61.233776   0.000000
   37       61.795753   0.000000
   38       62.652166   0.000000
   39       62.671889   0.000000
   40       62.859728   0.000000
 
  0.9090909E-01 -0.5974817E-17  0.0000000E+00  0.4507889E-02
    1       -1.796158   1.000000
    2        1.970727   1.000000
    3        4.440844   1.000000
    4        5.020682   1.000000
    5        5.036171   1.000000
    6        5.280036   1.000000
    7        5.311745   1.000000
    8        5.571598   1.000000
    9        6.252165   1.009735
   10        6.305254   1.019785
   11        7.385726  -0.000001
   12        8.373691  -0.000000
   13       13.460322   0.000000
   14       28.755552   0.000000
   15       29.638710   0.000000
   16       31.251932   0.000000
   17       32.420535   0.000000
   18       34.702188   0.000000
   19       34.756402   0.000000
   20       35.573976   0.000000
   21       38.096099   0.000000
   22       38.581171   0.000000
   23       38.924357   0.000000
   24       39.557883   0.000000
   25       43.105880   0.000000
   26       43.397355   0.000000
   27       43.407047   0.000000
   28       43.841265   0.000000
   29       47.091154   0.000000
   30       48.828117   0.000000
   31       49.995699   0.000000
   32       51.812057   0.000000
   33       56.801273   0.000000
   34       58.856910   0.000000
   35       59.382763   0.000000
   36       59.930688   0.000000
   37       60.612615   0.000000
   38       62.826465   0.000000
   39       63.727774   0.000000
   40       63.818427   0.000000
 
  0.1818182E+00 -0.5225847E-17  0.0000000E+00  0.4507889E-02
    1       -0.864658   1.000000
    2        2.565850   1.000000
    3        4.046093   1.000000
    4        4.338338   1.000000
    5        4.827291   1.000000
    6        5.361555   1.000000
    7        5.839902   1.000000
    8        5.877571   1.000000
    9        6.055590   1.000145
   10        6.064886   1.000186
   11        7.425480  -0.000000
   12       10.113974  -0.000000
   13       13.575639   0.000000
   14       24.922774   0.000000
   15       29.633580   0.000000
   16       29.976652   0.000000
   17       30.147635   0.000000
   18       30.884718   0.000000
   19       34.719667   0.000000
   20       35.764772   0.000000
   21       36.076411   0.000000
   22       37.114471   0.000000
   23       39.665712   0.000000
   24       40.285071   0.000000
   25       43.372237   0.000000
   26       44.623407   0.000000
   27       46.103751   0.000000
   28       48.214300   0.000000
   29       49.673189   0.000000
   30       52.393628   0.000000
   31       52.887530   0.000000
   32       55.199728   0.000000
   33       55.730582   0.000000
   34       55.833310   0.000000
   35       57.649756   0.000000
   36       59.090882   0.000000
   37       60.577389   0.000000
   38       62.628555   0.000000
   39       64.309827   0.000000
   40       65.194984   0.000000
 
  0.2727273E+00  0.2610699E-16  0.0000000E+00  0.4507889E-02
    1        0.465448   1.000000
    2        2.868252   1.000000
    3        3.294508   1.000000
    4        4.321549   1.000000
    5        4.638461   1.000000
    6        5.406709   1.000000
    7        5.770441   1.000000
    8        6.079059   1.000269
    9        6.588037   0.710517
   10        6.749685   0.103586
   11        7.441114  -0.000000
   12       12.113440   0.000000
   13       13.839998   0.000000
   14       20.891911   0.000000
   15       26.547421   0.000000
   16       27.241902   0.000000
   17       28.153658   0.000000
   18       31.085464   0.000000
   19       32.960394   0.000000
   20       35.542080   0.000000
   21       36.379023   0.000000
   22       36.483678   0.000000
   23       37.192690   0.000000
   24       40.605165   0.000000
   25       47.054077   0.000000
   26       48.334009   0.000000
   27       49.601028   0.000000
   28       50.391953   0.000000
   29       50.878830   0.000000
   30       52.797515   0.000000
   31       53.994205   0.000000
   32       55.306337   0.000000
   33       57.199083   0.000000
   34       57.667014   0.000000
   35       58.601991   0.000000
   36       60.363458   0.000000
   37       62.136819   0.000000
   38       62.389173   0.000000
   39       64.869180   0.000000
   40       65.054364   0.000000
 
  0.3636364E+00  0.1319328E-16  0.0000000E+00  0.4507889E-02
    1        1.674532   1.000000
    2        2.614715   1.000000
    3        2.804622   1.000000
    4        4.443501   1.000000
    5        4.988183   1.000000
    6        5.084545   1.000000
    7        5.532346   1.000000
    8        7.283269  -0.000026
    9        7.339811  -0.000004
   10        7.434754  -0.000000
   11        7.438333  -0.000000
   12       13.913341   0.000000
   13       14.276041   0.000000
   14       17.877452   0.000000
   15       23.228645   0.000000
   16       25.181483   0.000000
   17       25.427728   0.000000
   18       30.382546   0.000000
   19       32.012467   0.000000
   20       35.166184   0.000000
   21       35.906022   0.000000
   22       37.240645   0.000000
   23       37.413034   0.000000
   24       40.718881   0.000000
   25       47.453911   0.000000
   26       49.160578   0.000000
   27       50.404122   0.000000
   28       53.418234   0.000000
   29       53.644493   0.000000
   30       53.957390   0.000000
   31       55.802792   0.000000
   32       57.406100   0.000000
   33       57.423714   0.000000
   34       59.288813   0.000000
   35       61.271830   0.000000
   36       62.190997   0.000000
   37       62.789909   0.000000
   38       63.724082   0.000000
   39       65.367840   0.000000
   40       66.098146   0.000000
 
  0.4545455E+00  0.2088115E-16  0.0000000E+00  0.4507889E-02
    1        2.171618   1.000000
    2        2.369171   1.000000
    3        2.567428   1.000000
    4        4.743207   1.000000
    5        4.988973   1.000000
    6        5.317110   1.000000
    7        5.399009   1.000000
    8        7.425630  -0.000000
    9        7.805509  -0.000000
   10        7.902220  -0.000000
   11        8.936288  -0.000000
   12       12.280887   0.000000
   13       16.354720   0.000000
   14       17.715140   0.000000
   15       20.592393   0.000000
   16       22.433770   0.000000
   17       24.419668   0.000000
   18       29.798830   0.000000
   19       31.727576   0.000000
   20       34.051344   0.000000
   21       35.683748   0.000000
   22       38.190768   0.000000
   23       39.876577   0.000000
   24       40.201739   0.000000
   25       44.096119   0.000000
   26       49.365964   0.000000
   27       51.331255   0.000000
   28       55.122605   0.000000
   29       56.184847   0.000000
   30       56.793509   0.000000
   31       57.515381   0.000000
   32       59.204657   0.000000
   33       59.797337   0.000000
   34       60.814729   0.000000
   35       61.717069   0.000000
   36       62.038554   0.000000
   37       64.498922   0.000000
   38       64.903718   0.000000
   39       65.364036   0.000000
   40       66.168535   0.000000
 
  0.9090909E-01  0.9090909E-01  0.0000000E+00  0.4507889E-02
    1       -1.163615   1.000000
    2        2.411933   1.000000
    3        4.300586   1.000000
    4        4.362016   1.000000
    5        5.046234   1.000000
    6        5.060904   1.000000
    7        5.697591   1.000000
    8        5.878139   1.000001
    9        5.951944   1.000007
   10        6.254684   1.010116
   11        7.383529  -0.000001
   12        9.625928  -0.000000
   13       13.534863   0.000000
   14       26.694319   0.000000
   15       27.881329   0.000000
   16       30.268693   0.000000
   17       31.951139   0.000000
   18       33.473358   0.000000
   19       33.654305   0.000000
   20       34.645491   0.000000
   21       35.356547   0.000000
   22       40.311248   0.000000
   23       40.614027   0.000000
   24       41.091228   0.000000
   25       42.290907   0.000000
   26       42.524979   0.000000
   27       42.859562   0.000000
   28       48.890338   0.000000
   29       50.621313   0.000000
   30       50.663053   0.000000
   31       50.856235   0.000000
   32       54.838515   0.000000
   33       56.082425   0.000000
   34       56.520049   0.000000
   35       57.657202   0.000000
   36       59.037741   0.000000
   37       60.312382   0.000000
   38       63.211711   0.000000
   39       64.166271   0.000000
   40       65.047013   0.000000
 
  0.1818182E+00  0.9090909E-01  0.0000000E+00  0.9015778E-02
    1       -0.008649   1.000000
    2        2.985200   1.000000
    3        3.565625   1.000000
    4        4.099305   1.000000
    5        4.744880   1.000000
    6        5.439590   1.000000
    7        5.463872   1.000000
    8        6.005514   1.000035
    9        6.387022   1.035243
   10        6.657236   0.425885
   11        7.370149  -0.000002
   12       11.410326  -0.000000
   13       13.766722   0.000000
   14       22.959787   0.000000
   15       25.561208   0.000000
   16       28.426130   0.000000
   17       30.484137   0.000000
   18       30.946988   0.000000
   19       33.580322   0.000000
   20       33.902583   0.000000
   21       35.050633   0.000000
   22       39.157188   0.000000
   23       39.919044   0.000000
   24       40.998614   0.000000
   25       44.085123   0.000000
   26       45.092477   0.000000
   27       47.120419   0.000000
   28       50.602287   0.000000
   29       52.608476   0.000000
   30       53.239660   0.000000
   31       53.657066   0.000000
   32       55.527242   0.000000
   33       56.632541   0.000000
   34       56.741652   0.000000
   35       57.816099   0.000000
   36       58.388301   0.000000
   37       61.295889   0.000000
   38       63.574203   0.000000
   39       64.877643   0.000000
   40       65.437468   0.000000
 
  0.2727273E+00  0.9090909E-01  0.0000000E+00  0.9015778E-02
    1        1.349922   1.000000
    2        2.943300   1.000000
    3        3.025711   1.000000
    4        4.175084   1.000000
    5        4.811878   1.000000
    6        5.059252   1.000000
    7        5.656343   1.000000
    8        6.227038   1.006487
    9        7.137483  -0.001215
   10        7.348049  -0.000003
   11        7.571887  -0.000000
   12       13.467955   0.000000
   13       14.184652   0.000000
   14       19.226610   0.000000
   15       23.874926   0.000000
   16       24.978047   0.000000
   17       27.509430   0.000000
   18       29.436002   0.000000
   19       33.052898   0.000000
   20       34.391644   0.000000
   21       35.121252   0.000000
   22       38.608739   0.000000
   23       39.233806   0.000000
   24       42.110413   0.000000
   25       45.975918   0.000000
   26       48.646588   0.000000
   27       49.703889   0.000000
   28       49.742440   0.000000
   29       52.070995   0.000000
   30       54.084119   0.000000
   31       55.080737   0.000000
   32       57.119457   0.000000
   33       58.111188   0.000000
   34       58.740223   0.000000
   35       60.382979   0.000000
   36       62.397334   0.000000
   37       63.421307   0.000000
   38       63.662226   0.000000
   39       64.210272   0.000000
   40       65.445586   0.000000
 
  0.3636364E+00  0.9090909E-01  0.0000000E+00  0.9015778E-02
    1        2.223518   1.000000
    2        2.634877   1.000000
    3        2.712368   1.000000
    4        4.557219   1.000000
    5        4.804350   1.000000
    6        5.200663   1.000000
    7        5.367376   1.000000
    8        7.147652  -0.000966
    9        7.323883  -0.000007
   10        7.646267  -0.000000
   11        8.738333  -0.000000
   12       13.636690   0.000000
   13       15.665327   0.000000
   14       17.545331   0.000000
   15       21.958565   0.000000
   16       22.522653   0.000000
   17       24.279471   0.000000
   18       28.581305   0.000000
   19       32.134793   0.000000
   20       33.912163   0.000000
   21       36.710648   0.000000
   22       38.982723   0.000000
   23       39.755774   0.000000
   24       41.439236   0.000000
   25       46.091466   0.000000
   26       48.606115   0.000000
   27       49.966906   0.000000
   28       52.049291   0.000000
   29       53.478575   0.000000
   30       55.702687   0.000000
   31       57.041088   0.000000
   32       58.791338   0.000000
   33       59.744369   0.000000
   34       61.614616   0.000000
   35       61.884354   0.000000
   36       63.022874   0.000000
   37       63.485704   0.000000
   38       64.537247   0.000000
   39       65.393332   0.000000
   40       66.277097   0.000000
 
  0.4545455E+00  0.9090909E-01  0.0000000E+00  0.4507889E-02
    1        2.398412   1.000000
    2        2.514263   1.000000
    3        2.611022   1.000000
    4        4.715215   1.000000
    5        4.963591   1.000000
    6        5.254629   1.000000
    7        5.289364   1.000000
    8        7.312555  -0.000011
    9        7.680437  -0.000000
   10        7.707090  -0.000000
   11        9.943152  -0.000000
   12       12.019508  -0.000000
   13       17.175656   0.000000
   14       18.165376   0.000000
   15       20.169276   0.000000
   16       21.497363   0.000000
   17       22.983601   0.000000
   18       28.275719   0.000000
   19       31.752938   0.000000
   20       33.754459   0.000000
   21       37.055273   0.000000
   22       39.767008   0.000000
   23       40.370872   0.000000
   24       41.296642   0.000000
   25       43.821981   0.000000
   26       49.778121   0.000000
   27       49.907654   0.000000
   28       52.526463   0.000000
   29       55.904633   0.000000
   30       56.266742   0.000000
   31       59.320946   0.000000
   32       59.547988   0.000000
   33       60.115601   0.000000
   34       60.172878   0.000000
   35       60.857953   0.000000
   36       63.310304   0.000000
   37       65.377324   0.000000
   38       65.399534   0.000000
   39       65.713038   0.000000
   40       66.808649   0.000000
 
  0.1818182E+00  0.1818182E+00  0.0000000E+00  0.4507889E-02
    1        1.247600   1.000000
    2        3.157787   1.000000
    3        3.451672   1.000000
    4        3.665231   1.000000
    5        4.794615   1.000000
    6        5.007019   1.000000
    7        5.697116   1.000000
    8        5.772270   1.000000
    9        7.108992  -0.002234
   10        7.245705  -0.000079
   11        7.640220  -0.000000
   12       13.212124   0.000000
   13       14.292242   0.000000
   14       21.009292   0.000000
   15       21.712202   0.000000
   16       26.608775   0.000000
   17       27.814317   0.000000
   18       29.822619   0.000000
   19       30.398809   0.000000
   20       34.600068   0.000000
   21       36.733292   0.000000
   22       40.319487   0.000000
   23       40.932445   0.000000
   24       43.230316   0.000000
   25       44.084863   0.000000
   26       45.957712   0.000000
   27       46.895457   0.000000
   28       51.084688   0.000000
   29       52.831456   0.000000
   30       53.435850   0.000000
   31       53.708146   0.000000
   32       57.566357   0.000000
   33       57.999695   0.000000
   34       60.641552   0.000000
   35       60.938506   0.000000
   36       61.138740   0.000000
   37       61.236169   0.000000
   38       64.382540   0.000000
   39       64.668408   0.000000
   40       66.007360   0.000000
 
  0.2727273E+00  0.1818182E+00  0.0000000E+00  0.9015778E-02
    1        2.461538   1.000000
    2        2.912963   1.000000
    3        3.173267   1.000000
    4        3.871968   1.000000
    5        4.742423   1.000000
    6        5.073682   1.000000
    7        5.379130   1.000000
    8        6.262916   1.011430
    9        7.141220  -0.001118
   10        7.570163  -0.000000
   11        8.894651  -0.000000
   12       14.987785   0.000000
   13       15.333014   0.000000
   14       18.025877   0.000000
   15       20.123614   0.000000
   16       23.873940   0.000000
   17       26.285139   0.000000
   18       26.295117   0.000000
   19       29.111903   0.000000
   20       36.812478   0.000000
   21       37.230337   0.000000
   22       40.267350   0.000000
   23       42.662489   0.000000
   24       44.086114   0.000000
   25       44.791853   0.000000
   26       46.969344   0.000000
   27       48.066455   0.000000
   28       49.031188   0.000000
   29       52.349229   0.000000
   30       53.262121   0.000000
   31       55.955121   0.000000
   32       59.023414   0.000000
   33       60.181949   0.000000
   34       61.333631   0.000000
   35       63.407629   0.000000
   36       63.535148   0.000000
   37       64.333257   0.000000
   38       64.723565   0.000000
   39       65.907685   0.000000
   40       66.979404   0.000000
 
  0.3636364E+00  0.1818182E+00  0.0000000E+00  0.9015778E-02
    1        2.812726   1.000000
    2        2.873137   1.000000
    3        2.975340   1.000000
    4        4.360208   1.000000
    5        4.694155   1.000000
    6        5.018776   1.000000
    7        5.344249   1.000000
    8        6.965661  -0.021681
    9        7.081918  -0.003809
   10        7.552768  -0.000000
   11       10.479903  -0.000000
   12       13.450039   0.000000
   13       17.528891   0.000000
   14       18.211952   0.000000
   15       19.249372   0.000000
   16       21.184036   0.000000
   17       23.330390   0.000000
   18       25.716792   0.000000
   19       28.472387   0.000000
   20       37.270031   0.000000
   21       39.017516   0.000000
   22       40.544368   0.000000
   23       41.956911   0.000000
   24       42.983447   0.000000
   25       46.394578   0.000000
   26       47.300425   0.000000
   27       48.876242   0.000000
   28       49.815233   0.000000
   29       53.228771   0.000000
   30       54.740635   0.000000
   31       55.591289   0.000000
   32       58.889100   0.000000
   33       59.449647   0.000000
   34       60.470978   0.000000
   35       64.206091   0.000000
   36       64.826303   0.000000
   37       65.754037   0.000000
   38       66.064571   0.000000
   39       66.317266   0.000000
   40       66.456189   0.000000
 
  0.2727273E+00  0.2727273E+00  0.0000000E+00  0.4507889E-02
    1        2.952515   1.000000
    2        3.259116   1.000000
    3        3.553706   1.000000
    4        3.610547   1.000000
    5        4.589052   1.000000
    6        4.976898   1.000000
    7        5.370446   1.000000
    8        6.520346   0.918435
    9        6.960917  -0.022772
   10        7.514257  -0.000000
   11       10.611485  -0.000000
   12       15.522224   0.000000
   13       16.174642   0.000000
   14       17.555805   0.000000
   15       18.834063   0.000000
   16       23.189172   0.000000
   17       23.265073   0.000000
   18       25.073969   0.000000
   19       25.902910   0.000000
   20       38.581890   0.000000
   21       39.335303   0.000000
   22       43.243350   0.000000
   23       44.262728   0.000000
   24       44.434148   0.000000
   25       44.550324   0.000000
   26       45.453097   0.000000
   27       47.718182   0.000000
   28       50.133262   0.000000
   29       50.414741   0.000000
   30       54.798571   0.000000
   31       54.888300   0.000000
   32       57.215527   0.000000
   33       59.318034   0.000000
   34       60.655774   0.000000
   35       64.549729   0.000000
   36       65.235019   0.000000
   37       65.439915   0.000000
   38       66.487004   0.000000
   39       66.592977   0.000000
   40       67.427096   0.000000
 
  0.3636364E+00  0.2727273E+00  0.0000000E+00  0.4507889E-02
    1        3.004606   1.000000
    2        3.400267   1.000000
    3        3.450528   1.000000
    4        3.936174   1.000000
    5        4.657992   1.000000
    6        4.666257   1.000000
    7        5.509537   1.000000
    8        6.890330  -0.035336
    9        6.891666  -0.035274
   10        7.192360  -0.000329
   11       12.385202   0.000000
   12       13.609031   0.000000
   13       15.790417   0.000000
   14       19.502812   0.000000
   15       19.806022   0.000000
   16       20.988364   0.000000
   17       23.028059   0.000000
   18       23.353861   0.000000
   19       25.309805   0.000000
   20       38.979764   0.000000
   21       41.839960   0.000000
   22       42.540980   0.000000
   23       43.381033   0.000000
   24       43.842484   0.000000
   25       45.453077   0.000000
   26       46.355121   0.000000
   27       49.495102   0.000000
   28       50.039583   0.000000
   29       50.283376   0.000000
   30       53.720345   0.000000
   31       54.989505   0.000000
   32       55.500868   0.000000
   33       58.817062   0.000000
   34       59.399571   0.000000
   35       64.888237   0.000000
   36       65.686216   0.000000
   37       66.648124   0.000000
   38       66.779642   0.000000
   39       66.985790   0.000000
   40       67.307010   0.000000
 
  0.0000000E+00  0.0000000E+00  0.9090909E-01  0.1502630E-02
    1       -2.048795   1.000000
    2        1.681637   1.000000
    3        4.378716   1.000000
    4        5.118110   1.000000
    5        5.118235   1.000000
    6        5.380924   1.000000
    7        5.381061   1.000000
    8        5.562442   1.000000
    9        6.442354   1.023664
   10        6.442385   1.023646
   11        7.349953  -0.000003
   12        7.349986  -0.000003
   13       13.797670   0.000000
   14       28.527103   0.000000
   15       30.226948   0.000000
   16       32.759640   0.000000
   17       35.232409   0.000000
   18       35.232463   0.000000
   19       36.001317   0.000000
   20       36.001521   0.000000
   21       36.264570   0.000000
   22       38.694829   0.000000
   23       38.694843   0.000000
   24       39.986526   0.000000
   25       41.808463   0.000000
   26       41.808476   0.000000
   27       42.646783   0.000000
   28       46.005194   0.000000
   29       46.005586   0.000000
   30       47.952763   0.000000
   31       47.952915   0.000000
   32       49.584294   0.000000
   33       56.679863   0.000000
   34       60.550658   0.000000
   35       60.551515   0.000000
   36       60.725209   0.000000
   37       60.725543   0.000000
   38       61.083339   0.000000
   39       62.100565   0.000000
   40       62.449036   0.000000
 
  0.9090909E-01 -0.5974817E-17  0.9090909E-01  0.9015778E-02
    1       -1.721901   1.000000
    2        1.935842   1.000000
    3        4.428716   1.000000
    4        4.880088   1.000000
    5        5.015567   1.000000
    6        5.301942   1.000000
    7        5.303289   1.000000
    8        5.556184   1.000000
    9        6.291381   1.016785
   10        6.342230   1.028224
   11        7.372396  -0.000001
   12        8.229416  -0.000000
   13       13.860901   0.000000
   14       28.621138   0.000000
   15       29.120035   0.000000
   16       31.240234   0.000000
   17       32.484571   0.000000
   18       34.047830   0.000000
   19       35.304343   0.000000
   20       36.083440   0.000000
   21       37.800346   0.000000
   22       38.672623   0.000000
   23       38.999038   0.000000
   24       39.763519   0.000000
   25       43.000137   0.000000
   26       43.008115   0.000000
   27       43.960234   0.000000
   28       44.246121   0.000000
   29       46.915137   0.000000
   30       49.091755   0.000000
   31       50.305215   0.000000
   32       51.775778   0.000000
   33       55.597147   0.000000
   34       58.687630   0.000000
   35       59.266003   0.000000
   36       59.960609   0.000000
   37       60.841417   0.000000
   38       62.136671   0.000000
   39       62.278058   0.000000
   40       63.727547   0.000000
 
  0.1818182E+00 -0.5225847E-17  0.9090909E-01  0.9015778E-02
    1       -0.797035   1.000000
    2        2.543374   1.000000
    3        3.976282   1.000000
    4        4.351746   1.000000
    5        4.800240   1.000000
    6        5.301938   1.000000
    7        5.805278   1.000000
    8        5.971371   1.000012
    9        6.020748   1.000055
   10        6.150802   1.001480
   11        7.407912  -0.000000
   12        9.768782  -0.000000
   13       14.106606   0.000000
   14       24.978141   0.000000
   15       29.254117   0.000000
   16       29.720059   0.000000
   17       30.222479   0.000000
   18       30.680810   0.000000
   19       34.487285   0.000000
   20       36.137367   0.000000
   21       36.557674   0.000000
   22       36.611824   0.000000
   23       40.089659   0.000000
   24       40.774612   0.000000
   25       43.586469   0.000000
   26       44.567132   0.000000
   27       45.897207   0.000000
   28       48.224156   0.000000
   29       49.494876   0.000000
   30       52.404750   0.000000
   31       53.199327   0.000000
   32       53.968233   0.000000
   33       55.136748   0.000000
   34       56.990830   0.000000
   35       57.297983   0.000000
   36       59.159724   0.000000
   37       60.824734   0.000000
   38       62.858966   0.000000
   39       63.128136   0.000000
   40       65.347892   0.000000
 
  0.2727273E+00  0.2610699E-16  0.9090909E-01  0.9015778E-02
    1        0.513737   1.000000
    2        2.854353   1.000000
    3        3.279484   1.000000
    4        4.322185   1.000000
    5        4.608928   1.000000
    6        5.415288   1.000000
    7        5.789462   1.000000
    8        6.121895   1.000772
    9        6.595660   0.681219
   10        6.738217   0.133849
   11        7.420633  -0.000000
   12       11.407068  -0.000000
   13       14.675412   0.000000
   14       20.953245   0.000000
   15       26.117223   0.000000
   16       27.344219   0.000000
   17       28.476081   0.000000
   18       30.764677   0.000000
   19       32.845554   0.000000
   20       34.872933   0.000000
   21       35.357080   0.000000
   22       37.452908   0.000000
   23       38.241316   0.000000
   24       41.172938   0.000000
   25       47.141531   0.000000
   26       47.825241   0.000000
   27       48.953002   0.000000
   28       49.236760   0.000000
   29       52.345677   0.000000
   30       52.963460   0.000000
   31       54.250471   0.000000
   32       55.584030   0.000000
   33       56.320465   0.000000
   34       57.313997   0.000000
   35       59.128540   0.000000
   36       60.193164   0.000000
   37       62.457895   0.000000
   38       62.834102   0.000000
   39       63.740728   0.000000
   40       66.046220   0.000000
 
  0.3636364E+00  0.1319328E-16  0.9090909E-01  0.9015778E-02
    1        1.670377   1.000000
    2        2.575463   1.000000
    3        2.885816   1.000000
    4        4.247335   1.000000
    5        5.071288   1.000000
    6        5.263797   1.000000
    7        5.563712   1.000000
    8        7.250067  -0.000070
    9        7.320268  -0.000008
   10        7.355877  -0.000003
   11        7.496963  -0.000000
   12       12.754398   0.000000
   13       15.468662   0.000000
   14       17.971324   0.000000
   15       22.827309   0.000000
   16       25.540705   0.000000
   17       25.618649   0.000000
   18       30.321666   0.000000
   19       31.972465   0.000000
   20       34.059503   0.000000
   21       35.628482   0.000000
   22       37.065003   0.000000
   23       38.676925   0.000000
   24       41.304788   0.000000
   25       46.272648   0.000000
   26       50.184970   0.000000
   27       50.448913   0.000000
   28       52.642494   0.000000
   29       53.004762   0.000000
   30       55.058767   0.000000
   31       55.576352   0.000000
   32       57.167791   0.000000
   33       58.100374   0.000000
   34       59.062610   0.000000
   35       61.364590   0.000000
   36       62.673933   0.000000
   37       62.727232   0.000000
   38       63.277929   0.000000
   39       66.112961   0.000000
   40       66.252036   0.000000
 
  0.4545455E+00  0.2088115E-16  0.9090909E-01  0.9015778E-02
    1        2.100483   1.000000
    2        2.294678   1.000000
    3        2.761740   1.000000
    4        4.308944   1.000000
    5        5.234632   1.000000
    6        5.433731   1.000000
    7        5.597774   1.000000
    8        7.373570  -0.000001
    9        7.808966  -0.000000
   10        7.901728  -0.000000
   11        8.852182  -0.000000
   12       12.095573  -0.000000
   13       16.226479   0.000000
   14       17.787009   0.000000
   15       20.647344   0.000000
   16       22.824609   0.000000
   17       24.538559   0.000000
   18       29.789951   0.000000
   19       31.697190   0.000000
   20       33.198019   0.000000
   21       36.583829   0.000000