<?xml version="1.0" encoding="ISO-8859-1"?>
<modeling>
 <generator>
  <i name="program" type="string">vasp </i>
  <i name="version" type="string">6.2.0  </i>
  <i name="subversion" type="string">18Jan21 (build Mar 17 2021 09:06:54) complex                          serial </i>
  <i name="platform" type="string">LinuxIFC </i>
  <i name="date" type="string">2021 09 09 </i>
  <i name="time" type="string">12:07:47 </i>
 </generator>
 <incar>
  <i type="string" name="PREC">normal</i>
  <i type="int" name="ICHARG">     1</i>
  <i type="int" name="IBRION">     1</i>
  <i name="EDIFF">      0.00000100</i>
  <i type="int" name="NSW">     0</i>
  <i type="int" name="ISIF">     2</i>
  <i name="ENCUT">    280.00000000</i>
  <i type="int" name="NBANDS">    40</i>
  <i type="int" name="ISMEAR">     1</i>
  <i name="SIGMA">      0.20000000</i>
  <i type="logical" name="LCHARG"> T  </i>
  <i type="int" name="KPAR">     1</i>
  <i type="int" name="NCORE">     1</i>
  <i type="string" name="GGA">PE</i>
 </incar>
 <primitive_cell>
  <structure name="primitive_cell" >
   <crystal>
    <varray name="basis" >
     <v>       2.37660000       0.00000000       0.00000000 </v>
     <v>      -1.18830000       2.05819597       0.00000000 </v>
     <v>       0.00000000       0.00000000       4.26564000 </v>
    </varray>
    <i name="volume">     20.86541455 </i>
    <varray name="rec_basis" >
     <v>       0.42076917       0.24293119       0.00000000 </v>
     <v>       0.00000000       0.48586238       0.00000000 </v>
     <v>       0.00000000       0.00000000       0.23443141 </v>
    </varray>
   </crystal>
   <varray name="positions" >
    <v>       0.00000000       0.00000000       0.00000000 </v>
    <v>       0.33333333       0.66666667       0.50000000 </v>
   </varray>
  </structure>
  <varray name="primitive_index" >
   <v type="int" >        1 </v>
   <v type="int" >        2 </v>
  </varray>
 </primitive_cell>
 <kpoints>
  <generation param="Monkhorst-Pack">
   <v type="int" name="divisions">      11       11       11 </v>
   <v name="usershift">      0.00000000       0.00000000       0.00000000 </v>
   <v name="genvec1">      0.09090909       0.00000000       0.00000000 </v>
   <v name="genvec2">      0.00000000       0.09090909       0.00000000 </v>
   <v name="genvec3">      0.00000000       0.00000000       0.09090909 </v>
   <v name="shift">      0.00000000       0.00000000       0.00000000 </v>
  </generation>
  <varray name="kpointlist" >
   <v>       0.00000000       0.00000000       0.00000000 </v>
   <v>       0.09090909      -0.00000000       0.00000000 </v>
   <v>       0.18181818      -0.00000000       0.00000000 </v>
   <v>       0.27272727       0.00000000       0.00000000 </v>
   <v>       0.36363636       0.00000000       0.00000000 </v>
   <v>       0.45454545       0.00000000       0.00000000 </v>
   <v>       0.09090909       0.09090909       0.00000000 </v>
   <v>       0.18181818       0.09090909       0.00000000 </v>
   <v>       0.27272727       0.09090909       0.00000000 </v>
   <v>       0.36363636       0.09090909       0.00000000 </v>
   <v>       0.45454545       0.09090909       0.00000000 </v>
   <v>       0.18181818       0.18181818       0.00000000 </v>
   <v>       0.27272727       0.18181818       0.00000000 </v>
   <v>       0.36363636       0.18181818       0.00000000 </v>
   <v>       0.27272727       0.27272727       0.00000000 </v>
   <v>       0.36363636       0.27272727       0.00000000 </v>
   <v>       0.00000000       0.00000000       0.09090909 </v>
   <v>       0.09090909      -0.00000000       0.09090909 </v>
   <v>       0.18181818      -0.00000000       0.09090909 </v>
   <v>       0.27272727       0.00000000       0.09090909 </v>
   <v>       0.36363636       0.00000000       0.09090909 </v>
   <v>       0.45454545       0.00000000       0.09090909 </v>
   <v>       0.09090909       0.09090909       0.09090909 </v>
   <v>       0.18181818       0.09090909       0.09090909 </v>
   <v>       0.27272727       0.09090909       0.09090909 </v>
   <v>       0.36363636       0.09090909       0.09090909 </v>
   <v>       0.45454545       0.09090909       0.09090909 </v>
   <v>       0.18181818       0.18181818       0.09090909 </v>
   <v>       0.27272727       0.18181818       0.09090909 </v>
   <v>       0.36363636       0.18181818       0.09090909 </v>
   <v>       0.27272727       0.27272727       0.09090909 </v>
   <v>       0.36363636       0.27272727       0.09090909 </v>
   <v>       0.00000000       0.00000000       0.18181818 </v>
   <v>       0.09090909      -0.00000000       0.18181818 </v>
   <v>       0.18181818      -0.00000000       0.18181818 </v>
   <v>       0.27272727       0.00000000       0.18181818 </v>
   <v>       0.36363636       0.00000000       0.18181818 </v>
   <v>       0.45454545       0.00000000       0.18181818 </v>
   <v>       0.09090909       0.09090909       0.18181818 </v>
   <v>       0.18181818       0.09090909       0.18181818 </v>
   <v>       0.27272727       0.09090909       0.18181818 </v>
   <v>       0.36363636       0.09090909       0.18181818 </v>
   <v>       0.45454545       0.09090909       0.18181818 </v>
   <v>       0.18181818       0.18181818       0.18181818 </v>
   <v>       0.27272727       0.18181818       0.18181818 </v>
   <v>       0.36363636       0.18181818       0.18181818 </v>
   <v>       0.27272727       0.27272727       0.18181818 </v>
   <v>       0.36363636       0.27272727       0.18181818 </v>
   <v>       0.00000000       0.00000000       0.27272727 </v>
   <v>       0.09090909      -0.00000000       0.27272727 </v>
   <v>       0.18181818      -0.00000000       0.27272727 </v>
   <v>       0.27272727       0.00000000       0.27272727 </v>
   <v>       0.36363636       0.00000000       0.27272727 </v>
   <v>       0.45454545       0.00000000       0.27272727 </v>
   <v>       0.09090909       0.09090909       0.27272727 </v>
   <v>       0.18181818       0.09090909       0.27272727 </v>
   <v>       0.27272727       0.09090909       0.27272727 </v>
   <v>       0.36363636       0.09090909       0.27272727 </v>
   <v>       0.45454545       0.09090909       0.27272727 </v>
   <v>       0.18181818       0.18181818       0.27272727 </v>
   <v>       0.27272727       0.18181818       0.27272727 </v>
   <v>       0.36363636       0.18181818       0.27272727 </v>
   <v>       0.27272727       0.27272727       0.27272727 </v>
   <v>       0.36363636       0.27272727       0.27272727 </v>
   <v>       0.00000000       0.00000000       0.36363636 </v>
   <v>       0.09090909      -0.00000000       0.36363636 </v>
   <v>       0.18181818      -0.00000000       0.36363636 </v>
   <v>       0.27272727       0.00000000       0.36363636 </v>
   <v>       0.36363636       0.00000000       0.36363636 </v>
   <v>       0.45454545       0.00000000       0.36363636 </v>
   <v>       0.09090909       0.09090909       0.36363636 </v>
   <v>       0.18181818       0.09090909       0.36363636 </v>
   <v>       0.27272727       0.09090909       0.36363636 </v>
   <v>       0.36363636       0.09090909       0.36363636 </v>
   <v>       0.45454545       0.09090909       0.36363636 </v>
   <v>       0.18181818       0.18181818       0.36363636 </v>
   <v>       0.27272727       0.18181818       0.36363636 </v>
   <v>       0.36363636       0.18181818       0.36363636 </v>
   <v>       0.27272727       0.27272727       0.36363636 </v>
   <v>       0.36363636       0.27272727       0.36363636 </v>
   <v>       0.00000000       0.00000000       0.45454545 </v>
   <v>       0.09090909      -0.00000000       0.45454545 </v>
   <v>       0.18181818      -0.00000000       0.45454545 </v>
   <v>       0.27272727       0.00000000       0.45454545 </v>
   <v>       0.36363636       0.00000000       0.45454545 </v>
   <v>       0.45454545       0.00000000       0.45454545 </v>
   <v>       0.09090909       0.09090909       0.45454545 </v>
   <v>       0.18181818       0.09090909       0.45454545 </v>
   <v>       0.27272727       0.09090909       0.45454545 </v>
   <v>       0.36363636       0.09090909       0.45454545 </v>
   <v>       0.45454545       0.09090909       0.45454545 </v>
   <v>       0.18181818       0.18181818       0.45454545 </v>
   <v>       0.27272727       0.18181818       0.45454545 </v>
   <v>       0.36363636       0.18181818       0.45454545 </v>
   <v>       0.27272727       0.27272727       0.45454545 </v>
   <v>       0.36363636       0.27272727       0.45454545 </v>
  </varray>
  <varray name="weights" >
   <v>       0.00075131 </v>
   <v>       0.00450789 </v>
   <v>       0.00450789 </v>
   <v>       0.00450789 </v>
   <v>       0.00450789 </v>
   <v>       0.00450789 </v>
   <v>       0.00450789 </v>
   <v>       0.00901578 </v>
   <v>       0.00901578 </v>
   <v>       0.00901578 </v>
   <v>       0.00450789 </v>
   <v>       0.00450789 </v>
   <v>       0.00901578 </v>
   <v>       0.00901578 </v>
   <v>       0.00450789 </v>
   <v>       0.00450789 </v>
   <v>       0.00150263 </v>
   <v>       0.00901578 </v>
   <v>       0.00901578 </v>
   <v>       0.00901578 </v>
   <v>       0.00901578 </v>
   <v>       0.00901578 </v>
   <v>       0.00901578 </v>
   <v>       0.01803156 </v>
   <v>       0.01803156 </v>
   <v>       0.01803156 </v>
   <v>       0.00901578 </v>
   <v>       0.00901578 </v>
   <v>       0.01803156 </v>
   <v>       0.01803156 </v>
   <v>       0.00901578 </v>
   <v>       0.00901578 </v>
   <v>       0.00150263 </v>
   <v>       0.00901578 </v>
   <v>       0.00901578 </v>
   <v>       0.00901578 </v>
   <v>       0.00901578 </v>
   <v>       0.00901578 </v>
   <v>       0.00901578 </v>
   <v>       0.01803156 </v>
   <v>       0.01803156 </v>
   <v>       0.01803156 </v>
   <v>       0.00901578 </v>
   <v>       0.00901578 </v>
   <v>       0.01803156 </v>
   <v>       0.01803156 </v>
   <v>       0.00901578 </v>
   <v>       0.00901578 </v>
   <v>       0.00150263 </v>
   <v>       0.00901578 </v>
   <v>       0.00901578 </v>
   <v>       0.00901578 </v>
   <v>       0.00901578 </v>
   <v>       0.00901578 </v>
   <v>       0.00901578 </v>
   <v>       0.01803156 </v>
   <v>       0.01803156 </v>
   <v>       0.01803156 </v>
   <v>       0.00901578 </v>
   <v>       0.00901578 </v>
   <v>       0.01803156 </v>
   <v>       0.01803156 </v>
   <v>       0.00901578 </v>
   <v>       0.00901578 </v>
   <v>       0.00150263 </v>
   <v>       0.00901578 </v>
   <v>       0.00901578 </v>
   <v>       0.00901578 </v>
   <v>       0.00901578 </v>
   <v>       0.00901578 </v>
   <v>       0.00901578 </v>
   <v>       0.01803156 </v>
   <v>       0.01803156 </v>
   <v>       0.01803156 </v>
   <v>       0.00901578 </v>
   <v>       0.00901578 </v>
   <v>       0.01803156 </v>
   <v>       0.01803156 </v>
   <v>       0.00901578 </v>
   <v>       0.00901578 </v>
   <v>       0.00150263 </v>
   <v>       0.00901578 </v>
   <v>       0.00901578 </v>
   <v>       0.00901578 </v>
   <v>       0.00901578 </v>
   <v>       0.00901578 </v>
   <v>       0.00901578 </v>
   <v>       0.01803156 </v>
   <v>       0.01803156 </v>
   <v>       0.01803156 </v>
   <v>       0.00901578 </v>
   <v>       0.00901578 </v>
   <v>       0.01803156 </v>
   <v>       0.01803156 </v>
   <v>       0.00901578 </v>
   <v>       0.00901578 </v>
  </varray>
 </kpoints>
 <parameters>
  <separator name="general" >
   <i type="string" name="SYSTEM">unknown system</i>
   <i type="logical" name="LCOMPAT"> F  </i>
  </separator>
  <separator name="electronic" >
   <i type="string" name="PREC">normal</i>
   <i name="ENMAX">    280.00000000</i>
   <i name="ENAUG">    511.36800000</i>
   <i name="EDIFF">      0.00000100</i>
   <i type="int" name="IALGO">    38</i>
   <i type="int" name="IWAVPR">     0</i>
   <i type="int" name="NBANDS">    40</i>
   <i type="int" name="NBANDSLOW">    -1</i>
   <i type="int" name="NBANDSHIGH">    -1</i>
   <i name="NELECT">     16.00000000</i>
   <i type="int" name="TURBO">     0</i>
   <i type="int" name="IRESTART">     0</i>
   <i type="int" name="NREBOOT">     0</i>
   <i type="int" name="NMIN">     0</i>
   <i name="EREF">      0.00000000</i>
   <separator name="electronic smearing" >
    <i type="int" name="ISMEAR">     1</i>
    <i name="SIGMA">      0.20000000</i>
    <i name="KSPACING">      0.50000000</i>
    <i type="logical" name="KGAMMA"> T  </i>
    <i type="logical" name="KBLOWUP"> T  </i>
   </separator>
   <separator name="electronic projectors" >
    <i type="logical" name="LREAL"> F  </i>
    <v name="ROPT">      0.00000000</v>
    <i type="int" name="LMAXPAW">  -100</i>
    <i type="int" name="LMAXMIX">     2</i>
    <i type="logical" name="NLSPLINE"> F  </i>
   </separator>
   <separator name="electronic startup" >
    <i type="int" name="ISTART">     0</i>
    <i type="int" name="ICHARG">     1</i>
    <i type="int" name="INIWAV">     1</i>
   </separator>
   <separator name="electronic spin" >
    <i type="int" name="ISPIN">     1</i>
    <i type="logical" name="LNONCOLLINEAR"> F  </i>
    <v name="MAGMOM">      1.00000000      1.00000000</v>
    <i name="NUPDOWN">     -1.00000000</i>
    <i type="logical" name="LSORBIT"> F  </i>
    <v name="SAXIS">      0.00000000      0.00000000      1.00000000</v>
    <i type="logical" name="LSPIRAL"> F  </i>
    <v name="QSPIRAL">      0.00000000      0.00000000      0.00000000</v>
    <i type="logical" name="LZEROZ"> F  </i>
   </separator>
   <separator name="electronic exchange-correlation" >
    <i type="logical" name="LASPH"> F  </i>
    <i type="logical" name="LMETAGGA"> F  </i>
   </separator>
   <separator name="electronic convergence" >
    <i type="int" name="NELM">    60</i>
    <i type="int" name="NELMDL">    -5</i>
    <i type="int" name="NELMIN">     2</i>
    <i name="ENINI">    280.00000000</i>
    <separator name="electronic convergence detail" >
     <i type="logical" name="LDIAG"> T  </i>
     <i type="logical" name="LSUBROT"> F  </i>
     <i name="WEIMIN">      0.00000000</i>
     <i name="EBREAK">      0.00000001</i>
     <i name="DEPER">      0.30000000</i>
     <i type="int" name="NRMM">     4</i>
     <i name="TIME">      0.40000000</i>
    </separator>
   </separator>
   <separator name="electronic mixer" >
    <i name="AMIX">      0.40000000</i>
    <i name="BMIX">      1.00000000</i>
    <i name="AMIN">      0.10000000</i>
    <i name="AMIX_MAG">      1.60000000</i>
    <i name="BMIX_MAG">      1.00000000</i>
    <separator name="electronic mixer details" >
     <i type="int" name="IMIX">     4</i>
     <i type="logical" name="MIXFIRST"> F  </i>
     <i type="int" name="MAXMIX">   -45</i>
     <i name="WC">    100.00000000</i>
     <i type="int" name="INIMIX">     1</i>
     <i type="int" name="MIXPRE">     1</i>
     <i type="int" name="MREMOVE">     5</i>
    </separator>
   </separator>
   <separator name="electronic dipolcorrection" >
    <i type="logical" name="LDIPOL"> F  </i>
    <i type="logical" name="LMONO"> F  </i>
    <i type="int" name="IDIPOL">     0</i>
    <i name="EPSILON">      1.00000000</i>
    <v name="DIPOL">   -100.00000000   -100.00000000   -100.00000000</v>
    <i name="EFIELD">      0.00000000</i>
   </separator>
  </separator>
  <separator name="grids" >
   <i type="int" name="NGX">    10</i>
   <i type="int" name="NGY">    10</i>
   <i type="int" name="NGZ">    18</i>
   <i type="int" name="NGXF">    20</i>
   <i type="int" name="NGYF">    20</i>
   <i type="int" name="NGZF">    36</i>
   <i type="logical" name="ADDGRID"> F  </i>
  </separator>
  <separator name="ionic" >
   <i type="int" name="NSW">     0</i>
   <i type="int" name="IBRION">    -1</i>
   <i type="int" name="MDALGO">     0</i>
   <i type="int" name="ISIF">     2</i>
   <i name="PSTRESS">      0.00000000</i>
   <i name="EDIFFG">      0.00001000</i>
   <i type="int" name="NFREE">     0</i>
   <i name="POTIM">      0.50000000</i>
   <i name="SMASS">     -3.00000000</i>
   <i name="SCALEE">      1.00000000</i>
  </separator>
  <separator name="ionic md" >
   <i name="TEBEG">      0.00010000</i>
   <i name="TEEND">      0.00010000</i>
   <i type="int" name="NBLOCK">     1</i>
   <i type="int" name="KBLOCK">     1</i>
   <i type="int" name="NPACO">   256</i>
   <i name="APACO">     16.00000000</i>
  </separator>
  <separator name="symmetry" >
   <i type="int" name="ISYM">     2</i>
   <i name="SYMPREC">      0.00001000</i>
  </separator>
  <separator name="dos" >
   <i type="int" name="LORBIT">     0</i>
   <v name="RWIGS">     -1.00000000</v>
   <i type="int" name="NEDOS">   301</i>
   <i name="EMIN">     10.00000000</i>
   <i name="EMAX">    -10.00000000</i>
   <i name="EFERMI">      0.00000000</i>
  </separator>
  <separator name="writing" >
   <i type="int" name="NWRITE">     2</i>
   <i type="logical" name="LWAVE"> T  </i>
   <i type="logical" name="LDOWNSAMPLE"> F  </i>
   <i type="logical" name="LCHARG"> T  </i>
   <i type="logical" name="LPARD"> F  </i>
   <i type="logical" name="LVTOT"> F  </i>
   <i type="logical" name="LVHAR"> F  </i>
   <i type="logical" name="LELF"> F  </i>
   <i type="logical" name="LOPTICS"> F  </i>
   <v name="STM">      0.00000000      0.00000000      0.00000000      0.00000000      0.00000000      0.00000000      0.00000000</v>
  </separator>
  <separator name="performance" >
   <i type="int" name="NPAR">     1</i>
   <i type="int" name="NSIM">     4</i>
   <i type="int" name="NBLK">    -1</i>
   <i type="logical" name="LPLANE"> T  </i>
   <i type="logical" name="LSCALAPACK"> F  </i>
   <i type="logical" name="LSCAAWARE"> F  </i>
   <i type="logical" name="LSCALU"> F  </i>
   <i type="logical" name="LASYNC"> F  </i>
   <i type="logical" name="LORBITALREAL"> F  </i>
  </separator>
  <separator name="miscellaneous" >
   <i type="int" name="IDIOT">     3</i>
   <i type="int" name="PHON_NSTRUCT">    -1</i>
   <i type="logical" name="LMUSIC"> F  </i>
   <v name="POMASS">     55.84700000</v>
   <v name="DARWINR">      0.00000000</v>
   <v name="DARWINV">      1.00000000</v>
   <i type="logical" name="LCORR"> T  </i>
  </separator>
  <i type="logical" name="GGA_COMPAT"> T  </i>
  <i type="logical" name="LBERRY"> F  </i>
  <i type="int" name="ICORELEVEL">     0</i>
  <i type="logical" name="LDAU"> F  </i>
  <i type="int" name="I_CONSTRAINED_M">     0</i>
  <separator name="electronic exchange-correlation" >
   <i type="string" name="GGA">PE</i>
   <i type="int" name="VOSKOWN">     0</i>
   <i type="logical" name="LHFCALC"> F  </i>
   <i type="string" name="PRECFOCK"></i>
   <i type="logical" name="LSYMGRAD"> F  </i>
   <i type="logical" name="LHFONE"> F  </i>
   <i type="logical" name="LRHFCALC"> F  </i>
   <i type="logical" name="LTHOMAS"> F  </i>
   <i type="logical" name="LMODELHF"> F  </i>
   <i type="logical" name="LFOCKACE"> F  </i>
   <i name="ENCUT4O">     -1.00000000</i>
   <i type="int" name="EXXOEP">     0</i>
   <i type="int" name="FOURORBIT">     0</i>
   <i name="AEXX">      0.00000000</i>
   <i name="HFALPHA">      0.00000000</i>
   <i name="MCALPHA">      0.00000000</i>
   <i name="ALDAX">      1.00000000</i>
   <i name="AGGAX">      1.00000000</i>
   <i name="ALDAC">      1.00000000</i>
   <i name="AGGAC">      1.00000000</i>
   <i type="int" name="NKREDX">     1</i>
   <i type="int" name="NKREDY">     1</i>
   <i type="int" name="NKREDZ">     1</i>
   <i type="logical" name="SHIFTRED"> F  </i>
   <i type="logical" name="ODDONLY"> F  </i>
   <i type="logical" name="EVENONLY"> F  </i>
   <i type="int" name="LMAXFOCK">     0</i>
   <i type="int" name="NMAXFOCKAE">     0</i>
   <i type="logical" name="LFOCKAEDFT"> F  </i>
   <i name="HFSCREEN">      0.00000000</i>
   <i name="HFSCREENC">      0.00000000</i>
   <i type="int" name="NBANDSGWLOW">     0</i>
  </separator>
  <separator name="vdW DFT" >
   <i type="logical" name="LUSE_VDW"> F  </i>
   <i name="Zab_VDW">     -0.84910000</i>
   <i name="PARAM1">      0.12340000</i>
   <i name="PARAM2">      1.00000000</i>
   <i name="PARAM3">      0.00000000</i>
  </separator>
  <separator name="model GW" >
   <i type="int" name="MODEL_GW">     0</i>
   <i name="MODEL_EPS0">      6.25962436</i>
   <i name="MODEL_ALPHA">      1.00000000</i>
  </separator>
  <separator name="linear response parameters" >
   <i type="logical" name="LEPSILON"> F  </i>
   <i type="logical" name="LRPA"> F  </i>
   <i type="logical" name="LNABLA"> F  </i>
   <i type="logical" name="LVEL"> F  </i>
   <i type="int" name="KINTER">     0</i>
   <i name="CSHIFT">      0.10000000</i>
   <i name="OMEGAMAX">     -1.00000000</i>
   <i name="DEG_THRESHOLD">      0.00200000</i>
   <i name="RTIME">     -0.10000000</i>
   <i name="WPLASMAI">      0.00000000</i>
   <v name="DFIELD">      0.00000000      0.00000000      0.00000000</v>
   <v name="WPLASMA">      0.00000000      0.00000000      0.00000000      0.00000000      0.00000000      0.00000000      0.00000000      0.00000000      0.00000000</v>
  </separator>
  <separator name="orbital magnetization" >
   <i type="logical" name="NUCIND"> F  </i>
   <v name="MAGPOS">      0.00000000      0.00000000      0.00000000</v>
   <i type="logical" name="LNICSALL"> T  </i>
   <i type="logical" name="ORBITALMAG"> F  </i>
   <i type="logical" name="LMAGBLOCH"> F  </i>
   <i type="logical" name="LCHIMAG"> F  </i>
   <i type="logical" name="LGAUGE"> T  </i>
   <i type="int" name="MAGATOM">     0</i>
   <v name="MAGDIPOL">      0.00000000      0.00000000      0.00000000</v>
   <v name="AVECCONST">      0.00000000      0.00000000      0.00000000</v>
  </separator>
  <separator name="response functions" >
   <i type="logical" name="LFINITE_TEMPERATURE"> F  </i>
   <i type="logical" name="LADDER"> F  </i>
   <i type="logical" name="LRPAFORCE"> F  </i>
   <i type="logical" name="LFXC"> F  </i>
   <i type="logical" name="LHARTREE"> T  </i>
   <i type="int" name="IBSE">     0</i>
   <v type="int" name="KPOINT">    -1     0     0     0</v>
   <i type="logical" name="LTCTC"> F  </i>
   <i type="logical" name="LTCTE"> F  </i>
   <i type="logical" name="LTETE"> F  </i>
   <i type="logical" name="LTRIPLET"> F  </i>
   <i type="logical" name="LFXCEPS"> F  </i>
   <i type="logical" name="LFXHEG"> F  </i>
   <i type="int" name="NATURALO">     2</i>
   <i type="logical" name="LHOLEGF"> F  </i>
   <i type="logical" name="L2ORDER"> F  </i>
   <i type="logical" name="LDMP1"> F  </i>
   <i type="logical" name="LMP2LT"> F  </i>
   <i type="logical" name="LSMP2LT"> F  </i>
   <i type="logical" name="LGWLF"> F  </i>
   <i name="ENCUTGW">     -2.00000000</i>
   <i name="ENCUTGWSOFT">     -2.00000000</i>
   <i name="ENCUTLF">     -1.00000000</i>
   <i type="logical" name="LESF_SPLINES"> F  </i>
   <i type="int" name="LMAXMP2">    -1</i>
   <i name="SCISSOR">      0.00000000</i>
   <i type="int" name="NOMEGA">     0</i>
   <i type="int" name="NOMEGAR">     0</i>
   <i type="int" name="NBANDSGW">    -1</i>
   <i type="int" name="NBANDSO">    -1</i>
   <i type="int" name="NBANDSV">    -1</i>
   <i type="int" name="NELM">     1</i>
   <i type="int" name="NELMHF">     1</i>
   <i type="int" name="DIM">     3</i>
   <i type="int" name="IESPILON">     4</i>
   <i type="int" name="ANTIRES">     0</i>
   <i name="OMEGAMAX">    -30.00000000</i>
   <i name="OMEGAMIN">    -30.00000000</i>
   <i name="OMEGATL">   -200.00000000</i>
   <i type="int" name="OMEGAGRID">     0</i>
   <i name="CSHIFT">     -0.10000000</i>
   <i type="logical" name="LSELFENERGY"> F  </i>
   <i type="logical" name="LSPECTRAL"> F  </i>
   <i type="logical" name="LSPECTRALGW"> F  </i>
   <i type="logical" name="LSINGLES"> F  </i>
   <i type="logical" name="LFERMIGW"> F  </i>
   <i type="logical" name="ODDONLYGW"> F  </i>
   <i type="logical" name="EVENONLYGW"> F  </i>
   <i type="int" name="NKREDLFX">     1</i>
   <i type="int" name="NKREDLFY">     1</i>
   <i type="int" name="NKREDLFZ">     1</i>
   <i type="int" name="MAXMEM">  2800</i>
   <i type="int" name="TELESCOPE">     0</i>
   <i type="int" name="NTAUPAR">    -1</i>
   <i type="int" name="NOMEGAPAR">    -1</i>
   <i name="DAMP_NEWTON">      0.80000001</i>
   <i name="LAMBDA">      1.00000000</i>
  </separator>
  <separator name="External order field" >
   <i name="OFIELD_KAPPA">      0.00000000</i>
   <v name="OFIELD_K">      0.00000000      0.00000000      0.00000000</v>
   <i name="OFIELD_Q6_NEAR">      0.00000000</i>
   <i name="OFIELD_Q6_FAR">      0.00000000</i>
   <i name="OFIELD_A">      0.00000000</i>
  </separator>
 </parameters>
 <atominfo>
  <atoms>       2 </atoms>
  <types>       1 </types>
  <array name="atoms" >
   <dimension dim="1">ion</dimension>
   <field type="string">element</field>
   <field type="int">atomtype</field>
   <set>
    <rc><c>Fe</c><c>   1</c></rc>
    <rc><c>Fe</c><c>   1</c></rc>
   </set>
  </array>
  <array name="atomtypes" >
   <dimension dim="1">type</dimension>
   <field type="int">atomspertype</field>
   <field type="string">element</field>
   <field>mass</field>
   <field>valence</field>
   <field type="string">pseudopotential</field>
   <set>
    <rc><c>   2</c><c>Fe</c><c>     55.84700000</c><c>      8.00000000</c><c>  PAW_PBE Fe 06Sep2000                  </c></rc>
   </set>
  </array>
 </atominfo>
 <structure name="initialpos" >
  <crystal>
   <varray name="basis" >
    <v>       2.37660000       0.00000000       0.00000000 </v>
    <v>      -1.18830000       2.05819597       0.00000000 </v>
    <v>       0.00000000       0.00000000       4.26564000 </v>
   </varray>
   <i name="volume">     20.86541455 </i>
   <varray name="rec_basis" >
    <v>       0.42076917       0.24293119       0.00000000 </v>
    <v>       0.00000000       0.48586238       0.00000000 </v>
    <v>       0.00000000       0.00000000       0.23443141 </v>
   </varray>
  </crystal>
  <varray name="positions" >
   <v>       0.00000000       0.00000000       0.00000000 </v>
   <v>       0.33333333       0.66666667       0.50000000 </v>
  </varray>
 </structure>
 <calculation>
  <scstep>
   <time name="dav">    0.80    0.82</time>
   <time name="total">    0.81    0.83</time>
   <energy>
    <i name="alphaZ">    132.49442200 </i>
    <i name="ewald">  -1216.47834156 </i>
    <i name="hartreedc">   -211.51201874 </i>
    <i name="XCdc">      8.35021996 </i>
    <i name="pawpsdc">   1109.69170683 </i>
    <i name="pawaedc">  -1125.09647265 </i>
    <i name="eentropy">     -0.00304227 </i>
    <i name="bandstr">    174.49622448 </i>
    <i name="atom">   1188.57490811 </i>
    <i name="e_fr_energy">     60.51760616 </i>
    <i name="e_wo_entrp">     60.52064844 </i>
    <i name="e_0_energy">     60.51862025 </i>
   </energy>
  </scstep>
  <scstep>
   <time name="dav">    0.70    0.70</time>
   <time name="total">    0.71    0.71</time>
   <energy>
    <i name="e_fr_energy">    -14.64144687 </i>
    <i name="e_wo_entrp">    -14.64182588 </i>
    <i name="e_0_energy">    -14.64157320 </i>
   </energy>
  </scstep>
  <scstep>
   <time name="dav">    0.80    0.80</time>
   <time name="total">    0.81    0.81</time>
   <energy>
    <i name="e_fr_energy">    -19.10411721 </i>
    <i name="e_wo_entrp">    -19.10480143 </i>
    <i name="e_0_energy">    -19.10434528 </i>
   </energy>
  </scstep>
  <scstep>
   <time name="dav">    0.78    0.78</time>
   <time name="total">    0.78    0.78</time>
   <energy>
    <i name="e_fr_energy">    -19.12618854 </i>
    <i name="e_wo_entrp">    -19.12691246 </i>
    <i name="e_0_energy">    -19.12642984 </i>
   </energy>
  </scstep>
  <scstep>
   <time name="dav">    0.79    0.79</time>
   <time name="total">    0.82    0.82</time>
   <energy>
    <i name="e_fr_energy">    -19.12621936 </i>
    <i name="e_wo_entrp">    -19.12694335 </i>
    <i name="e_0_energy">    -19.12646069 </i>
   </energy>
  </scstep>
  <scstep>
   <time name="dav">    0.92    0.92</time>
   <time name="total">    0.95    0.95</time>
   <energy>
    <i name="e_fr_energy">    -16.27886513 </i>
    <i name="e_wo_entrp">    -16.28191315 </i>
    <i name="e_0_energy">    -16.27988114 </i>
   </energy>
  </scstep>
  <scstep>
   <time name="dav">    0.83    0.83</time>
   <time name="total">    0.86    0.86</time>
   <energy>
    <i name="e_fr_energy">    -16.05443366 </i>
    <i name="e_wo_entrp">    -16.05751473 </i>
    <i name="e_0_energy">    -16.05546068 </i>
   </energy>
  </scstep>
  <scstep>
   <time name="dav">    0.83    0.83</time>
   <time name="total">    0.87    0.87</time>
   <energy>
    <i name="e_fr_energy">    -16.02824099 </i>
    <i name="e_wo_entrp">    -16.03139716 </i>
    <i name="e_0_energy">    -16.02929305 </i>
   </energy>
  </scstep>
  <scstep>
   <time name="dav">    0.91    0.91</time>
   <time name="total">    0.94    0.94</time>
   <energy>
    <i name="e_fr_energy">    -16.01780684 </i>
    <i name="e_wo_entrp">    -16.02096659 </i>
    <i name="e_0_energy">    -16.01886009 </i>
   </energy>
  </scstep>
  <scstep>
   <time name="dav">    0.76    0.76</time>
   <time name="total">    0.79    0.79</time>
   <energy>
    <i name="e_fr_energy">    -16.01783647 </i>
    <i name="e_wo_entrp">    -16.02099284 </i>
    <i name="e_0_energy">    -16.01888859 </i>
   </energy>
  </scstep>
  <scstep>
   <time name="dav">    0.78    0.78</time>
   <time name="total">    0.81    0.81</time>
   <energy>
    <i name="e_fr_energy">    -16.01783032 </i>
    <i name="e_wo_entrp">    -16.02098665 </i>
    <i name="e_0_energy">    -16.01888243 </i>
   </energy>
  </scstep>
  <scstep>
   <time name="dav">    0.58    0.58</time>
   <time name="total">    0.59    0.59</time>
   <energy>
    <i name="alphaZ">    132.49442200 </i>
    <i name="ewald">  -1216.47834156 </i>
    <i name="hartreedc">   -177.33126619 </i>
    <i name="XCdc">      6.76174251 </i>
    <i name="pawpsdc">   1453.51211969 </i>
    <i name="pawaedc">  -1470.82421056 </i>
    <i name="eentropy">      0.00315647 </i>
    <i name="bandstr">     67.26963993 </i>
    <i name="atom">   1188.57490811 </i>
    <i name="e_fr_energy">    -16.01782960 </i>
    <i name="e_wo_entrp">    -16.02098606 </i>
    <i name="e_0_energy">    -16.01888175 </i>
   </energy>
  </scstep>
  <structure>
   <crystal>
    <varray name="basis" >
     <v>       2.37660000       0.00000000       0.00000000 </v>
     <v>      -1.18830000       2.05819597       0.00000000 </v>
     <v>       0.00000000       0.00000000       4.26564000 </v>
    </varray>
    <i name="volume">     20.86541455 </i>
    <varray name="rec_basis" >
     <v>       0.42076917       0.24293119       0.00000000 </v>
     <v>       0.00000000       0.48586238       0.00000000 </v>
     <v>       0.00000000       0.00000000       0.23443141 </v>
    </varray>
   </crystal>
   <varray name="positions" >
    <v>       0.00000000       0.00000000       0.00000000 </v>
    <v>       0.33333333       0.66666667       0.50000000 </v>
   </varray>
  </structure>
  <varray name="forces" >
   <v>      -0.00000000      -0.00000000       0.00000000 </v>
   <v>       0.00000000       0.00000000      -0.00000000 </v>
  </varray>
  <varray name="stress" >
   <v>     123.34810626      -0.00000000       0.00000000 </v>
   <v>      -0.00000000     123.34810626       0.00000000 </v>
   <v>       0.00000000      -0.00000000    -389.72458100 </v>
  </varray>
  <energy>
   <i name="e_fr_energy">    -16.01782960 </i>
   <i name="e_wo_entrp">    -16.02098606 </i>
   <i name="e_0_energy">    -16.01888175 </i>
  </energy>
  <time name="totalsc">   10.06   10.08</time>
  <eigenvalues>
   <array>
    <dimension dim="1">band</dimension>
    <dimension dim="2">kpoint</dimension>
    <dimension dim="3">spin</dimension>
    <field>eigene</field>
    <field>occ</field>
    <set>
     <set comment="spin 1">
      <set comment="kpoint 1">
       <r>   -2.1246    1.0000 </r>
       <r>    1.7208    1.0000 </r>
       <r>    4.3975    1.0000 </r>
       <r>    5.1262    1.0000 </r>
       <r>    5.1263    1.0000 </r>
       <r>    5.3956    1.0000 </r>
       <r>    5.3957    1.0000 </r>
       <r>    5.7638    1.0000 </r>
       <r>    6.4108    1.0343 </r>
       <r>    6.4109    1.0343 </r>
       <r>    7.3589   -0.0000 </r>
       <r>    7.3589   -0.0000 </r>
       <r>   13.4352    0.0000 </r>
       <r>   29.2500    0.0000 </r>
       <r>   30.1144    0.0000 </r>
       <r>   32.9126    0.0000 </r>
       <r>   35.1850    0.0000 </r>
       <r>   35.1851    0.0000 </r>
       <r>   35.7013    0.0000 </r>
       <r>   36.0257    0.0000 </r>
       <r>   36.0258    0.0000 </r>
       <r>   38.7787    0.0000 </r>
       <r>   38.7787    0.0000 </r>
       <r>   39.7519    0.0000 </r>
       <r>   42.1388    0.0000 </r>
       <r>   42.1388    0.0000 </r>
       <r>   42.4540    0.0000 </r>
       <r>   45.7972    0.0000 </r>
       <r>   45.7975    0.0000 </r>
       <r>   47.5849    0.0000 </r>
       <r>   47.5850    0.0000 </r>
       <r>   49.7159    0.0000 </r>
       <r>   57.2654    0.0000 </r>
       <r>   60.8044    0.0000 </r>
       <r>   60.8052    0.0000 </r>
       <r>   61.2338    0.0000 </r>
       <r>   61.7958    0.0000 </r>
       <r>   62.6522    0.0000 </r>
       <r>   62.6719    0.0000 </r>
       <r>   62.8597    0.0000 </r>
      </set>
      <set comment="kpoint 2">
       <r>   -1.7962    1.0000 </r>
       <r>    1.9707    1.0000 </r>
       <r>    4.4408    1.0000 </r>
       <r>    5.0207    1.0000 </r>
       <r>    5.0362    1.0000 </r>
       <r>    5.2800    1.0000 </r>
       <r>    5.3117    1.0000 </r>
       <r>    5.5716    1.0000 </r>
       <r>    6.2522    1.0097 </r>
       <r>    6.3053    1.0198 </r>
       <r>    7.3857   -0.0000 </r>
       <r>    8.3737   -0.0000 </r>
       <r>   13.4603    0.0000 </r>
       <r>   28.7556    0.0000 </r>
       <r>   29.6387    0.0000 </r>
       <r>   31.2519    0.0000 </r>
       <r>   32.4205    0.0000 </r>
       <r>   34.7022    0.0000 </r>
       <r>   34.7564    0.0000 </r>
       <r>   35.5740    0.0000 </r>
       <r>   38.0961    0.0000 </r>
       <r>   38.5812    0.0000 </r>
       <r>   38.9244    0.0000 </r>
       <r>   39.5579    0.0000 </r>
       <r>   43.1059    0.0000 </r>
       <r>   43.3974    0.0000 </r>
       <r>   43.4070    0.0000 </r>
       <r>   43.8413    0.0000 </r>
       <r>   47.0912    0.0000 </r>
       <r>   48.8281    0.0000 </r>
       <r>   49.9957    0.0000 </r>
       <r>   51.8121    0.0000 </r>
       <r>   56.8013    0.0000 </r>
       <r>   58.8569    0.0000 </r>
       <r>   59.3828    0.0000 </r>
       <r>   59.9307    0.0000 </r>
       <r>   60.6126    0.0000 </r>
       <r>   62.8265    0.0000 </r>
       <r>   63.7278    0.0000 </r>
       <r>   63.8184    0.0000 </r>
      </set>
      <set comment="kpoint 3">
       <r>   -0.8647    1.0000 </r>
       <r>    2.5659    1.0000 </r>
       <r>    4.0461    1.0000 </r>
       <r>    4.3383    1.0000 </r>
       <r>    4.8273    1.0000 </r>
       <r>    5.3616    1.0000 </r>
       <r>    5.8399    1.0000 </r>
       <r>    5.8776    1.0000 </r>
       <r>    6.0556    1.0001 </r>
       <r>    6.0649    1.0002 </r>
       <r>    7.4255   -0.0000 </r>
       <r>   10.1140   -0.0000 </r>
       <r>   13.5756    0.0000 </r>
       <r>   24.9228    0.0000 </r>
       <r>   29.6336    0.0000 </r>
       <r>   29.9767    0.0000 </r>
       <r>   30.1476    0.0000 </r>
       <r>   30.8847    0.0000 </r>
       <r>   34.7197    0.0000 </r>
       <r>   35.7648    0.0000 </r>
       <r>   36.0764    0.0000 </r>
       <r>   37.1145    0.0000 </r>
       <r>   39.6657    0.0000 </r>
       <r>   40.2851    0.0000 </r>
       <r>   43.3722    0.0000 </r>
       <r>   44.6234    0.0000 </r>
       <r>   46.1038    0.0000 </r>
       <r>   48.2143    0.0000 </r>
       <r>   49.6732    0.0000 </r>
       <r>   52.3936    0.0000 </r>
       <r>   52.8875    0.0000 </r>
       <r>   55.1997    0.0000 </r>
       <r>   55.7306    0.0000 </r>
       <r>   55.8333    0.0000 </r>
       <r>   57.6498    0.0000 </r>
       <r>   59.0909    0.0000 </r>
       <r>   60.5774    0.0000 </r>
       <r>   62.6286    0.0000 </r>
       <r>   64.3098    0.0000 </r>
       <r>   65.1950    0.0000 </r>
      </set>
      <set comment="kpoint 4">
       <r>    0.4654    1.0000 </r>
       <r>    2.8683    1.0000 </r>
       <r>    3.2945    1.0000 </r>
       <r>    4.3215    1.0000 </r>
       <r>    4.6385    1.0000 </r>
       <r>    5.4067    1.0000 </r>
       <r>    5.7704    1.0000 </r>
       <r>    6.0791    1.0003 </r>
       <r>    6.5880    0.7105 </r>
       <r>    6.7497    0.1036 </r>
       <r>    7.4411   -0.0000 </r>
       <r>   12.1134    0.0000 </r>
       <r>   13.8400    0.0000 </r>
       <r>   20.8919    0.0000 </r>
       <r>   26.5474    0.0000 </r>
       <r>   27.2419    0.0000 </r>
       <r>   28.1537    0.0000 </r>
       <r>   31.0855    0.0000 </r>
       <r>   32.9604    0.0000 </r>
       <r>   35.5421    0.0000 </r>
       <r>   36.3790    0.0000 </r>
       <r>   36.4837    0.0000 </r>
       <r>   37.1927    0.0000 </r>
       <r>   40.6052    0.0000 </r>
       <r>   47.0541    0.0000 </r>
       <r>   48.3340    0.0000 </r>
       <r>   49.6010    0.0000 </r>
       <r>   50.3920    0.0000 </r>
       <r>   50.8788    0.0000 </r>
       <r>   52.7975    0.0000 </r>
       <r>   53.9942    0.0000 </r>
       <r>   55.3063    0.0000 </r>
       <r>   57.1991    0.0000 </r>
       <r>   57.6670    0.0000 </r>
       <r>   58.6020    0.0000 </r>
       <r>   60.3635    0.0000 </r>
       <r>   62.1368    0.0000 </r>
       <r>   62.3892    0.0000 </r>
       <r>   64.8692    0.0000 </r>
       <r>   65.0544    0.0000 </r>
      </set>
      <set comment="kpoint 5">
       <r>    1.6745    1.0000 </r>
       <r>    2.6147    1.0000 </r>
       <r>    2.8046    1.0000 </r>
       <r>    4.4435    1.0000 </r>
       <r>    4.9882    1.0000 </r>
       <r>    5.0845    1.0000 </r>
       <r>    5.5323    1.0000 </r>
       <r>    7.2833   -0.0000 </r>
       <r>    7.3398   -0.0000 </r>
       <r>    7.4348   -0.0000 </r>
       <r>    7.4383   -0.0000 </r>
       <r>   13.9133    0.0000 </r>
       <r>   14.2760    0.0000 </r>
       <r>   17.8775    0.0000 </r>
       <r>   23.2286    0.0000 </r>
       <r>   25.1815    0.0000 </r>
       <r>   25.4277    0.0000 </r>
       <r>   30.3825    0.0000 </r>
       <r>   32.0125    0.0000 </r>
       <r>   35.1662    0.0000 </r>
       <r>   35.9060    0.0000 </r>
       <r>   37.2406    0.0000 </r>
       <r>   37.4130    0.0000 </r>
       <r>   40.7189    0.0000 </r>
       <r>   47.4539    0.0000 </r>
       <r>   49.1606    0.0000 </r>
       <r>   50.4041    0.0000 </r>
       <r>   53.4182    0.0000 </r>
       <r>   53.6445    0.0000 </r>
       <r>   53.9574    0.0000 </r>
       <r>   55.8028    0.0000 </r>
       <r>   57.4061    0.0000 </r>
       <r>   57.4237    0.0000 </r>
       <r>   59.2888    0.0000 </r>
       <r>   61.2718    0.0000 </r>
       <r>   62.1910    0.0000 </r>
       <r>   62.7899    0.0000 </r>
       <r>   63.7241    0.0000 </r>
       <r>   65.3678    0.0000 </r>
       <r>   66.0981    0.0000 </r>
      </set>
      <set comment="kpoint 6">
       <r>    2.1716    1.0000 </r>
       <r>    2.3692    1.0000 </r>
       <r>    2.5674    1.0000 </r>
       <r>    4.7432    1.0000 </r>
       <r>    4.9890    1.0000 </r>
       <r>    5.3171    1.0000 </r>
       <r>    5.3990    1.0000 </r>
       <r>    7.4256   -0.0000 </r>
       <r>    7.8055   -0.0000 </r>
       <r>    7.9022   -0.0000 </r>
       <r>    8.9363   -0.0000 </r>
       <r>   12.2809    0.0000 </r>
       <r>   16.3547    0.0000 </r>
       <r>   17.7151    0.0000 </r>
       <r>   20.5924    0.0000 </r>
       <r>   22.4338    0.0000 </r>
       <r>   24.4197    0.0000 </r>
       <r>   29.7988    0.0000 </r>
       <r>   31.7276    0.0000 </r>
       <r>   34.0513    0.0000 </r>
       <r>   35.6837    0.0000 </r>
       <r>   38.1908    0.0000 </r>
       <r>   39.8766    0.0000 </r>
       <r>   40.2017    0.0000 </r>
       <r>   44.0961    0.0000 </r>
       <r>   49.3660    0.0000 </r>
       <r>   51.3313    0.0000 </r>
       <r>   55.1226    0.0000 </r>
       <r>   56.1848    0.0000 </r>
       <r>   56.7935    0.0000 </r>
       <r>   57.5154    0.0000 </r>
       <r>   59.2047    0.0000 </r>
       <r>   59.7973    0.0000 </r>
       <r>   60.8147    0.0000 </r>
       <r>   61.7171    0.0000 </r>
       <r>   62.0386    0.0000 </r>
       <r>   64.4989    0.0000 </r>
       <r>   64.9037    0.0000 </r>
       <r>   65.3640    0.0000 </r>
       <r>   66.1685    0.0000 </r>
      </set>
      <set comment="kpoint 7">
       <r>   -1.1636    1.0000 </r>
       <r>    2.4119    1.0000 </r>
       <r>    4.3006    1.0000 </r>
       <r>    4.3620    1.0000 </r>
       <r>    5.0462    1.0000 </r>
       <r>    5.0609    1.0000 </r>
       <r>    5.6976    1.0000 </r>
       <r>    5.8781    1.0000 </r>
       <r>    5.9519    1.0000 </r>
       <r>    6.2547    1.0101 </r>
       <r>    7.3835   -0.0000 </r>
       <r>    9.6259   -0.0000 </r>
       <r>   13.5349    0.0000 </r>
       <r>   26.6943    0.0000 </r>
       <r>   27.8813    0.0000 </r>
       <r>   30.2687    0.0000 </r>
       <r>   31.9511    0.0000 </r>
       <r>   33.4734    0.0000 </r>
       <r>   33.6543    0.0000 </r>
       <r>   34.6455    0.0000 </r>
       <r>   35.3565    0.0000 </r>
       <r>   40.3112    0.0000 </r>
       <r>   40.6140    0.0000 </r>
       <r>   41.0912    0.0000 </r>
       <r>   42.2909    0.0000 </r>
       <r>   42.5250    0.0000 </r>
       <r>   42.8596    0.0000 </r>
       <r>   48.8903    0.0000 </r>
       <r>   50.6213    0.0000 </r>
       <r>   50.6631    0.0000 </r>
       <r>   50.8562    0.0000 </r>
       <r>   54.8385    0.0000 </r>
       <r>   56.0824    0.0000 </r>
       <r>   56.5200    0.0000 </r>
       <r>   57.6572    0.0000 </r>
       <r>   59.0377    0.0000 </r>
       <r>   60.3124    0.0000 </r>
       <r>   63.2117    0.0000 </r>
       <r>   64.1663    0.0000 </r>
       <r>   65.0470    0.0000 </r>
      </set>
      <set comment="kpoint 8">
       <r>   -0.0086    1.0000 </r>
       <r>    2.9852    1.0000 </r>
       <r>    3.5656    1.0000 </r>
       <r>    4.0993    1.0000 </r>
       <r>    4.7449    1.0000 </r>
       <r>    5.4396    1.0000 </r>
       <r>    5.4639    1.0000 </r>
       <r>    6.0055    1.0000 </r>
       <r>    6.3870    1.0352 </r>
       <r>    6.6572    0.4259 </r>
       <r>    7.3701   -0.0000 </r>
       <r>   11.4103   -0.0000 </r>
       <r>   13.7667    0.0000 </r>
       <r>   22.9598    0.0000 </r>
       <r>   25.5612    0.0000 </r>
       <r>   28.4261    0.0000 </r>
       <r>   30.4841    0.0000 </r>
       <r>   30.9470    0.0000 </r>
       <r>   33.5803    0.0000 </r>
       <r>   33.9026    0.0000 </r>
       <r>   35.0506    0.0000 </r>
       <r>   39.1572    0.0000 </r>
       <r>   39.9190    0.0000 </r>
       <r>   40.9986    0.0000 </r>
       <r>   44.0851    0.0000 </r>
       <r>   45.0925    0.0000 </r>
       <r>   47.1204    0.0000 </r>
       <r>   50.6023    0.0000 </r>
       <r>   52.6085    0.0000 </r>
       <r>   53.2397    0.0000 </r>
       <r>   53.6571    0.0000 </r>
       <r>   55.5272    0.0000 </r>
       <r>   56.6325    0.0000 </r>
       <r>   56.7417    0.0000 </r>
       <r>   57.8161    0.0000 </r>
       <r>   58.3883    0.0000 </r>
       <r>   61.2959    0.0000 </r>
       <r>   63.5742    0.0000 </r>
       <r>   64.8776    0.0000 </r>
       <r>   65.4375    0.0000 </r>
      </set>
      <set comment="kpoint 9">
       <r>    1.3499    1.0000 </r>
       <r>    2.9433    1.0000 </r>
       <r>    3.0257    1.0000 </r>
       <r>    4.1751    1.0000 </r>
       <r>    4.8119    1.0000 </r>
       <r>    5.0593    1.0000 </r>
       <r>    5.6563    1.0000 </r>
       <r>    6.2270    1.0065 </r>
       <r>    7.1375   -0.0012 </r>
       <r>    7.3480   -0.0000 </r>
       <r>    7.5719   -0.0000 </r>
       <r>   13.4680    0.0000 </r>
       <r>   14.1847    0.0000 </r>
       <r>   19.2266    0.0000 </r>
       <r>   23.8749    0.0000 </r>
       <r>   24.9780    0.0000 </r>
       <r>   27.5094    0.0000 </r>
       <r>   29.4360    0.0000 </r>
       <r>   33.0529    0.0000 </r>
       <r>   34.3916    0.0000 </r>
       <r>   35.1213    0.0000 </r>
       <r>   38.6087    0.0000 </r>
       <r>   39.2338    0.0000 </r>
       <r>   42.1104    0.0000 </r>
       <r>   45.9759    0.0000 </r>
       <r>   48.6466    0.0000 </r>
       <r>   49.7039    0.0000 </r>
       <r>   49.7424    0.0000 </r>
       <r>   52.0710    0.0000 </r>
       <r>   54.0841    0.0000 </r>
       <r>   55.0807    0.0000 </r>
       <r>   57.1195    0.0000 </r>
       <r>   58.1112    0.0000 </r>
       <r>   58.7402    0.0000 </r>
       <r>   60.3830    0.0000 </r>
       <r>   62.3973    0.0000 </r>
       <r>   63.4213    0.0000 </r>
       <r>   63.6622    0.0000 </r>
       <r>   64.2103    0.0000 </r>
       <r>   65.4456    0.0000 </r>
      </set>
      <set comment="kpoint 10">
       <r>    2.2235    1.0000 </r>
       <r>    2.6349    1.0000 </r>
       <r>    2.7124    1.0000 </r>
       <r>    4.5572    1.0000 </r>
       <r>    4.8044    1.0000 </r>
       <r>    5.2007    1.0000 </r>
       <r>    5.3674    1.0000 </r>
       <r>    7.1477   -0.0010 </r>
       <r>    7.3239   -0.0000 </r>
       <r>    7.6463   -0.0000 </r>
       <r>    8.7383   -0.0000 </r>
       <r>   13.6367    0.0000 </r>
       <r>   15.6653    0.0000 </r>
       <r>   17.5453    0.0000 </r>
       <r>   21.9586    0.0000 </r>
       <r>   22.5227    0.0000 </r>
       <r>   24.2795    0.0000 </r>
       <r>   28.5813    0.0000 </r>
       <r>   32.1348    0.0000 </r>
       <r>   33.9122    0.0000 </r>
       <r>   36.7106    0.0000 </r>
       <r>   38.9827    0.0000 </r>
       <r>   39.7558    0.0000 </r>
       <r>   41.4392    0.0000 </r>
       <r>   46.0915    0.0000 </r>
       <r>   48.6061    0.0000 </r>
       <r>   49.9669    0.0000 </r>
       <r>   52.0493    0.0000 </r>
       <r>   53.4786    0.0000 </r>
       <r>   55.7027    0.0000 </r>
       <r>   57.0411    0.0000 </r>
       <r>   58.7913    0.0000 </r>
       <r>   59.7444    0.0000 </r>
       <r>   61.6146    0.0000 </r>
       <r>   61.8844    0.0000 </r>
       <r>   63.0229    0.0000 </r>
       <r>   63.4857    0.0000 </r>
       <r>   64.5372    0.0000 </r>
       <r>   65.3933    0.0000 </r>
       <r>   66.2771    0.0000 </r>
      </set>
      <set comment="kpoint 11">
       <r>    2.3984    1.0000 </r>
       <r>    2.5143    1.0000 </r>
       <r>    2.6110    1.0000 </r>
       <r>    4.7152    1.0000 </r>
       <r>    4.9636    1.0000 </r>
       <r>    5.2546    1.0000 </r>
       <r>    5.2894    1.0000 </r>
       <r>    7.3126   -0.0000 </r>
       <r>    7.6804   -0.0000 </r>
       <r>    7.7071   -0.0000 </r>
       <r>    9.9432   -0.0000 </r>
       <r>   12.0195   -0.0000 </r>
       <r>   17.1757    0.0000 </r>
       <r>   18.1654    0.0000 </r>
       <r>   20.1693    0.0000 </r>
       <r>   21.4974    0.0000 </r>
       <r>   22.9836    0.0000 </r>
       <r>   28.2757    0.0000 </r>
       <r>   31.7529    0.0000 </r>
       <r>   33.7545    0.0000 </r>
       <r>   37.0553    0.0000 </r>
       <r>   39.7670    0.0000 </r>
       <r>   40.3709    0.0000 </r>
       <r>   41.2966    0.0000 </r>
       <r>   43.8220    0.0000 </r>
       <r>   49.7781    0.0000 </r>
       <r>   49.9077    0.0000 </r>
       <r>   52.5265    0.0000 </r>
       <r>   55.9046    0.0000 </r>
       <r>   56.2667    0.0000 </r>
       <r>   59.3209    0.0000 </r>
       <r>   59.5480    0.0000 </r>
       <r>   60.1156    0.0000 </r>
       <r>   60.1729    0.0000 </r>
       <r>   60.8580    0.0000 </r>
       <r>   63.3103    0.0000 </r>
       <r>   65.3773    0.0000 </r>
       <r>   65.3995    0.0000 </r>
       <r>   65.7130    0.0000 </r>
       <r>   66.8086    0.0000 </r>
      </set>
      <set comment="kpoint 12">
       <r>    1.2476    1.0000 </r>
       <r>    3.1578    1.0000 </r>
       <r>    3.4517    1.0000 </r>
       <r>    3.6652    1.0000 </r>
       <r>    4.7946    1.0000 </r>
       <r>    5.0070    1.0000 </r>
       <r>    5.6971    1.0000 </r>
       <r>    5.7723    1.0000 </r>
       <r>    7.1090   -0.0022 </r>
       <r>    7.2457   -0.0001 </r>
       <r>    7.6402   -0.0000 </r>
       <r>   13.2121    0.0000 </r>
       <r>   14.2922    0.0000 </r>
       <r>   21.0093    0.0000 </r>
       <r>   21.7122    0.0000 </r>
       <r>   26.6088    0.0000 </r>
       <r>   27.8143    0.0000 </r>
       <r>   29.8226    0.0000 </r>
       <r>   30.3988    0.0000 </r>
       <r>   34.6001    0.0000 </r>
       <r>   36.7333    0.0000 </r>
       <r>   40.3195    0.0000 </r>
       <r>   40.9324    0.0000 </r>
       <r>   43.2303    0.0000 </r>
       <r>   44.0849    0.0000 </r>
       <r>   45.9577    0.0000 </r>
       <r>   46.8955    0.0000 </r>
       <r>   51.0847    0.0000 </r>
       <r>   52.8315    0.0000 </r>
       <r>   53.4359    0.0000 </r>
       <r>   53.7081    0.0000 </r>
       <r>   57.5664    0.0000 </r>
       <r>   57.9997    0.0000 </r>
       <r>   60.6416    0.0000 </r>
       <r>   60.9385    0.0000 </r>
       <r>   61.1387    0.0000 </r>
       <r>   61.2362    0.0000 </r>
       <r>   64.3825    0.0000 </r>
       <r>   64.6684    0.0000 </r>
       <r>   66.0074    0.0000 </r>
      </set>
      <set comment="kpoint 13">
       <r>    2.4615    1.0000 </r>
       <r>    2.9130    1.0000 </r>
       <r>    3.1733    1.0000 </r>
       <r>    3.8720    1.0000 </r>
       <r>    4.7424    1.0000 </r>
       <r>    5.0737    1.0000 </r>
       <r>    5.3791    1.0000 </r>
       <r>    6.2629    1.0114 </r>
       <r>    7.1412   -0.0011 </r>
       <r>    7.5702   -0.0000 </r>
       <r>    8.8947   -0.0000 </r>
       <r>   14.9878    0.0000 </r>
       <r>   15.3330    0.0000 </r>
       <r>   18.0259    0.0000 </r>
       <r>   20.1236    0.0000 </r>
       <r>   23.8739    0.0000 </r>
       <r>   26.2851    0.0000 </r>
       <r>   26.2951    0.0000 </r>
       <r>   29.1119    0.0000 </r>
       <r>   36.8125    0.0000 </r>
       <r>   37.2303    0.0000 </r>
       <r>   40.2673    0.0000 </r>
       <r>   42.6625    0.0000 </r>
       <r>   44.0861    0.0000 </r>
       <r>   44.7919    0.0000 </r>
       <r>   46.9693    0.0000 </r>
       <r>   48.0665    0.0000 </r>
       <r>   49.0312    0.0000 </r>
       <r>   52.3492    0.0000 </r>
       <r>   53.2621    0.0000 </r>
       <r>   55.9551    0.0000 </r>
       <r>   59.0234    0.0000 </r>
       <r>   60.1819    0.0000 </r>
       <r>   61.3336    0.0000 </r>
       <r>   63.4076    0.0000 </r>
       <r>   63.5351    0.0000 </r>
       <r>   64.3333    0.0000 </r>
       <r>   64.7236    0.0000 </r>
       <r>   65.9077    0.0000 </r>
       <r>   66.9794    0.0000 </r>
      </set>
      <set comment="kpoint 14">
       <r>    2.8127    1.0000 </r>
       <r>    2.8731    1.0000 </r>
       <r>    2.9753    1.0000 </r>
       <r>    4.3602    1.0000 </r>
       <r>    4.6942    1.0000 </r>
       <r>    5.0188    1.0000 </r>
       <r>    5.3442    1.0000 </r>
       <r>    6.9657   -0.0217 </r>
       <r>    7.0819   -0.0038 </r>
       <r>    7.5528   -0.0000 </r>
       <r>   10.4799   -0.0000 </r>
       <r>   13.4500    0.0000 </r>
       <r>   17.5289    0.0000 </r>
       <r>   18.2120    0.0000 </r>
       <r>   19.2494    0.0000 </r>
       <r>   21.1840    0.0000 </r>
       <r>   23.3304    0.0000 </r>
       <r>   25.7168    0.0000 </r>
       <r>   28.4724    0.0000 </r>
       <r>   37.2700    0.0000 </r>
       <r>   39.0175    0.0000 </r>
       <r>   40.5444    0.0000 </r>
       <r>   41.9569    0.0000 </r>
       <r>   42.9834    0.0000 </r>
       <r>   46.3946    0.0000 </r>
       <r>   47.3004    0.0000 </r>
       <r>   48.8762    0.0000 </r>
       <r>   49.8152    0.0000 </r>
       <r>   53.2288    0.0000 </r>
       <r>   54.7406    0.0000 </r>
       <r>   55.5913    0.0000 </r>
       <r>   58.8891    0.0000 </r>
       <r>   59.4496    0.0000 </r>
       <r>   60.4710    0.0000 </r>
       <r>   64.2061    0.0000 </r>
       <r>   64.8263    0.0000 </r>
       <r>   65.7540    0.0000 </r>
       <r>   66.0646    0.0000 </r>
       <r>   66.3173    0.0000 </r>
       <r>   66.4562    0.0000 </r>
      </set>
      <set comment="kpoint 15">
       <r>    2.9525    1.0000 </r>
       <r>    3.2591    1.0000 </r>
       <r>    3.5537    1.0000 </r>
       <r>    3.6105    1.0000 </r>
       <r>    4.5891    1.0000 </r>
       <r>    4.9769    1.0000 </r>
       <r>    5.3704    1.0000 </r>
       <r>    6.5203    0.9184 </r>
       <r>    6.9609   -0.0228 </r>
       <r>    7.5143   -0.0000 </r>
       <r>   10.6115   -0.0000 </r>
       <r>   15.5222    0.0000 </r>
       <r>   16.1746    0.0000 </r>
       <r>   17.5558    0.0000 </r>
       <r>   18.8341    0.0000 </r>
       <r>   23.1892    0.0000 </r>
       <r>   23.2651    0.0000 </r>
       <r>   25.0740    0.0000 </r>
       <r>   25.9029    0.0000 </r>
       <r>   38.5819    0.0000 </r>
       <r>   39.3353    0.0000 </r>
       <r>   43.2434    0.0000 </r>
       <r>   44.2627    0.0000 </r>
       <r>   44.4341    0.0000 </r>
       <r>   44.5503    0.0000 </r>
       <r>   45.4531    0.0000 </r>
       <r>   47.7182    0.0000 </r>
       <r>   50.1333    0.0000 </r>
       <r>   50.4147    0.0000 </r>
       <r>   54.7986    0.0000 </r>
       <r>   54.8883    0.0000 </r>
       <r>   57.2155    0.0000 </r>
       <r>   59.3180    0.0000 </r>
       <r>   60.6558    0.0000 </r>
       <r>   64.5497    0.0000 </r>
       <r>   65.2350    0.0000 </r>
       <r>   65.4399    0.0000 </r>
       <r>   66.4870    0.0000 </r>
       <r>   66.5930    0.0000 </r>
       <r>   67.4271    0.0000 </r>
      </set>
      <set comment="kpoint 16">
       <r>    3.0046    1.0000 </r>
       <r>    3.4003    1.0000 </r>
       <r>    3.4505    1.0000 </r>
       <r>    3.9362    1.0000 </r>
       <r>    4.6580    1.0000 </r>
       <r>    4.6663    1.0000 </r>
       <r>    5.5095    1.0000 </r>
       <r>    6.8903   -0.0353 </r>
       <r>    6.8917   -0.0353 </r>
       <r>    7.1924   -0.0003 </r>
       <r>   12.3852    0.0000 </r>
       <r>   13.6090    0.0000 </r>
       <r>   15.7904    0.0000 </r>
       <r>   19.5028    0.0000 </r>
       <r>   19.8060    0.0000 </r>
       <r>   20.9884    0.0000 </r>
       <r>   23.0281    0.0000 </r>
       <r>   23.3539    0.0000 </r>
       <r>   25.3098    0.0000 </r>
       <r>   38.9798    0.0000 </r>
       <r>   41.8400    0.0000 </r>
       <r>   42.5410    0.0000 </r>
       <r>   43.3810    0.0000 </r>
       <r>   43.8425    0.0000 </r>
       <r>   45.4531    0.0000 </r>
       <r>   46.3551    0.0000 </r>
       <r>   49.4951    0.0000 </r>
       <r>   50.0396    0.0000 </r>
       <r>   50.2834    0.0000 </r>
       <r>   53.7203    0.0000 </r>
       <r>   54.9895    0.0000 </r>
       <r>   55.5009    0.0000 </r>
       <r>   58.8171    0.0000 </r>
       <r>   59.3996    0.0000 </r>
       <r>   64.8882    0.0000 </r>
       <r>   65.6862    0.0000 </r>
       <r>   66.6481    0.0000 </r>
       <r>   66.7796    0.0000 </r>
       <r>   66.9858    0.0000 </r>
       <r>   67.3070    0.0000 </r>
      </set>
      <set comment="kpoint 17">
       <r>   -2.0488    1.0000 </r>
       <r>    1.6816    1.0000 </r>
       <r>    4.3787    1.0000 </r>
       <r>    5.1181    1.0000 </r>
       <r>    5.1182    1.0000 </r>
       <r>    5.3809    1.0000 </r>
       <r>    5.3811    1.0000 </r>
       <r>    5.5624    1.0000 </r>
       <r>    6.4424    1.0237 </r>
       <r>    6.4424    1.0236 </r>
       <r>    7.3500   -0.0000 </r>
       <r>    7.3500   -0.0000 </r>
       <r>   13.7977    0.0000 </r>
       <r>   28.5271    0.0000 </r>
       <r>   30.2269    0.0000 </r>
       <r>   32.7596    0.0000 </r>
       <r>   35.2324    0.0000 </r>
       <r>   35.2325    0.0000 </r>
       <r>   36.0013    0.0000 </r>
       <r>   36.0015    0.0000 </r>
       <r>   36.2646    0.0000 </r>
       <r>   38.6948    0.0000 </r>
       <r>   38.6948    0.0000 </r>
       <r>   39.9865    0.0000 </r>
       <r>   41.8085    0.0000 </r>
       <r>   41.8085    0.0000 </r>
       <r>   42.6468    0.0000 </r>
       <r>   46.0052    0.0000 </r>
       <r>   46.0056    0.0000 </r>
       <r>   47.9528    0.0000 </r>
       <r>   47.9529    0.0000 </r>
       <r>   49.5843    0.0000 </r>
       <r>   56.6799    0.0000 </r>
       <r>   60.5507    0.0000 </r>
       <r>   60.5515    0.0000 </r>
       <r>   60.7252    0.0000 </r>
       <r>   60.7255    0.0000 </r>
       <r>   61.0833    0.0000 </r>
       <r>   62.1006    0.0000 </r>
       <r>   62.4490    0.0000 </r>
      </set>
      <set comment="kpoint 18">
       <r>   -1.7219    1.0000 </r>
       <r>    1.9358    1.0000 </r>
       <r>    4.4287    1.0000 </r>
       <r>    4.8801    1.0000 </r>
       <r>    5.0156    1.0000 </r>
       <r>    5.3019    1.0000 </r>
       <r>    5.3033    1.0000 </r>
       <r>    5.5562    1.0000 </r>
       <r>    6.2914    1.0168 </r>
       <r>    6.3422    1.0282 </r>
       <r>    7.3724   -0.0000 </r>
       <r>    8.2294   -0.0000 </r>
       <r>   13.8609    0.0000 </r>
       <r>   28.6211    0.0000 </r>
       <r>   29.1200    0.0000 </r>
       <r>   31.2402    0.0000 </r>
       <r>   32.4846    0.0000 </r>
       <r>   34.0478    0.0000 </r>
       <r>   35.3043    0.0000 </r>
       <r>   36.0834    0.0000 </r>
       <r>   37.8003    0.0000 </r>
       <r>   38.6726    0.0000 </r>
       <r>   38.9990    0.0000 </r>
       <r>   39.7635    0.0000 </r>
       <r>   43.0001    0.0000 </r>
       <r>   43.0081    0.0000 </r>
       <r>   43.9602    0.0000 </r>
       <r>   44.2461    0.0000 </r>
       <r>   46.9151    0.0000 </r>
       <r>   49.0918    0.0000 </r>
       <r>   50.3052    0.0000 </r>
       <r>   51.7758    0.0000 </r>
       <r>   55.5971    0.0000 </r>
       <r>   58.6876    0.0000 </r>
       <r>   59.2660    0.0000 </r>
       <r>   59.9606    0.0000 </r>
       <r>   60.8414    0.0000 </r>
       <r>   62.1367    0.0000 </r>
       <r>   62.2781    0.0000 </r>
       <r>   63.7275    0.0000 </r>
      </set>
      <set comment="kpoint 19">
       <r>   -0.7970    1.0000 </r>
       <r>    2.5434    1.0000 </r>
       <r>    3.9763    1.0000 </r>
       <r>    4.3517    1.0000 </r>
       <r>    4.8002    1.0000 </r>
       <r>    5.3019    1.0000 </r>
       <r>    5.8053    1.0000 </r>
       <r>    5.9714    1.0000 </r>
       <r>    6.0207    1.0001 </r>
       <r>    6.1508    1.0015 </r>
       <r>    7.4079   -0.0000 </r>
       <r>    9.7688   -0.0000 </r>
       <r>   14.1066    0.0000 </r>
       <r>   24.9781    0.0000 </r>
       <r>   29.2541    0.0000 </r>
       <r>   29.7201    0.0000 </r>
       <r>   30.2225    0.0000 </r>
       <r>   30.6808    0.0000 </r>
       <r>   34.4873    0.0000 </r>
       <r>   36.1374    0.0000 </r>
       <r>   36.5577    0.0000 </r>
       <r>   36.6118    0.0000 </r>
       <r>   40.0897    0.0000 </r>
       <r>   40.7746    0.0000 </r>
       <r>   43.5865    0.0000 </r>
       <r>   44.5671    0.0000 </r>
       <r>   45.8972    0.0000 </r>
       <r>   48.2242    0.0000 </r>
       <r>   49.4949    0.0000 </r>
       <r>   52.4048    0.0000 </r>
       <r>   53.1993    0.0000 </r>
       <r>   53.9682    0.0000 </r>
       <r>   55.1367    0.0000 </r>
       <r>   56.9908    0.0000 </r>
       <r>   57.2980    0.0000 </r>
       <r>   59.1597    0.0000 </r>
       <r>   60.8247    0.0000 </r>
       <r>   62.8590    0.0000 </r>
       <r>   63.1281    0.0000 </r>
       <r>   65.3479    0.0000 </r>
      </set>
      <set comment="kpoint 20">
       <r>    0.5137    1.0000 </r>
       <r>    2.8544    1.0000 </r>
       <r>    3.2795    1.0000 </r>
       <r>    4.3222    1.0000 </r>
       <r>    4.6089    1.0000 </r>
       <r>    5.4153    1.0000 </r>
       <r>    5.7895    1.0000 </r>
       <r>    6.1219    1.0008 </r>
       <r>    6.5957    0.6812 </r>
       <r>    6.7382    0.1338 </r>
       <r>    7.4206   -0.0000 </r>
       <r>   11.4071   -0.0000 </r>
       <r>   14.6754    0.0000 </r>
       <r>   20.9532    0.0000 </r>
       <r>   26.1172    0.0000 </r>
       <r>   27.3442    0.0000 </r>
       <r>   28.4761    0.0000 </r>
       <r>   30.7647    0.0000 </r>
       <r>   32.8456    0.0000 </r>
       <r>   34.8729    0.0000 </r>
       <r>   35.3571    0.0000 </r>
       <r>   37.4529    0.0000 </r>
       <r>   38.2413    0.0000 </r>
       <r>   41.1729    0.0000 </r>
       <r>   47.1415    0.0000 </r>
       <r>   47.8252    0.0000 </r>
       <r>   48.9530    0.0000 </r>
       <r>   49.2368    0.0000 </r>
       <r>   52.3457    0.0000 </r>
       <r>   52.9635    0.0000 </r>
       <r>   54.2505    0.0000 </r>
       <r>   55.5840    0.0000 </r>
       <r>   56.3205    0.0000 </r>
       <r>   57.3140    0.0000 </r>
       <r>   59.1285    0.0000 </r>
       <r>   60.1932    0.0000 </r>
       <r>   62.4579    0.0000 </r>
       <r>   62.8341    0.0000 </r>
       <r>   63.7407    0.0000 </r>
       <r>   66.0462    0.0000 </r>
      </set>
      <set comment="kpoint 21">
       <r>    1.6704    1.0000 </r>
       <r>    2.5755    1.0000 </r>
       <r>    2.8858    1.0000 </r>
       <r>    4.2473    1.0000 </r>
       <r>    5.0713    1.0000 </r>
       <r>    5.2638    1.0000 </r>
       <r>    5.5637    1.0000 </r>
       <r>    7.2501   -0.0001 </r>
       <r>    7.3203   -0.0000 </r>
       <r>    7.3559   -0.0000 </r>
       <r>    7.4970   -0.0000 </r>
       <r>   12.7544    0.0000 </r>
       <r>   15.4687    0.0000 </r>
       <r>   17.9713    0.0000 </r>
       <r>   22.8273    0.0000 </r>
       <r>   25.5407    0.0000 </r>
       <r>   25.6186    0.0000 </r>
       <r>   30.3217    0.0000 </r>
       <r>   31.9725    0.0000 </r>
       <r>   34.0595    0.0000 </r>
       <r>   35.6285    0.0000 </r>
       <r>   37.0650    0.0000 </r>
       <r>   38.6769    0.0000 </r>
       <r>   41.3048    0.0000 </r>
       <r>   46.2726    0.0000 </r>
       <r>   50.1850    0.0000 </r>
       <r>   50.4489    0.0000 </r>
       <r>   52.6425    0.0000 </r>
       <r>   53.0048    0.0000 </r>
       <r>   55.0588    0.0000 </r>
       <r>   55.5764    0.0000 </r>
       <r>   57.1678    0.0000 </r>
       <r>   58.1004    0.0000 </r>
       <r>   59.0626    0.0000 </r>
       <r>   61.3646    0.0000 </r>
       <r>   62.6739    0.0000 </r>
       <r>   62.7272    0.0000 </r>
       <r>   63.2779    0.0000 </r>
       <r>   66.1130    0.0000 </r>
       <r>   66.2520    0.0000 </r>
      </set>
      <set comment="kpoint 22">
       <r>    2.1005    1.0000 </r>
       <r>    2.2947    1.0000 </r>
       <r>    2.7617    1.0000 </r>
       <r>    4.3089    1.0000 </r>
       <r>    5.2346    1.0000 </r>
       <r>    5.4337    1.0000 </r>
       <r>    5.5978    1.0000 </r>
       <r>    7.3736   -0.0000 </r>
       <r>    7.8090   -0.0000 </r>
       <r>    7.9017   -0.0000 </r>
       <r>    8.8522   -0.0000 </r>
       <r>   12.0956   -0.0000 </r>
       <r>   16.2265    0.0000 </r>
       <r>   17.7870    0.0000 </r>
       <r>   20.6473    0.0000 </r>
       <r>   22.8246    0.0000 </r>
       <r>   24.5386    0.0000 </r>
       <r>   29.7900    0.0000 </r>
       <r>   31.6972    0.0000 </r>
       <r>   33.1980    0.0000 </r>
       <r>   36.5838    0.0000 </r>
       <r>   37.2588    0.0000 </r>
       <r>   38.8376    0.0000 </r>
       <r>   41.8334    0.0000 </r>
       <r>   44.0592    0.0000 </r>
       <r>   50.1060    0.0000 </r>
       <r>   50.7854    0.0000 </r>
       <r>   54.0015    0.0000 </r>
       <r>   56.0290    0.0000 </r>
       <r>   57.1878    0.0000 </r>
       <r>   58.2514    0.0000 </r>
       <r>   59.4405    0.0000 </r>
       <r>   59.5411    0.0000 </r>
       <r>   60.8742    0.0000 </r>
       <r>   61.9693    0.0000 </r>
       <r>   62.3027    0.0000 </r>
       <r>   64.3140    0.0000 </r>
       <r>   65.2806    0.0000 </r>
       <r>   65.3749    0.0000 </r>
       <r>   65.9078    0.0000 </r>
      </set>
      <set comment="kpoint 23">
       <r>   -1.0934    1.0000 </r>
       <r>    2.3853    1.0000 </r>
       <r>    4.2132    1.0000 </r>
       <r>    4.3708    1.0000 </r>
       <r>    4.9760    1.0000 </r>
       <r>    5.0788    1.0000 </r>
       <r>    5.6768    1.0000 </r>
       <r>    5.8798    1.0000 </r>
       <r>    6.0158    1.0000 </r>
       <r>    6.2927    1.0171 </r>
       <r>    7.3702   -0.0000 </r>
       <r>    9.3449   -0.0000 </r>
       <r>   14.0184    0.0000 </r>
       <r>   26.7348    0.0000 </r>
       <r>   27.9360    0.0000 </r>
       <r>   29.5460    0.0000 </r>
       <r>   31.5296    0.0000 </r>
       <r>   33.5932    0.0000 </r>
       <r>   34.1018    0.0000 </r>
       <r>   34.1292    0.0000 </r>
       <r>   36.1378    0.0000 </r>
       <r>   40.3023    0.0000 </r>
       <r>   40.5735    0.0000 </r>
       <r>   41.5100    0.0000 </r>
       <r>   41.5917    0.0000 </r>
       <r>   42.9957    0.0000 </r>
       <r>   43.4062    0.0000 </r>
       <r>   48.7013    0.0000 </r>
       <r>   50.1087    0.0000 </r>
       <r>   51.0108    0.0000 </r>
       <r>   51.2725    0.0000 </r>
       <r>   54.2960    0.0000 </r>
       <r>   54.6102    0.0000 </r>
       <r>   56.9819    0.0000 </r>
       <r>   58.2052    0.0000 </r>
       <r>   59.7107    0.0000 </r>
       <r>   60.1641    0.0000 </r>
       <r>   62.1769    0.0000 </r>
       <r>   63.4503    0.0000 </r>
       <r>   65.4178    0.0000 </r>
      </set>
      <set comment="kpoint 24">
       <r>    0.0498    1.0000 </r>
       <r>    2.9743    1.0000 </r>
       <r>    3.5193    1.0000 </r>
       <r>    4.1188    1.0000 </r>
       <r>    4.7235    1.0000 </r>
       <r>    5.2438    1.0000 </r>
       <r>    5.6926    1.0000 </r>
       <r>    5.9771    1.0000 </r>
       <r>    6.4349    1.0274 </r>
       <r>    6.6404    0.4968 </r>
       <r>    7.3557   -0.0000 </r>
       <r>   10.8661   -0.0000 </r>
       <r>   14.4612    0.0000 </r>
       <r>   23.0218    0.0000 </r>
       <r>   25.6211    0.0000 </r>
       <r>   28.0823    0.0000 </r>
       <r>   29.9369    0.0000 </r>
       <r>   31.3401    0.0000 </r>
       <r>   32.6348    0.0000 </r>
       <r>   34.4142    0.0000 </r>
       <r>   35.5212    0.0000 </r>
       <r>   39.3468    0.0000 </r>
       <r>   39.8363    0.0000 </r>
       <r>   41.5919    0.0000 </r>
       <r>   44.0213    0.0000 </r>
       <r>   44.9856    0.0000 </r>
       <r>   47.3245    0.0000 </r>
       <r>   49.8938    0.0000 </r>
       <r>   52.2948    0.0000 </r>
       <r>   52.9751    0.0000 </r>
       <r>   54.2455    0.0000 </r>
       <r>   55.6014    0.0000 </r>
       <r>   55.8628    0.0000 </r>
       <r>   57.3718    0.0000 </r>
       <r>   57.5904    0.0000 </r>
       <r>   59.1071    0.0000 </r>
       <r>   61.3318    0.0000 </r>
       <r>   63.0024    0.0000 </r>
       <r>   63.9846    0.0000 </r>
       <r>   65.3876    0.0000 </r>
      </set>
      <set comment="kpoint 25">
       <r>    1.3757    1.0000 </r>
       <r>    2.9053    1.0000 </r>
       <r>    3.0633    1.0000 </r>
       <r>    4.1519    1.0000 </r>
       <r>    4.7655    1.0000 </r>
       <r>    5.1547    1.0000 </r>
       <r>    5.6638    1.0000 </r>
       <r>    6.2434    1.0085 </r>
       <r>    7.1521   -0.0009 </r>
       <r>    7.2724   -0.0000 </r>
       <r>    7.6057   -0.0000 </r>
       <r>   12.4300    0.0000 </r>
       <r>   15.3271    0.0000 </r>
       <r>   19.2906    0.0000 </r>
       <r>   23.8955    0.0000 </r>
       <r>   24.6755    0.0000 </r>
       <r>   27.8560    0.0000 </r>
       <r>   29.1981    0.0000 </r>
       <r>   33.1709    0.0000 </r>
       <r>   33.7840    0.0000 </r>
       <r>   35.0021    0.0000 </r>
       <r>   38.7370    0.0000 </r>
       <r>   39.7815    0.0000 </r>
       <r>   42.6099    0.0000 </r>
       <r>   45.6421    0.0000 </r>
       <r>   47.3916    0.0000 </r>
       <r>   49.3053    0.0000 </r>
       <r>   51.1237    0.0000 </r>
       <r>   52.3535    0.0000 </r>
       <r>   53.5434    0.0000 </r>
       <r>   55.4952    0.0000 </r>
       <r>   57.1183    0.0000 </r>
       <r>   57.8561    0.0000 </r>
       <r>   59.0305    0.0000 </r>
       <r>   60.5779    0.0000 </r>
       <r>   62.0631    0.0000 </r>
       <r>   62.8847    0.0000 </r>
       <r>   63.7608    0.0000 </r>
       <r>   64.4040    0.0000 </r>
       <r>   65.4469    0.0000 </r>
      </set>
      <set comment="kpoint 26">
       <r>    2.1667    1.0000 </r>
       <r>    2.5732    1.0000 </r>
       <r>    2.8766    1.0000 </r>
       <r>    4.2330    1.0000 </r>
       <r>    5.1383    1.0000 </r>
       <r>    5.1792    1.0000 </r>
       <r>    5.4590    1.0000 </r>
       <r>    7.1346   -0.0013 </r>
       <r>    7.2673   -0.0000 </r>
       <r>    7.6576   -0.0000 </r>
       <r>    8.7224   -0.0000 </r>
       <r>   13.1507    0.0000 </r>
       <r>   15.9242    0.0000 </r>
       <r>   17.8168    0.0000 </r>
       <r>   21.5712    0.0000 </r>
       <r>   22.7719    0.0000 </r>
       <r>   24.6638    0.0000 </r>
       <r>   28.3405    0.0000 </r>
       <r>   32.3767    0.0000 </r>
       <r>   33.8174    0.0000 </r>
       <r>   35.8661    0.0000 </r>
       <r>   38.2985    0.0000 </r>
       <r>   40.7811    0.0000 </r>
       <r>   41.9210    0.0000 </r>
       <r>   45.6029    0.0000 </r>
       <r>   48.4592    0.0000 </r>
       <r>   50.1170    0.0000 </r>
       <r>   52.2795    0.0000 </r>
       <r>   54.0897    0.0000 </r>
       <r>   55.3933    0.0000 </r>
       <r>   56.9084    0.0000 </r>
       <r>   58.6061    0.0000 </r>
       <r>   59.7483    0.0000 </r>
       <r>   61.3877    0.0000 </r>
       <r>   62.4079    0.0000 </r>
       <r>   63.0305    0.0000 </r>
       <r>   63.4862    0.0000 </r>
       <r>   64.2526    0.0000 </r>
       <r>   65.5267    0.0000 </r>
       <r>   66.4315    0.0000 </r>
      </set>
      <set comment="kpoint 27">
       <r>    2.3070    1.0000 </r>
       <r>    2.4100    1.0000 </r>
       <r>    2.8649    1.0000 </r>
       <r>    4.2954    1.0000 </r>
       <r>    5.1436    1.0000 </r>
       <r>    5.4204    1.0000 </r>
       <r>    5.4482    1.0000 </r>
       <r>    7.2568   -0.0001 </r>
       <r>    7.6760   -0.0000 </r>
       <r>    7.7070   -0.0000 </r>
       <r>    9.8858   -0.0000 </r>
       <r>   11.9427   -0.0000 </r>
       <r>   17.0241    0.0000 </r>
       <r>   17.7861    0.0000 </r>
       <r>   20.7004    0.0000 </r>
       <r>   21.7399    0.0000 </r>
       <r>   23.1649    0.0000 </r>
       <r>   28.0383    0.0000 </r>
       <r>   31.9850    0.0000 </r>
       <r>   33.7217    0.0000 </r>
       <r>   36.6565    0.0000 </r>
       <r>   38.1444    0.0000 </r>
       <r>   40.5920    0.0000 </r>
       <r>   43.0920    0.0000 </r>
       <r>   43.6061    0.0000 </r>
       <r>   48.9222    0.0000 </r>
       <r>   50.4013    0.0000 </r>
       <r>   53.2165    0.0000 </r>
       <r>   55.9599    0.0000 </r>
       <r>   56.2711    0.0000 </r>
       <r>   58.8407    0.0000 </r>
       <r>   59.0281    0.0000 </r>
       <r>   59.8822    0.0000 </r>
       <r>   60.6312    0.0000 </r>
       <r>   61.0707    0.0000 </r>
       <r>   64.0300    0.0000 </r>
       <r>   65.1719    0.0000 </r>
       <r>   65.4540    0.0000 </r>
       <r>   65.9125    0.0000 </r>
       <r>   66.4826    0.0000 </r>
      </set>
      <set comment="kpoint 28">
       <r>    1.2850    1.0000 </r>
       <r>    3.1149    1.0000 </r>
       <r>    3.4796    1.0000 </r>
       <r>    3.6827    1.0000 </r>
       <r>    4.7925    1.0000 </r>
       <r>    4.9533    1.0000 </r>
       <r>    5.7518    1.0000 </r>
       <r>    5.7867    1.0000 </r>
       <r>    7.1422   -0.0011 </r>
       <r>    7.1718   -0.0005 </r>
       <r>    7.6740   -0.0000 </r>
       <r>   12.3137    0.0000 </r>
       <r>   15.3110    0.0000 </r>
       <r>   21.0745    0.0000 </r>
       <r>   21.7878    0.0000 </r>
       <r>   26.2831    0.0000 </r>
       <r>   27.4067    0.0000 </r>
       <r>   30.2686    0.0000 </r>
       <r>   30.6409    0.0000 </r>
       <r>   33.7001    0.0000 </r>
       <r>   37.3430    0.0000 </r>
       <r>   40.8948    0.0000 </r>
       <r>   40.9326    0.0000 </r>
       <r>   42.9895    0.0000 </r>
       <r>   43.4304    0.0000 </r>
       <r>   46.6354    0.0000 </r>
       <r>   46.7559    0.0000 </r>
       <r>   50.9699    0.0000 </r>
       <r>   51.6936    0.0000 </r>
       <r>   53.3643    0.0000 </r>
       <r>   55.4716    0.0000 </r>
       <r>   57.6733    0.0000 </r>
       <r>   58.0009    0.0000 </r>
       <r>   59.8593    0.0000 </r>
       <r>   60.3466    0.0000 </r>
       <r>   61.8445    0.0000 </r>
       <r>   61.8894    0.0000 </r>
       <r>   63.7877    0.0000 </r>
       <r>   64.5179    0.0000 </r>
       <r>   64.6228    0.0000 </r>
      </set>
      <set comment="kpoint 29">
       <r>    2.4415    1.0000 </r>
       <r>    2.9204    1.0000 </r>
       <r>    3.1974    1.0000 </r>
       <r>    3.8730    1.0000 </r>
       <r>    4.7585    1.0000 </r>
       <r>    5.0667    1.0000 </r>
       <r>    5.3999    1.0000 </r>
       <r>    6.2924    1.0170 </r>
       <r>    7.0804   -0.0039 </r>
       <r>    7.5960   -0.0000 </r>
       <r>    8.9092   -0.0000 </r>
       <r>   13.8531    0.0000 </r>
       <r>   16.4854    0.0000 </r>
       <r>   18.1545    0.0000 </r>
       <r>   20.1915    0.0000 </r>
       <r>   23.4873    0.0000 </r>
       <r>   25.8940    0.0000 </r>
       <r>   26.7849    0.0000 </r>
       <r>   29.5641    0.0000 </r>
       <r>   35.2897    0.0000 </r>
       <r>   38.0391    0.0000 </r>
       <r>   40.7072    0.0000 </r>
       <r>   42.2430    0.0000 </r>
       <r>   44.1985    0.0000 </r>
       <r>   44.8314    0.0000 </r>
       <r>   46.0469    0.0000 </r>
       <r>   49.0589    0.0000 </r>
       <r>   49.1982    0.0000 </r>
       <r>   51.9247    0.0000 </r>
       <r>   54.1126    0.0000 </r>
       <r>   56.1481    0.0000 </r>
       <r>   59.0586    0.0000 </r>
       <r>   60.1037    0.0000 </r>
       <r>   61.2711    0.0000 </r>
       <r>   63.1348    0.0000 </r>
       <r>   63.6421    0.0000 </r>
       <r>   63.7497    0.0000 </r>
       <r>   64.8568    0.0000 </r>
       <r>   65.4708    0.0000 </r>
       <r>   66.1444    0.0000 </r>
      </set>
      <set comment="kpoint 30">
       <r>    2.6664    1.0000 </r>
       <r>    2.9072    1.0000 </r>
       <r>    3.1511    1.0000 </r>
       <r>    4.1389    1.0000 </r>
       <r>    4.8527    1.0000 </r>
       <r>    4.9778    1.0000 </r>
       <r>    5.4536    1.0000 </r>
       <r>    6.9718   -0.0203 </r>
       <r>    7.0183   -0.0111 </r>
       <r>    7.5687   -0.0000 </r>
       <r>   10.4947   -0.0000 </r>
       <r>   13.3524    0.0000 </r>
       <r>   17.0358    0.0000 </r>
       <r>   18.6506    0.0000 </r>
       <r>   19.1996    0.0000 </r>
       <r>   21.2766    0.0000 </r>
       <r>   23.7637    0.0000 </r>
       <r>   25.3152    0.0000 </r>
       <r>   28.9786    0.0000 </r>
       <r>   36.6513    0.0000 </r>
       <r>   38.3703    0.0000 </r>
       <r>   39.8550    0.0000 </r>
       <r>   42.7862    0.0000 </r>
       <r>   43.7375    0.0000 </r>
       <r>   46.1696    0.0000 </r>
       <r>   46.3527    0.0000 </r>
       <r>   49.4363    0.0000 </r>
       <r>   50.7793    0.0000 </r>
       <r>   53.5610    0.0000 </r>
       <r>   54.5360    0.0000 </r>
       <r>   55.6978    0.0000 </r>
       <r>   58.9164    0.0000 </r>
       <r>   59.1586    0.0000 </r>
       <r>   60.7893    0.0000 </r>
       <r>   63.2876    0.0000 </r>
       <r>   64.7803    0.0000 </r>
       <r>   65.4536    0.0000 </r>
       <r>   66.0259    0.0000 </r>
       <r>   66.3391    0.0000 </r>
       <r>   66.6426    0.0000 </r>
      </set>
      <set comment="kpoint 31">
       <r>    2.9426    1.0000 </r>
       <r>    3.2656    1.0000 </r>
       <r>    3.5168    1.0000 </r>
       <r>    3.6598    1.0000 </r>
       <r>    4.6359    1.0000 </r>
       <r>    4.9043    1.0000 </r>
       <r>    5.4019    1.0000 </r>
       <r>    6.5584    0.8143 </r>
       <r>    6.8958   -0.0350 </r>
       <r>    7.5374   -0.0000 </r>
       <r>   10.6459   -0.0000 </r>
       <r>   15.1431    0.0000 </r>
       <r>   16.2438    0.0000 </r>
       <r>   17.5648    0.0000 </r>
       <r>   19.2470    0.0000 </r>
       <r>   22.7666    0.0000 </r>
       <r>   22.8873    0.0000 </r>
       <r>   25.6828    0.0000 </r>
       <r>   26.4062    0.0000 </r>
       <r>   37.0095    0.0000 </r>
       <r>   40.1912    0.0000 </r>
       <r>   42.5872    0.0000 </r>
       <r>   42.8557    0.0000 </r>
       <r>   44.8488    0.0000 </r>
       <r>   45.1105    0.0000 </r>
       <r>   46.3922    0.0000 </r>
       <r>   48.5568    0.0000 </r>
       <r>   50.0339    0.0000 </r>
       <r>   50.3367    0.0000 </r>
       <r>   54.9804    0.0000 </r>
       <r>   55.1854    0.0000 </r>
       <r>   57.3863    0.0000 </r>
       <r>   58.9698    0.0000 </r>
       <r>   60.9543    0.0000 </r>
       <r>   64.5329    0.0000 </r>
       <r>   65.0584    0.0000 </r>
       <r>   65.3178    0.0000 </r>
       <r>   66.4782    0.0000 </r>
       <r>   66.7579    0.0000 </r>
       <r>   67.0542    0.0000 </r>
      </set>
      <set comment="kpoint 32">
       <r>    2.9997    1.0000 </r>
       <r>    3.4190    1.0000 </r>
       <r>    3.4929    1.0000 </r>
       <r>    3.8857    1.0000 </r>
       <r>    4.6270    1.0000 </r>
       <r>    4.6802    1.0000 </r>
       <r>    5.5298    1.0000 </r>
       <r>    6.8250   -0.0158 </r>
       <r>    6.9180   -0.0321 </r>
       <r>    7.2199   -0.0002 </r>
       <r>   12.4510    0.0000 </r>
       <r>   13.6049    0.0000 </r>
       <r>   15.7978    0.0000 </r>
       <r>   19.1932    0.0000 </r>
       <r>   19.2800    0.0000 </r>
       <r>   21.4232    0.0000 </r>
       <r>   22.8857    0.0000 </r>
       <r>   23.7710    0.0000 </r>
       <r>   25.8657    0.0000 </r>
       <r>   37.9836    0.0000 </r>
       <r>   40.5158    0.0000 </r>
       <r>   42.4182    0.0000 </r>
       <r>   43.0409    0.0000 </r>
       <r>   45.0984    0.0000 </r>
       <r>   45.7045    0.0000 </r>
       <r>   47.5316    0.0000 </r>
       <r>   49.2036    0.0000 </r>
       <r>   50.2819    0.0000 </r>
       <r>   50.6091    0.0000 </r>
       <r>   53.5047    0.0000 </r>
       <r>   54.7762    0.0000 </r>
       <r>   55.7947    0.0000 </r>
       <r>   59.0047    0.0000 </r>
       <r>   59.5426    0.0000 </r>
       <r>   64.7793    0.0000 </r>
       <r>   65.6431    0.0000 </r>
       <r>   66.3729    0.0000 </r>
       <r>   66.8525    0.0000 </r>
       <r>   66.8781    0.0000 </r>
       <r>   67.3840    0.0000 </r>
      </set>
      <set comment="kpoint 33">
       <r>   -1.8241    1.0000 </r>
       <r>    1.5454    1.0000 </r>
       <r>    4.3257    1.0000 </r>
       <r>    5.0930    1.0000 </r>
       <r>    5.1051    1.0000 </r>
       <r>    5.1053    1.0000 </r>
       <r>    5.3420    1.0000 </r>
       <r>    5.3422    1.0000 </r>
       <r>    6.5289    0.8982 </r>
       <r>    6.5289    0.8981 </r>
       <r>    7.3189   -0.0000 </r>
       <r>    7.3189   -0.0000 </r>
       <r>   14.7724    0.0000 </r>
       <r>   27.0203    0.0000 </r>
       <r>   30.2994    0.0000 </r>
       <r>   32.3717    0.0000 </r>
       <r>   35.3795    0.0000 </r>
       <r>   35.3796    0.0000 </r>
       <r>   36.0318    0.0000 </r>
       <r>   36.0320    0.0000 </r>
       <r>   37.5692    0.0000 </r>
[...]
       <r>   21.2568    0.0000 </r>
       <r>   21.9643    0.0000 </r>
       <r>   25.8517    0.0000 </r>
       <r>   26.9092    0.0000 </r>
       <r>   31.3918    0.0000 </r>
       <r>   32.4228    0.0000 </r>
       <r>   34.8802    0.0000 </r>
       <r>   36.3739    0.0000 </r>
       <r>   41.3227    0.0000 </r>
       <r>   41.6965    0.0000 </r>
       <r>   50.7673    0.0000 </r>
       <r>   51.5535    0.0000 </r>
       <r>   51.6546    0.0000 </r>
       <r>   53.1060    0.0000 </r>
       <r>   55.1267    0.0000 </r>
       <r>   56.0797    0.0000 </r>
       <r>   56.4707    0.0000 </r>
       <r>   57.3452    0.0000 </r>
       <r>   59.5572    0.0000 </r>
       <r>   60.2871    0.0000 </r>
       <r>   61.7851    0.0000 </r>
       <r>   62.8062    0.0000 </r>
       <r>   64.2441    0.0000 </r>
       <r>   64.3720    0.0000 </r>
       <r>   65.1728    0.0000 </r>
       <r>   65.5101    0.0000 </r>
      </set>
      <set comment="kpoint 95">
       <r>    2.9362    1.0000 </r>
       <r>    2.9856    1.0000 </r>
       <r>    3.8536    1.0000 </r>
       <r>    4.0565    1.0000 </r>
       <r>    4.4459    1.0000 </r>
       <r>    4.6327    1.0000 </r>
       <r>    5.7632    1.0000 </r>
       <r>    5.9511    1.0000 </r>
       <r>    7.3765   -0.0000 </r>
       <r>    7.5560   -0.0000 </r>
       <r>   11.5029   -0.0000 </r>
       <r>   12.0014   -0.0000 </r>
       <r>   17.6732    0.0000 </r>
       <r>   18.0723    0.0000 </r>
       <r>   19.3598    0.0000 </r>
       <r>   19.7353    0.0000 </r>
       <r>   26.0011    0.0000 </r>
       <r>   27.5350    0.0000 </r>
       <r>   31.5305    0.0000 </r>
       <r>   32.8336    0.0000 </r>
       <r>   34.5490    0.0000 </r>
       <r>   35.5839    0.0000 </r>
       <r>   43.8462    0.0000 </r>
       <r>   44.2484    0.0000 </r>
       <r>   47.7590    0.0000 </r>
       <r>   47.8610    0.0000 </r>
       <r>   53.4435    0.0000 </r>
       <r>   54.9214    0.0000 </r>
       <r>   55.5339    0.0000 </r>
       <r>   55.7738    0.0000 </r>
       <r>   57.6777    0.0000 </r>
       <r>   57.7844    0.0000 </r>
       <r>   58.7664    0.0000 </r>
       <r>   58.8435    0.0000 </r>
       <r>   60.3132    0.0000 </r>
       <r>   61.1172    0.0000 </r>
       <r>   64.0412    0.0000 </r>
       <r>   64.3965    0.0000 </r>
       <r>   65.3300    0.0000 </r>
       <r>   65.4217    0.0000 </r>
      </set>
      <set comment="kpoint 96">
       <r>    3.1408    1.0000 </r>
       <r>    3.2595    1.0000 </r>
       <r>    3.8101    1.0000 </r>
       <r>    3.9055    1.0000 </r>
       <r>    4.4260    1.0000 </r>
       <r>    4.5543    1.0000 </r>
       <r>    5.8052    1.0000 </r>
       <r>    5.9464    1.0000 </r>
       <r>    7.3600   -0.0000 </r>
       <r>    7.4241   -0.0000 </r>
       <r>   13.3256    0.0000 </r>
       <r>   13.4576    0.0000 </r>
       <r>   15.9775    0.0000 </r>
       <r>   16.2818    0.0000 </r>
       <r>   18.7107    0.0000 </r>
       <r>   19.1488    0.0000 </r>
       <r>   27.7305    0.0000 </r>
       <r>   28.3623    0.0000 </r>
       <r>   30.5321    0.0000 </r>
       <r>   30.8972    0.0000 </r>
       <r>   34.2385    0.0000 </r>
       <r>   35.0358    0.0000 </r>
       <r>   44.9469    0.0000 </r>
       <r>   45.5646    0.0000 </r>
       <r>   49.6574    0.0000 </r>
       <r>   50.0975    0.0000 </r>
       <r>   51.9870    0.0000 </r>
       <r>   52.3919    0.0000 </r>
       <r>   55.1242    0.0000 </r>
       <r>   55.8324    0.0000 </r>
       <r>   57.6044    0.0000 </r>
       <r>   58.2477    0.0000 </r>
       <r>   58.5930    0.0000 </r>
       <r>   59.1444    0.0000 </r>
       <r>   60.6623    0.0000 </r>
       <r>   61.6385    0.0000 </r>
       <r>   62.9538    0.0000 </r>
       <r>   63.1480    0.0000 </r>
       <r>   66.7872    0.0000 </r>
       <r>   66.8450    0.0000 </r>
      </set>
     </set>
    </set>
   </array>
  </eigenvalues>
  <separator name="orbital magnetization" >
   <v name="MAGDIPOLOUT">      0.00000000      0.00000000      0.00000000</v>
  </separator>
  <dos>
   <i name="efermi">      6.63964493 </i>
   <total>
    <array>
     <dimension dim="1">gridpoints</dimension>
     <dimension dim="2">spin</dimension>
     <field>energy</field>
     <field>total</field>
     <field>integrated</field>
     <set>
      <set comment="spin 1">
       <r>    -5.6124     0.0000     0.0000 </r>
       <r>    -5.3566     0.0000     0.0000 </r>
       <r>    -5.1008     0.0000     0.0000 </r>
       <r>    -4.8451     0.0000     0.0000 </r>
       <r>    -4.5893     0.0000     0.0000 </r>
       <r>    -4.3335     0.0000     0.0000 </r>
       <r>    -4.0778     0.0000     0.0000 </r>
       <r>    -3.8220    -0.0000    -0.0000 </r>
       <r>    -3.5662    -0.0000    -0.0000 </r>
       <r>    -3.3105    -0.0000    -0.0000 </r>
       <r>    -3.0547    -0.0000    -0.0000 </r>
       <r>    -2.7989    -0.0000    -0.0000 </r>
       <r>    -2.5432    -0.0000    -0.0000 </r>
       <r>    -2.2874    -0.0004    -0.0001 </r>
       <r>    -2.0316     0.0088     0.0021 </r>
       <r>    -1.7759     0.0558     0.0164 </r>
       <r>    -1.5201     0.1055     0.0434 </r>
       <r>    -1.2643     0.0593     0.0585 </r>
       <r>    -1.0086     0.1552     0.0982 </r>
       <r>    -0.7528     0.1819     0.1448 </r>
       <r>    -0.4970     0.1987     0.1956 </r>
       <r>    -0.2413     0.0858     0.2175 </r>
       <r>     0.0145     0.2442     0.2800 </r>
       <r>     0.2703     0.2998     0.3567 </r>
       <r>     0.5260     0.3150     0.4372 </r>
       <r>     0.7818     0.3021     0.5145 </r>
       <r>     1.0376     0.2417     0.5763 </r>
       <r>     1.2934     0.3874     0.6754 </r>
       <r>     1.5491     0.7043     0.8555 </r>
       <r>     1.8049     0.9028     1.0864 </r>
       <r>     2.0607     1.4357     1.4536 </r>
       <r>     2.3164     1.9752     1.9588 </r>
       <r>     2.5722     2.8349     2.6839 </r>
       <r>     2.8280     2.2254     3.2531 </r>
       <r>     3.0837     3.0013     4.0207 </r>
       <r>     3.3395     2.4020     4.6351 </r>
       <r>     3.5953     3.3445     5.4905 </r>
       <r>     3.8510     3.2542     6.3228 </r>
       <r>     4.1068     3.2446     7.1527 </r>
       <r>     4.3626     2.4819     7.7875 </r>
       <r>     4.6183     2.6871     8.4748 </r>
       <r>     4.8741     4.3223     9.5803 </r>
       <r>     5.1299     3.8153    10.5561 </r>
       <r>     5.3856     3.9613    11.5693 </r>
       <r>     5.6414     3.4142    12.4425 </r>
       <r>     5.8972     3.8245    13.4207 </r>
       <r>     6.1529     3.5006    14.3161 </r>
       <r>     6.4087     3.5950    15.2356 </r>
       <r>     6.6645     3.2787    16.0741 </r>
       <r>     6.9202     3.1549    16.8811 </r>
       <r>     7.1760     4.5836    18.0534 </r>
       <r>     7.4318     5.1288    19.3652 </r>
       <r>     7.6876     4.4953    20.5149 </r>
       <r>     7.9433     2.6745    21.1990 </r>
       <r>     8.1991     0.2858    21.2721 </r>
       <r>     8.4549     0.5328    21.4084 </r>
       <r>     8.7106     0.6471    21.5739 </r>
       <r>     8.9664     0.8153    21.7824 </r>
       <r>     9.2222     0.8077    21.9890 </r>
       <r>     9.4779     0.4724    22.1098 </r>
       <r>     9.7337     0.3631    22.2027 </r>
       <r>     9.9895     0.4863    22.3271 </r>
       <r>    10.2452     0.4138    22.4329 </r>
       <r>    10.5010     0.4949    22.5595 </r>
       <r>    10.7568     0.6490    22.7255 </r>
       <r>    11.0125     0.4813    22.8486 </r>
       <r>    11.2683     0.4698    22.9687 </r>
       <r>    11.5241     0.5200    23.1017 </r>
       <r>    11.7798     0.3291    23.1859 </r>
       <r>    12.0356     0.2307    23.2449 </r>
       <r>    12.2914     0.3795    23.3420 </r>
       <r>    12.5471     0.3870    23.4410 </r>
       <r>    12.8029     0.4122    23.5464 </r>
       <r>    13.0587     0.1912    23.5953 </r>
       <r>    13.3144     0.3563    23.6864 </r>
       <r>    13.5702     0.6267    23.8467 </r>
       <r>    13.8260     0.4618    23.9648 </r>
       <r>    14.0818     0.2854    24.0378 </r>
       <r>    14.3375     0.2149    24.0928 </r>
       <r>    14.5933     0.1910    24.1416 </r>
       <r>    14.8491     0.0938    24.1656 </r>
       <r>    15.1048     0.1441    24.2025 </r>
       <r>    15.3606     0.3549    24.2933 </r>
       <r>    15.6164     0.2289    24.3518 </r>
       <r>    15.8721     0.4192    24.4590 </r>
       <r>    16.1279     0.6975    24.6374 </r>
       <r>    16.3837     1.0029    24.8939 </r>
       <r>    16.6394     0.8204    25.1038 </r>
       <r>    16.8952     0.7711    25.3010 </r>
       <r>    17.1510     0.5461    25.4407 </r>
       <r>    17.4067     0.4481    25.5553 </r>
       <r>    17.6625     0.7689    25.7519 </r>
       <r>    17.9183     0.8089    25.9588 </r>
       <r>    18.1740     0.7116    26.1408 </r>
       <r>    18.4298     0.7852    26.3416 </r>
       <r>    18.6856     0.9331    26.5803 </r>
       <r>    18.9413     0.3635    26.6733 </r>
       <r>    19.1971     0.5351    26.8101 </r>
       <r>    19.4529     0.8432    27.0258 </r>
       <r>    19.7086     0.6405    27.1896 </r>
       <r>    19.9644     0.6751    27.3623 </r>
       <r>    20.2202     0.4952    27.4889 </r>
       <r>    20.4760     0.6642    27.6588 </r>
       <r>    20.7317     0.5528    27.8002 </r>
       <r>    20.9875     0.3320    27.8851 </r>
       <r>    21.2433     0.9450    28.1268 </r>
       <r>    21.4990     0.5788    28.2748 </r>
       <r>    21.7548     0.6000    28.4283 </r>
       <r>    22.0106     0.8579    28.6477 </r>
       <r>    22.2663     0.5041    28.7766 </r>
       <r>    22.5221     0.6004    28.9302 </r>
       <r>    22.7779     0.8545    29.1488 </r>
       <r>    23.0336     1.3783    29.5013 </r>
       <r>    23.2894     0.7844    29.7019 </r>
       <r>    23.5452     0.6484    29.8678 </r>
       <r>    23.8009     1.1240    30.1552 </r>
       <r>    24.0567     0.6286    30.3160 </r>
       <r>    24.3125     0.6962    30.4941 </r>
       <r>    24.5682     1.1462    30.7872 </r>
       <r>    24.8240     0.9980    31.0425 </r>
       <r>    25.0798     0.9804    31.2932 </r>
       <r>    25.3355     0.7059    31.4738 </r>
       <r>    25.5913     0.9847    31.7257 </r>
       <r>    25.8471     1.1899    32.0300 </r>
       <r>    26.1028     1.3694    32.3803 </r>
       <r>    26.3586     0.8662    32.6018 </r>
       <r>    26.6144     0.4023    32.7047 </r>
       <r>    26.8702     0.9660    32.9518 </r>
       <r>    27.1259     0.7923    33.1544 </r>
       <r>    27.3817     0.8406    33.3694 </r>
       <r>    27.6375     0.9898    33.6225 </r>
       <r>    27.8932     0.6433    33.7871 </r>
       <r>    28.1490     0.8682    34.0092 </r>
       <r>    28.4048     0.9783    34.2594 </r>
       <r>    28.6605     0.7421    34.4492 </r>
       <r>    28.9163     0.5047    34.5783 </r>
       <r>    29.1721     0.6747    34.7508 </r>
       <r>    29.4278     0.4071    34.8550 </r>
       <r>    29.6836     0.6397    35.0186 </r>
       <r>    29.9394     0.9149    35.2526 </r>
       <r>    30.1951     0.8464    35.4691 </r>
       <r>    30.4509     0.7889    35.6709 </r>
       <r>    30.7067     0.7063    35.8515 </r>
       <r>    30.9624     0.7245    36.0368 </r>
       <r>    31.2182     0.7765    36.2354 </r>
       <r>    31.4740     1.1532    36.5304 </r>
       <r>    31.7297     0.8760    36.7544 </r>
       <r>    31.9855     0.7128    36.9367 </r>
       <r>    32.2413     0.6187    37.0950 </r>
       <r>    32.4970     0.7866    37.2962 </r>
       <r>    32.7528     0.6948    37.4739 </r>
       <r>    33.0086     0.7863    37.6750 </r>
       <r>    33.2644     1.1785    37.9764 </r>
       <r>    33.5201     0.8725    38.1996 </r>
       <r>    33.7759     0.8648    38.4208 </r>
       <r>    34.0317     0.9834    38.6723 </r>
       <r>    34.2874     1.0965    38.9527 </r>
       <r>    34.5432     0.8521    39.1707 </r>
       <r>    34.7990     1.0090    39.4287 </r>
       <r>    35.0547     1.3517    39.7744 </r>
       <r>    35.3105     1.0501    40.0430 </r>
       <r>    35.5663     1.2566    40.3644 </r>
       <r>    35.8220     1.0163    40.6244 </r>
       <r>    36.0778     0.7950    40.8277 </r>
       <r>    36.3336     0.8819    41.0533 </r>
       <r>    36.5893     0.7506    41.2452 </r>
       <r>    36.8451     0.7728    41.4429 </r>
       <r>    37.1009     0.3803    41.5402 </r>
       <r>    37.3566     0.9500    41.7831 </r>
       <r>    37.6124     0.6395    41.9467 </r>
       <r>    37.8682     0.4625    42.0650 </r>
       <r>    38.1239     0.8126    42.2728 </r>
       <r>    38.3797     1.2189    42.5846 </r>
       <r>    38.6355     1.1257    42.8725 </r>
       <r>    38.8912     0.8661    43.0940 </r>
       <r>    39.1470     0.7604    43.2885 </r>
       <r>    39.4028     0.8923    43.5167 </r>
       <r>    39.6586     0.5313    43.6526 </r>
       <r>    39.9143     1.0407    43.9188 </r>
       <r>    40.1701     0.9153    44.1529 </r>
       <r>    40.4259     0.7979    44.3570 </r>
       <r>    40.6816     1.0506    44.6257 </r>
       <r>    40.9374     1.5046    45.0105 </r>
       <r>    41.1932     0.8877    45.2376 </r>
       <r>    41.4489     0.9007    45.4680 </r>
       <r>    41.7047     1.2554    45.7890 </r>
       <r>    41.9605     0.8900    46.0167 </r>
       <r>    42.2162     0.8898    46.2443 </r>
       <r>    42.4720     1.2096    46.5536 </r>
       <r>    42.7278     1.1540    46.8488 </r>
       <r>    42.9835     1.1384    47.1400 </r>
       <r>    43.2393     1.1052    47.4226 </r>
       <r>    43.4951     1.0350    47.6874 </r>
       <r>    43.7508     1.3540    48.0337 </r>
       <r>    44.0066     0.9226    48.2696 </r>
       <r>    44.2624     0.8688    48.4919 </r>
       <r>    44.5181     0.6995    48.6708 </r>
       <r>    44.7739     1.1111    48.9549 </r>
       <r>    45.0297     1.1247    49.2426 </r>
       <r>    45.2854     0.6811    49.4168 </r>
       <r>    45.5412     0.6637    49.5866 </r>
       <r>    45.7970     1.0694    49.8601 </r>
       <r>    46.0528     1.1269    50.1483 </r>
       <r>    46.3085     1.5004    50.5321 </r>
       <r>    46.5643     0.8289    50.7441 </r>
       <r>    46.8201     0.5935    50.8959 </r>
       <r>    47.0758     0.8721    51.1189 </r>
       <r>    47.3316     1.2142    51.4295 </r>
       <r>    47.5874     1.1920    51.7344 </r>
       <r>    47.8431     0.8835    51.9603 </r>
       <r>    48.0989     1.1202    52.2468 </r>
       <r>    48.3547     0.7674    52.4431 </r>
       <r>    48.6104     1.0310    52.7068 </r>
       <r>    48.8662     0.8541    52.9253 </r>
       <r>    49.1220     1.4972    53.3082 </r>
       <r>    49.3777     1.7973    53.7679 </r>
       <r>    49.6335     1.1412    54.0598 </r>
       <r>    49.8893     1.1602    54.3565 </r>
       <r>    50.1450     1.2218    54.6690 </r>
       <r>    50.4008     1.1045    54.9515 </r>
       <r>    50.6566     0.7840    55.1520 </r>
       <r>    50.9123     1.1765    55.4529 </r>
       <r>    51.1681     1.4904    55.8341 </r>
       <r>    51.4239     0.5375    55.9716 </r>
       <r>    51.6796     0.9345    56.2106 </r>
       <r>    51.9354     1.1067    56.4937 </r>
       <r>    52.1912     0.9515    56.7370 </r>
       <r>    52.4470     1.4599    57.1104 </r>
       <r>    52.7027     1.2043    57.4184 </r>
       <r>    52.9585     1.2341    57.7341 </r>
       <r>    53.2143     1.4223    58.0978 </r>
       <r>    53.4700     1.2906    58.4279 </r>
       <r>    53.7258     1.5212    58.8170 </r>
       <r>    53.9816     1.2888    59.1466 </r>
       <r>    54.2373     1.4300    59.5124 </r>
       <r>    54.4931     0.9412    59.7531 </r>
       <r>    54.7489     0.9261    59.9900 </r>
       <r>    55.0046     0.9387    60.2300 </r>
       <r>    55.2604     1.3590    60.5776 </r>
       <r>    55.5162     1.5767    60.9809 </r>
       <r>    55.7719     1.8798    61.4617 </r>
       <r>    56.0277     1.7790    61.9167 </r>
       <r>    56.2835     1.4830    62.2960 </r>
       <r>    56.5392     1.1042    62.5784 </r>
       <r>    56.7950     1.1458    62.8715 </r>
       <r>    57.0508     1.4685    63.2471 </r>
       <r>    57.3065     2.1202    63.7894 </r>
       <r>    57.5623     1.2604    64.1117 </r>
       <r>    57.8181     1.4178    64.4744 </r>
       <r>    58.0738     1.6306    64.8914 </r>
       <r>    58.3296     1.6953    65.3250 </r>
       <r>    58.5854     1.5443    65.7200 </r>
       <r>    58.8412     1.5497    66.1164 </r>
       <r>    59.0969     2.1169    66.6578 </r>
       <r>    59.3527     1.7875    67.1150 </r>
       <r>    59.6085     1.2267    67.4288 </r>
       <r>    59.8642     1.5567    67.8269 </r>
       <r>    60.1200     1.6459    68.2479 </r>
       <r>    60.3758     1.5143    68.6352 </r>
       <r>    60.6315     1.0352    68.8999 </r>
       <r>    60.8873     1.6783    69.3292 </r>
       <r>    61.1431     1.9067    69.8168 </r>
       <r>    61.3988     1.9517    70.3160 </r>
       <r>    61.6546     1.4313    70.6821 </r>
       <r>    61.9104     1.4083    71.0423 </r>
       <r>    62.1661     2.0107    71.5566 </r>
       <r>    62.4219     1.5864    71.9623 </r>
       <r>    62.6777     1.4612    72.3361 </r>
       <r>    62.9334     1.7314    72.7789 </r>
       <r>    63.1892     1.9177    73.2694 </r>
       <r>    63.4450     1.7730    73.7229 </r>
       <r>    63.7007     1.4344    74.0898 </r>
       <r>    63.9565     1.7611    74.5402 </r>
       <r>    64.2123     2.0795    75.0721 </r>
       <r>    64.4680     2.1200    75.6143 </r>
       <r>    64.7238     2.2124    76.1801 </r>
       <r>    64.9796     1.6174    76.5938 </r>
       <r>    65.2354     1.4263    76.9586 </r>
       <r>    65.4911     2.7249    77.6556 </r>
       <r>    65.7469     1.8682    78.1334 </r>
       <r>    66.0027     1.1219    78.4203 </r>
       <r>    66.2584     1.6433    78.8406 </r>
       <r>    66.5142     1.7212    79.2809 </r>
       <r>    66.7700     1.2141    79.5914 </r>
       <r>    67.0257     0.9884    79.8442 </r>
       <r>    67.2815     0.4350    79.9554 </r>
       <r>    67.5373     0.1125    79.9842 </r>
       <r>    67.7930     0.0624    80.0001 </r>
       <r>    68.0488    -0.0001    80.0001 </r>
       <r>    68.3046    -0.0004    80.0000 </r>
       <r>    68.5603    -0.0000    80.0000 </r>
       <r>    68.8161    -0.0000    80.0000 </r>
       <r>    69.0719    -0.0000    80.0000 </r>
       <r>    69.3276     0.0000    80.0000 </r>
       <r>    69.5834     0.0000    80.0000 </r>
       <r>    69.8392     0.0000    80.0000 </r>
       <r>    70.0949     0.0000    80.0000 </r>
       <r>    70.3507     0.0000    80.0000 </r>
       <r>    70.6065     0.0000    80.0000 </r>
       <r>    70.8622     0.0000    80.0000 </r>
       <r>    71.1180     0.0000    80.0000 </r>
      </set>
     </set>
    </array>
   </total>
  </dos>
 </calculation>
 <structure name="finalpos" >
  <crystal>
   <varray name="basis" >
    <v>       2.37660000       0.00000000       0.00000000 </v>
    <v>      -1.18830000       2.05819597       0.00000000 </v>
    <v>       0.00000000       0.00000000       4.26564000 </v>
   </varray>
   <i name="volume">     20.86541455 </i>
   <varray name="rec_basis" >
    <v>       0.42076917       0.24293119       0.00000000 </v>
    <v>       0.00000000       0.48586238       0.00000000 </v>
    <v>       0.00000000       0.00000000       0.23443141 </v>
   </varray>
  </crystal>
  <varray name="positions" >
   <v>       0.00000000       0.00000000       0.00000000 </v>
   <v>       0.33333333       0.66666667       0.50000000 </v>
  </varray>
 </structure>
</modeling>
