unknown system                          
   1.00000000000000     
     3.752338    0.000000    0.000000
     0.000000    3.752338    0.000000
     0.000000    0.000000    3.752338
   Cu
     4
Direct
  0.000000  0.000000  0.000000
  0.500000  0.500000  0.000000
  0.500000  0.000000  0.500000
  0.000000  0.500000  0.500000
 
   32   32   32
 0.93196989773E+03 0.87495433497E+03 0.72297514527E+03 0.52293349955E+03 0.32693182448E+03
 0.17298990935E+03 0.76971680570E+02 0.33214120357E+02 0.20198215053E+02 0.14578247615E+02
 0.11060098937E+02 0.88223339632E+01 0.75054450601E+01 0.69151186780E+01 0.65395640365E+01
 0.60760807536E+01 0.58278065142E+01 0.60760807536E+01 0.65395640365E+01 0.69151186780E+01
 0.75054450601E+01 0.88223339632E+01 0.11060098937E+02 0.14578247615E+02 0.20198215053E+02
 0.33214120357E+02 0.76971680570E+02 0.17298990935E+03 0.32693182448E+03 0.52293349955E+03
 0.72297514527E+03 0.87495433497E+03 0.87495433497E+03 0.82117871506E+03 0.67783589223E+03
 0.48924391888E+03 0.30479194626E+03 0.16059084043E+03 0.71513747792E+02 0.31628422480E+02
 0.19825627250E+02 0.14371121205E+02 0.10979719344E+02 0.88410596722E+01 0.75955627464E+01
 0.70480491300E+01 0.67131456634E+01 0.62992386392E+01 0.60760807536E+01 0.62992386392E+01
 0.67131456634E+01 0.70480491300E+01 0.75955627464E+01 0.88410596722E+01 0.10979719344E+02
 0.14371121205E+02 0.19825627250E+02 0.31628422480E+02 0.71513747792E+02 0.16059084043E+03
 0.30479194626E+03 0.48924391888E+03 0.67783589223E+03 0.82117871506E+03 0.72297514527E+03
 0.67783589223E+03 0.55756955035E+03 0.39969287829E+03 0.24632980125E+03 0.12832347926E+03
 0.57713688324E+02 0.27808893695E+02 0.18776943413E+02 0.13808338108E+02 0.10769487680E+02
 0.88859785145E+01 0.78002887607E+01 0.73196246294E+01 0.70392039396E+01 0.67131456634E+01
 0.65395640365E+01 0.67131456634E+01 0.70392039396E+01 0.73196246294E+01 0.78002887607E+01
 0.88859785145E+01 0.10769487680E+02 0.13808338108E+02 0.18776943413E+02 0.27808893695E+02
 0.57713688324E+02 0.12832347926E+03 0.24632980125E+03 0.39969287829E+03 0.55756955035E+03
 0.67783589223E+03 0.52293349955E+03 0.48924391888E+03 0.39969287829E+03 0.28294543129E+03
 0.17135911227E+03 0.88323104759E+02 0.41680730906E+02 0.23728558426E+02 0.17247808685E+02
 0.13042624958E+02 0.10515686389E+02 0.89668199755E+01 0.80542279484E+01 0.76001245133E+01
 0.73196246294E+01 0.70480491300E+01 0.69151186780E+01 0.70480491300E+01 0.73196246294E+01
 0.76001245133E+01 0.80542279484E+01 0.89668199755E+01 0.10515686389E+02 0.13042624958E+02
 0.17247808685E+02 0.23728558426E+02 0.41680730906E+02 0.88323104759E+02 0.17135911227E+03
 0.28294543129E+03 0.39969287829E+03 0.48924391888E+03 0.32693182448E+03 0.30479194626E+03
 0.24632980125E+03 0.17135911227E+03 0.10206103761E+03 0.53641642042E+02 0.29267558515E+02
 0.20499791653E+02 0.15526483243E+02 0.12264903627E+02 0.10334658710E+02 0.91616884207E+01
 0.84508290363E+01 0.80542279484E+01 0.78002887607E+01 0.75955627464E+01 0.75054450601E+01
 0.75955627464E+01 0.78002887607E+01 0.80542279484E+01 0.84508290363E+01 0.91616884207E+01
 0.10334658710E+02 0.12264903627E+02 0.15526483243E+02 0.20499791653E+02 0.29267558515E+02
 0.53641642042E+02 0.10206103761E+03 0.17135911227E+03 0.24632980125E+03 0.30479194626E+03
 0.17298990935E+03 0.16059084043E+03 0.12832347926E+03 0.88323104759E+02 0.53641642042E+02
 0.31968535623E+02 0.22443756114E+02 0.17539992045E+02 0.13920218611E+02 0.11646813828E+02
 0.10335778460E+02 0.95800564408E+01 0.91616884207E+01 0.89668199755E+01 0.88859785145E+01
 0.88410596722E+01 0.88223339632E+01 0.88410596722E+01 0.88859785145E+01 0.89668199755E+01
 0.91616884207E+01 0.95800564408E+01 0.10335778460E+02 0.11646813828E+02 0.13920218611E+02
 0.17539992045E+02 0.22443756114E+02 0.31968535623E+02 0.53641642042E+02 0.88323104759E+02
 0.12832347926E+03 0.16059084043E+03 0.76971680570E+02 0.71513747792E+02 0.57713688324E+02
 0.41680730906E+02 0.29267558515E+02 0.22443756114E+02 0.18301415706E+02 0.14963063144E+02
 0.12668865250E+02 0.11313421961E+02 0.10615671544E+02 0.10335778460E+02 0.10334658710E+02
 0.10515686389E+02 0.10769487680E+02 0.10979719344E+02 0.11060098937E+02 0.10979719344E+02
 0.10769487680E+02 0.10515686389E+02 0.10334658710E+02 0.10335778460E+02 0.10615671544E+02
 0.11313421961E+02 0.12668865250E+02 0.14963063144E+02 0.18301415706E+02 0.22443756114E+02
 0.29267558515E+02 0.41680730906E+02 0.57713688324E+02 0.71513747792E+02 0.33214120357E+02
 0.31628422480E+02 0.27808893695E+02 0.23728558426E+02 0.20499791653E+02 0.17539992045E+02
 0.14963063144E+02 0.13064149053E+02 0.11897962785E+02 0.11360572393E+02 0.11313421961E+02
 0.11646813828E+02 0.12264903627E+02 0.13042624958E+02 0.13808338108E+02 0.14371121205E+02
 0.14578247615E+02 0.14371121205E+02 0.13808338108E+02 0.13042624958E+02 0.12264903627E+02
 0.11646813828E+02 0.11313421961E+02 0.11360572393E+02 0.11897962785E+02 0.13064149053E+02
 0.14963063144E+02 0.17539992045E+02 0.20499791653E+02 0.23728558426E+02 0.27808893695E+02
 0.31628422480E+02 0.20198215053E+02 0.19825627250E+02 0.18776943413E+02 0.17247808685E+02
 0.15526483243E+02 0.13920218611E+02 0.12668865250E+02 0.11897962785E+02 0.11640768399E+02
 0.11897962785E+02 0.12668865250E+02 0.13920218611E+02 0.15526483243E+02 0.17247808685E+02
 0.18776943413E+02 0.19825627250E+02 0.20198215053E+02 0.19825627250E+02 0.18776943413E+02
 0.17247808685E+02 0.15526483243E+02 0.13920218611E+02 0.12668865250E+02 0.11897962785E+02
 0.11640768399E+02 0.11897962785E+02 0.12668865250E+02 0.13920218611E+02 0.15526483243E+02
 0.17247808685E+02 0.18776943413E+02 0.19825627250E+02 0.14578247615E+02 0.14371121205E+02
 0.13808338108E+02 0.13042624958E+02 0.12264903627E+02 0.11646813828E+02 0.11313421961E+02
 0.11360572393E+02 0.11897962785E+02 0.13064149053E+02 0.14963063144E+02 0.17539992045E+02
 0.20499791653E+02 0.23728558426E+02 0.27808893695E+02 0.31628422480E+02 0.33214120357E+02
 0.31628422480E+02 0.27808893695E+02 0.23728558426E+02 0.20499791653E+02 0.17539992045E+02
 0.14963063144E+02 0.13064149053E+02 0.11897962785E+02 0.11360572393E+02 0.11313421961E+02
 0.11646813828E+02 0.12264903627E+02 0.13042624958E+02 0.13808338108E+02 0.14371121205E+02
 0.11060098937E+02 0.10979719344E+02 0.10769487680E+02 0.10515686389E+02 0.10334658710E+02
 0.10335778460E+02 0.10615671544E+02 0.11313421961E+02 0.12668865250E+02 0.14963063144E+02
 0.18301415706E+02 0.22443756114E+02 0.29267558515E+02 0.41680730906E+02 0.57713688324E+02
 0.71513747792E+02 0.76971680570E+02 0.71513747792E+02 0.57713688324E+02 0.41680730906E+02
 0.29267558515E+02 0.22443756114E+02 0.18301415706E+02 0.14963063144E+02 0.12668865250E+02
 0.11313421961E+02 0.10615671544E+02 0.10335778460E+02 0.10334658710E+02 0.10515686389E+02
 0.10769487680E+02 0.10979719344E+02 0.88223339632E+01 0.88410596722E+01 0.88859785145E+01
 0.89668199755E+01 0.91616884207E+01 0.95800564408E+01 0.10335778460E+02 0.11646813828E+02
 0.13920218611E+02 0.17539992045E+02 0.22443756114E+02 0.31968535623E+02 0.53641642042E+02
 0.88323104759E+02 0.12832347926E+03 0.16059084043E+03 0.17298990935E+03 0.16059084043E+03
 0.12832347926E+03 0.88323104759E+02 0.53641642042E+02 0.31968535623E+02 0.22443756114E+02
 0.17539992045E+02 0.13920218611E+02 0.11646813828E+02 0.10335778460E+02 0.95800564408E+01
 0.91616884207E+01 0.89668199755E+01 0.88859785145E+01 0.88410596722E+01 0.75054450601E+01
 0.75955627464E+01 0.78002887607E+01 0.80542279484E+01 0.84508290363E+01 0.91616884207E+01
 0.10334658710E+02 0.12264903627E+02 0.15526483243E+02 0.20499791653E+02 0.29267558515E+02
 0.53641642042E+02 0.10206103761E+03 0.17135911227E+03 0.24632980125E+03 0.30479194626E+03
 0.32693182448E+03 0.30479194626E+03 0.24632980125E+03 0.17135911227E+03 0.10206103761E+03
 0.53641642042E+02 0.29267558515E+02 0.20499791653E+02 0.15526483243E+02 0.12264903627E+02
 0.10334658710E+02 0.91616884207E+01 0.84508290363E+01 0.80542279484E+01 0.78002887607E+01
 0.75955627464E+01 0.69151186780E+01 0.70480491300E+01 0.73196246294E+01 0.76001245133E+01
 0.80542279484E+01 0.89668199755E+01 0.10515686389E+02 0.13042624958E+02 0.17247808685E+02
 0.23728558426E+02 0.41680730906E+02 0.88323104759E+02 0.17135911227E+03 0.28294543129E+03
 0.39969287829E+03 0.48924391888E+03 0.52293349955E+03 0.48924391888E+03 0.39969287829E+03
 0.28294543129E+03 0.17135911227E+03 0.88323104759E+02 0.41680730906E+02 0.23728558426E+02
 0.17247808685E+02 0.13042624958E+02 0.10515686389E+02 0.89668199755E+01 0.80542279484E+01
 0.76001245133E+01 0.73196246294E+01 0.70480491300E+01 0.65395640365E+01 0.67131456634E+01
 0.70392039396E+01 0.73196246294E+01 0.78002887607E+01 0.88859785145E+01 0.10769487680E+02
 0.13808338108E+02 0.18776943413E+02 0.27808893695E+02 0.57713688324E+02 0.12832347926E+03
 0.24632980125E+03 0.39969287829E+03 0.55756955035E+03 0.67783589223E+03 0.72297514527E+03
 0.67783589223E+03 0.55756955035E+03 0.39969287829E+03 0.24632980125E+03 0.12832347926E+03
 0.57713688324E+02 0.27808893695E+02 0.18776943413E+02 0.13808338108E+02 0.10769487680E+02
 0.88859785145E+01 0.78002887607E+01 0.73196246294E+01 0.70392039396E+01 0.67131456634E+01
 0.60760807536E+01 0.62992386392E+01 0.67131456634E+01 0.70480491300E+01 0.75955627464E+01
 0.88410596722E+01 0.10979719344E+02 0.14371121205E+02 0.19825627250E+02 0.31628422480E+02
 0.71513747792E+02 0.16059084043E+03 0.30479194626E+03 0.48924391888E+03 0.67783589223E+03
 0.82117871506E+03 0.87495433497E+03 0.82117871506E+03 0.67783589223E+03 0.48924391888E+03
 0.30479194626E+03 0.16059084043E+03 0.71513747792E+02 0.31628422480E+02 0.19825627250E+02
 0.14371121205E+02 0.10979719344E+02 0.88410596722E+01 0.75955627464E+01 0.70480491300E+01
 0.67131456634E+01 0.62992386392E+01 0.58278065142E+01 0.60760807536E+01 0.65395640365E+01
 0.69151186780E+01 0.75054450601E+01 0.88223339632E+01 0.11060098937E+02 0.14578247615E+02
 0.20198215053E+02 0.33214120357E+02 0.76971680570E+02 0.17298990935E+03 0.32693182448E+03
 0.52293349955E+03 0.72297514527E+03 0.87495433497E+03 0.93196989773E+03 0.87495433497E+03
 0.72297514527E+03 0.52293349955E+03 0.32693182448E+03 0.17298990935E+03 0.76971680570E+02
 0.33214120357E+02 0.20198215053E+02 0.14578247615E+02 0.11060098937E+02 0.88223339632E+01
 0.75054450601E+01 0.69151186780E+01 0.65395640365E+01 0.60760807536E+01 0.60760807536E+01
 0.62992386392E+01 0.67131456634E+01 0.70480491300E+01 0.75955627464E+01 0.88410596722E+01
 0.10979719344E+02 0.14371121205E+02 0.19825627250E+02 0.31628422480E+02 0.71513747792E+02
 0.16059084043E+03 0.30479194626E+03 0.48924391888E+03 0.67783589223E+03 0.82117871506E+03
 0.87495433497E+03 0.82117871506E+03 0.67783589223E+03 0.48924391888E+03 0.30479194626E+03
 0.16059084043E+03 0.71513747792E+02 0.31628422480E+02 0.19825627250E+02 0.14371121205E+02
 0.10979719344E+02 0.88410596722E+01 0.75955627464E+01 0.70480491300E+01 0.67131456634E+01
 0.62992386392E+01 0.65395640365E+01 0.67131456634E+01 0.70392039396E+01 0.73196246294E+01
 0.78002887607E+01 0.88859785145E+01 0.10769487680E+02 0.13808338108E+02 0.18776943413E+02
 0.27808893695E+02 0.57713688324E+02 0.12832347926E+03 0.24632980125E+03 0.39969287829E+03
 0.55756955035E+03 0.67783589223E+03 0.72297514527E+03 0.67783589223E+03 0.55756955035E+03
 0.39969287829E+03 0.24632980125E+03 0.12832347926E+03 0.57713688324E+02 0.27808893695E+02
 0.18776943413E+02 0.13808338108E+02 0.10769487680E+02 0.88859785145E+01 0.78002887607E+01
 0.73196246294E+01 0.70392039396E+01 0.67131456634E+01 0.69151186780E+01 0.70480491300E+01
 0.73196246294E+01 0.76001245133E+01 0.80542279484E+01 0.89668199755E+01 0.10515686389E+02
 0.13042624958E+02 0.17247808685E+02 0.23728558426E+02 0.41680730906E+02 0.88323104759E+02
 0.17135911227E+03 0.28294543129E+03 0.39969287829E+03 0.48924391888E+03 0.52293349955E+03
 0.48924391888E+03 0.39969287829E+03 0.28294543129E+03 0.17135911227E+03 0.88323104759E+02
 0.41680730906E+02 0.23728558426E+02 0.17247808685E+02 0.13042624958E+02 0.10515686389E+02
 0.89668199755E+01 0.80542279484E+01 0.76001245133E+01 0.73196246294E+01 0.70480491300E+01
 0.75054450601E+01 0.75955627464E+01 0.78002887607E+01 0.80542279484E+01 0.84508290363E+01
 0.91616884207E+01 0.10334658710E+02 0.12264903627E+02 0.15526483243E+02 0.20499791653E+02
 0.29267558515E+02 0.53641642042E+02 0.10206103761E+03 0.17135911227E+03 0.24632980125E+03
 0.30479194626E+03 0.32693182448E+03 0.30479194626E+03 0.24632980125E+03 0.17135911227E+03
 0.10206103761E+03 0.53641642042E+02 0.29267558515E+02 0.20499791653E+02 0.15526483243E+02
 0.12264903627E+02 0.10334658710E+02 0.91616884207E+01 0.84508290363E+01 0.80542279484E+01
 0.78002887607E+01 0.75955627464E+01 0.88223339632E+01 0.88410596722E+01 0.88859785145E+01
 0.89668199755E+01 0.91616884207E+01 0.95800564408E+01 0.10335778460E+02 0.11646813828E+02
 0.13920218611E+02 0.17539992045E+02 0.22443756114E+02 0.31968535623E+02 0.53641642042E+02
 0.88323104759E+02 0.12832347926E+03 0.16059084043E+03 0.17298990935E+03 0.16059084043E+03
 0.12832347926E+03 0.88323104759E+02 0.53641642042E+02 0.31968535623E+02 0.22443756114E+02
 0.17539992045E+02 0.13920218611E+02 0.11646813828E+02 0.10335778460E+02 0.95800564408E+01
 0.91616884207E+01 0.89668199755E+01 0.88859785145E+01 0.88410596722E+01 0.11060098937E+02
 0.10979719344E+02 0.10769487680E+02 0.10515686389E+02 0.10334658710E+02 0.10335778460E+02
 0.10615671544E+02 0.11313421961E+02 0.12668865250E+02 0.14963063144E+02 0.18301415706E+02
 0.22443756114E+02 0.29267558515E+02 0.41680730906E+02 0.57713688324E+02 0.71513747792E+02
 0.76971680570E+02 0.71513747792E+02 0.57713688324E+02 0.41680730906E+02 0.29267558515E+02
 0.22443756114E+02 0.18301415706E+02 0.14963063144E+02 0.12668865250E+02 0.11313421961E+02
 0.10615671544E+02 0.10335778460E+02 0.10334658710E+02 0.10515686389E+02 0.10769487680E+02
 0.10979719344E+02 0.14578247615E+02 0.14371121205E+02 0.13808338108E+02 0.13042624958E+02
 0.12264903627E+02 0.11646813828E+02 0.11313421961E+02 0.11360572393E+02 0.11897962785E+02
 0.13064149053E+02 0.14963063144E+02 0.17539992045E+02 0.20499791653E+02 0.23728558426E+02
 0.27808893695E+02 0.31628422480E+02 0.33214120357E+02 0.31628422480E+02 0.27808893695E+02
 0.23728558426E+02 0.20499791653E+02 0.17539992045E+02 0.14963063144E+02 0.13064149053E+02
 0.11897962785E+02 0.11360572393E+02 0.11313421961E+02 0.11646813828E+02 0.12264903627E+02
 0.13042624958E+02 0.13808338108E+02 0.14371121205E+02 0.20198215053E+02 0.19825627250E+02
 0.18776943413E+02 0.17247808685E+02 0.15526483243E+02 0.13920218611E+02 0.12668865250E+02
 0.11897962785E+02 0.11640768399E+02 0.11897962785E+02 0.12668865250E+02 0.13920218611E+02
 0.15526483243E+02 0.17247808685E+02 0.18776943413E+02 0.19825627250E+02 0.20198215053E+02
 0.19825627250E+02 0.18776943413E+02 0.17247808685E+02 0.15526483243E+02 0.13920218611E+02
 0.12668865250E+02 0.11897962785E+02 0.11640768399E+02 0.11897962785E+02 0.12668865250E+02
 0.13920218611E+02 0.15526483243E+02 0.17247808685E+02 0.18776943413E+02 0.19825627250E+02
 0.33214120357E+02 0.31628422480E+02 0.27808893695E+02 0.23728558426E+02 0.20499791653E+02
 0.17539992045E+02 0.14963063144E+02 0.13064149053E+02 0.11897962785E+02 0.11360572393E+02
 0.11313421961E+02 0.11646813828E+02 0.12264903627E+02 0.13042624958E+02 0.13808338108E+02
 0.14371121205E+02 0.14578247615E+02 0.14371121205E+02 0.13808338108E+02 0.13042624958E+02
 0.12264903627E+02 0.11646813828E+02 0.11313421961E+02 0.11360572393E+02 0.11897962785E+02
 0.13064149053E+02 0.14963063144E+02 0.17539992045E+02 0.20499791653E+02 0.23728558426E+02
 0.27808893695E+02 0.31628422480E+02 0.76971680570E+02 0.71513747792E+02 0.57713688324E+02
 0.41680730906E+02 0.29267558515E+02 0.22443756114E+02 0.18301415706E+02 0.14963063144E+02
 0.12668865250E+02 0.11313421961E+02 0.10615671544E+02 0.10335778460E+02 0.10334658710E+02
 0.10515686389E+02 0.10769487680E+02 0.10979719344E+02 0.11060098937E+02 0.10979719344E+02
 0.10769487680E+02 0.10515686389E+02 0.10334658710E+02 0.10335778460E+02 0.10615671544E+02
 0.11313421961E+02 0.12668865250E+02 0.14963063144E+02 0.18301415706E+02 0.22443756114E+02
 0.29267558515E+02 0.41680730906E+02 0.57713688324E+02 0.71513747792E+02 0.17298990935E+03
 0.16059084043E+03 0.12832347926E+03 0.88323104759E+02 0.53641642042E+02 0.31968535623E+02
 0.22443756114E+02 0.17539992045E+02 0.13920218611E+02 0.11646813828E+02 0.10335778460E+02
 0.95800564408E+01 0.91616884207E+01 0.89668199755E+01 0.88859785145E+01 0.88410596722E+01
 0.88223339632E+01 0.88410596722E+01 0.88859785145E+01 0.89668199755E+01 0.91616884207E+01
 0.95800564408E+01 0.10335778460E+02 0.11646813828E+02 0.13920218611E+02 0.17539992045E+02
 0.22443756114E+02 0.31968535623E+02 0.53641642042E+02 0.88323104759E+02 0.12832347926E+03
 0.16059084043E+03 0.32693182448E+03 0.30479194626E+03 0.24632980125E+03 0.17135911227E+03
 0.10206103761E+03 0.53641642042E+02 0.29267558515E+02 0.20499791653E+02 0.15526483243E+02
 0.12264903627E+02 0.10334658710E+02 0.91616884207E+01 0.84508290363E+01 0.80542279484E+01
 0.78002887607E+01 0.75955627464E+01 0.75054450601E+01 0.75955627464E+01 0.78002887607E+01
 0.80542279484E+01 0.84508290363E+01 0.91616884207E+01 0.10334658710E+02 0.12264903627E+02
 0.15526483243E+02 0.20499791653E+02 0.29267558515E+02 0.53641642042E+02 0.10206103761E+03
 0.17135911227E+03 0.24632980125E+03 0.30479194626E+03 0.52293349955E+03 0.48924391888E+03
 0.39969287829E+03 0.28294543129E+03 0.17135911227E+03 0.88323104759E+02 0.41680730906E+02
 0.23728558426E+02 0.17247808685E+02 0.13042624958E+02 0.10515686389E+02 0.89668199755E+01
 0.80542279484E+01 0.76001245133E+01 0.73196246294E+01 0.70480491300E+01 0.69151186780E+01
 0.70480491300E+01 0.73196246294E+01 0.76001245133E+01 0.80542279484E+01 0.89668199755E+01
 0.10515686389E+02 0.13042624958E+02 0.17247808685E+02 0.23728558426E+02 0.41680730906E+02
 0.88323104759E+02 0.17135911227E+03 0.28294543129E+03 0.39969287829E+03 0.48924391888E+03
 0.72297514527E+03 0.67783589223E+03 0.55756955035E+03 0.39969287829E+03 0.24632980125E+03
 0.12832347926E+03 0.57713688324E+02 0.27808893695E+02 0.18776943413E+02 0.13808338108E+02
 0.10769487680E+02 0.88859785145E+01 0.78002887607E+01 0.73196246294E+01 0.70392039396E+01
 0.67131456634E+01 0.65395640365E+01 0.67131456634E+01 0.70392039396E+01 0.73196246294E+01
 0.78002887607E+01 0.88859785145E+01 0.10769487680E+02 0.13808338108E+02 0.18776943413E+02
 0.27808893695E+02 0.57713688324E+02 0.12832347926E+03 0.24632980125E+03 0.39969287829E+03
 0.55756955035E+03 0.67783589223E+03 0.87495433497E+03 0.82117871506E+03 0.67783589223E+03
 0.48924391888E+03 0.30479194626E+03 0.16059084043E+03 0.71513747792E+02 0.31628422480E+02
 0.19825627250E+02 0.14371121205E+02 0.10979719344E+02 0.88410596722E+01 0.75955627464E+01
 0.70480491300E+01 0.67131456634E+01 0.62992386392E+01 0.60760807536E+01 0.62992386392E+01
 0.67131456634E+01 0.70480491300E+01 0.75955627464E+01 0.88410596722E+01 0.10979719344E+02
 0.14371121205E+02 0.19825627250E+02 0.31628422480E+02 0.71513747792E+02 0.16059084043E+03
 0.30479194626E+03 0.48924391888E+03 0.67783589223E+03 0.82117871506E+03 0.87495433497E+03
 0.82117871506E+03 0.67783589223E+03 0.48924391888E+03 0.30479194626E+03 0.16059084043E+03
 0.71513747792E+02 0.31628422480E+02 0.19825627250E+02 0.14371121205E+02 0.10979719344E+02
 0.88410596722E+01 0.75955627464E+01 0.70480491300E+01 0.67131456634E+01 0.62992386392E+01
 0.60760807536E+01 0.62992386392E+01 0.67131456634E+01 0.70480491300E+01 0.75955627464E+01
 0.88410596722E+01 0.10979719344E+02 0.14371121205E+02 0.19825627250E+02 0.31628422480E+02
 0.71513747792E+02 0.16059084043E+03 0.30479194626E+03 0.48924391888E+03 0.67783589223E+03
 0.82117871506E+03 0.82117871506E+03 0.77045969853E+03 0.63527421852E+03 0.45751784778E+03
 0.28401361341E+03 0.14903966387E+03 0.66501306883E+02 0.30206289220E+02 0.19461070478E+02
 0.14169842322E+02 0.10900658941E+02 0.88555205626E+01 0.76760466466E+01 0.71670434337E+01
 0.68684247495E+01 0.64994665079E+01 0.62992386392E+01 0.64994665079E+01 0.68684247495E+01
 0.71670434337E+01 0.76760466466E+01 0.88555205626E+01 0.10900658941E+02 0.14169842322E+02
 0.19461070478E+02 0.30206289220E+02 0.66501306883E+02 0.14903966387E+03 0.28401361341E+03
 0.45751784778E+03 0.63527421852E+03 0.77045969853E+03 0.67783589223E+03 0.63527421852E+03
 0.52190814642E+03 0.37324105791E+03 0.22921124242E+03 0.11903704900E+03 0.53867147816E+02
 0.26787970737E+02 0.18436215736E+02 0.13623748034E+02 0.10694838175E+02 0.88913633446E+01
 0.78601985463E+01 0.74104204730E+01 0.71587100210E+01 0.68684247495E+01 0.67131456634E+01
 0.68684247495E+01 0.71587100210E+01 0.74104204730E+01 0.78601985463E+01 0.88913633446E+01
 0.10694838175E+02 0.13623748034E+02 0.18436215736E+02 0.26787970737E+02 0.53867147816E+02
 0.11903704900E+03 0.22921124242E+03 0.37324105791E+03 0.52190814642E+03 0.63527421852E+03
 0.48924391888E+03 0.45751784778E+03 0.37324105791E+03 0.26356232105E+03 0.15913301935E+03
 0.82010077127E+02 0.39288758835E+02 0.23125915692E+02 0.16947240078E+02 0.12882700085E+02
 0.10448163783E+02 0.89633326764E+01 0.80941722182E+01 0.76664148367E+01 0.74104204730E+01
 0.71670434337E+01 0.70480491300E+01 0.71670434337E+01 0.74104204730E+01 0.76664148367E+01
 0.80941722182E+01 0.89633326764E+01 0.10448163783E+02 0.12882700085E+02 0.16947240078E+02
 0.23125915692E+02 0.39288758835E+02 0.82010077127E+02 0.15913301935E+03 0.26356232105E+03
 0.37324105791E+03 0.45751784778E+03 0.30479194626E+03 0.28401361341E+03 0.22921124242E+03
 0.15913301935E+03 0.94718726247E+02 0.50172797092E+02 0.28118191847E+02 0.20098791131E+02
 0.15278429928E+02 0.12132602260E+02 0.10273739848E+02 0.91479137142E+01 0.84692482280E+01
 0.80941722182E+01 0.78601985463E+01 0.76760466466E+01 0.75955627464E+01 0.76760466466E+01
 0.78601985463E+01 0.80941722182E+01 0.84692482280E+01 0.91479137142E+01 0.10273739848E+02
 0.12132602260E+02 0.15278429928E+02 0.20098791131E+02 0.28118191847E+02 0.50172797092E+02
 0.94718726247E+02 0.15913301935E+03 0.22921124242E+03 0.28401361341E+03 0.16059084043E+03
 0.14903966387E+03 0.11903704900E+03 0.82010077127E+02 0.50172797092E+02 0.30546066025E+02
 0.21958444470E+02 0.17221771264E+02 0.13727969499E+02 0.11538913030E+02 0.10276182127E+02
 0.95490390308E+01 0.91479137142E+01 0.89633326764E+01 0.88913633446E+01 0.88555205626E+01
 0.88410596722E+01 0.88555205626E+01 0.88913633446E+01 0.89633326764E+01 0.91479137142E+01
 0.95490390308E+01 0.10276182127E+02 0.11538913030E+02 0.13727969499E+02 0.17221771264E+02
 0.21958444470E+02 0.30546066025E+02 0.50172797092E+02 0.82010077127E+02 0.11903704900E+03
 0.14903966387E+03 0.71513747792E+02 0.66501306883E+02 0.53867147816E+02 0.39288758835E+02
 0.28118191847E+02 0.21958444470E+02 0.17957698986E+02 0.14732326518E+02 0.12524715322E+02
 0.11220749808E+02 0.10547631749E+02 0.10276182127E+02 0.10273739848E+02 0.10448163783E+02
 0.10694838175E+02 0.10900658941E+02 0.10979719344E+02 0.10900658941E+02 0.10694838175E+02
 0.10448163783E+02 0.10273739848E+02 0.10276182127E+02 0.10547631749E+02 0.11220749808E+02
 0.12524715322E+02 0.14732326518E+02 0.17957698986E+02 0.21958444470E+02 0.28118191847E+02
 0.39288758835E+02 0.53867147816E+02 0.66501306883E+02 0.31628422480E+02 0.30206289220E+02
 0.26787970737E+02 0.23125915692E+02 0.20098791131E+02 0.17221771264E+02 0.14732326518E+02
 0.12905553936E+02 0.11785582050E+02 0.11268397493E+02 0.11220749808E+02 0.11538913030E+02
 0.12132602260E+02 0.12882700085E+02 0.13623748034E+02 0.14169842322E+02 0.14371121205E+02
 0.14169842322E+02 0.13623748034E+02 0.12882700085E+02 0.12132602260E+02 0.11538913030E+02
 0.11220749808E+02 0.11268397493E+02 0.11785582050E+02 0.12905553936E+02 0.14732326518E+02
 0.17221771264E+02 0.20098791131E+02 0.23125915692E+02 0.26787970737E+02 0.30206289220E+02
 0.19825627250E+02 0.19461070478E+02 0.18436215736E+02 0.16947240078E+02 0.15278429928E+02
 0.13727969499E+02 0.12524715322E+02 0.11785582050E+02 0.11539374989E+02 0.11785582050E+02
 0.12524715322E+02 0.13727969499E+02 0.15278429928E+02 0.16947240078E+02 0.18436215736E+02
 0.19461070478E+02 0.19825627250E+02 0.19461070478E+02 0.18436215736E+02 0.16947240078E+02
 0.15278429928E+02 0.13727969499E+02 0.12524715322E+02 0.11785582050E+02 0.11539374989E+02
 0.11785582050E+02 0.12524715322E+02 0.13727969499E+02 0.15278429928E+02 0.16947240078E+02
 0.18436215736E+02 0.19461070478E+02 0.14371121205E+02 0.14169842322E+02 0.13623748034E+02
 0.12882700085E+02 0.12132602260E+02 0.11538913030E+02 0.11220749808E+02 0.11268397493E+02
 0.11785582050E+02 0.12905553936E+02 0.14732326518E+02 0.17221771264E+02 0.20098791131E+02
 0.23125915692E+02 0.26787970737E+02 0.30206289220E+02 0.31628422480E+02 0.30206289220E+02
 0.26787970737E+02 0.23125915692E+02 0.20098791131E+02 0.17221771264E+02 0.14732326518E+02
 0.12905553936E+02 0.11785582050E+02 0.11268397493E+02 0.11220749808E+02 0.11538913030E+02
 0.12132602260E+02 0.12882700085E+02 0.13623748034E+02 0.14169842322E+02 0.10979719344E+02
 0.10900658941E+02 0.10694838175E+02 0.10448163783E+02 0.10273739848E+02 0.10276182127E+02
 0.10547631749E+02 0.11220749808E+02 0.12524715322E+02 0.14732326518E+02 0.17957698986E+02
 0.21958444470E+02 0.28118191847E+02 0.39288758835E+02 0.53867147816E+02 0.66501306883E+02
 0.71513747792E+02 0.66501306883E+02 0.53867147816E+02 0.39288758835E+02 0.28118191847E+02
 0.21958444470E+02 0.17957698986E+02 0.14732326518E+02 0.12524715322E+02 0.11220749808E+02
 0.10547631749E+02 0.10276182127E+02 0.10273739848E+02 0.10448163783E+02 0.10694838175E+02
 0.10900658941E+02 0.88410596722E+01 0.88555205626E+01 0.88913633446E+01 0.89633326764E+01
 0.91479137142E+01 0.95490390308E+01 0.10276182127E+02 0.11538913030E+02 0.13727969499E+02
 0.17221771264E+02 0.21958444470E+02 0.30546066025E+02 0.50172797092E+02 0.82010077127E+02
 0.11903704900E+03 0.14903966387E+03 0.16059084043E+03 0.14903966387E+03 0.11903704900E+03
 0.82010077127E+02 0.50172797092E+02 0.30546066025E+02 0.21958444470E+02 0.17221771264E+02
 0.13727969499E+02 0.11538913030E+02 0.10276182127E+02 0.95490390308E+01 0.91479137142E+01
 0.89633326764E+01 0.88913633446E+01 0.88555205626E+01 0.75955627464E+01 0.76760466466E+01
 0.78601985463E+01 0.80941722182E+01 0.84692482280E+01 0.91479137142E+01 0.10273739848E+02
 0.12132602260E+02 0.15278429928E+02 0.20098791131E+02 0.28118191847E+02 0.50172797092E+02
 0.94718726247E+02 0.15913301935E+03 0.22921124242E+03 0.28401361341E+03 0.30479194626E+03
 0.28401361341E+03 0.22921124242E+03 0.15913301935E+03 0.94718726247E+02 0.50172797092E+02
 0.28118191847E+02 0.20098791131E+02 0.15278429928E+02 0.12132602260E+02 0.10273739848E+02
 0.91479137142E+01 0.84692482280E+01 0.80941722182E+01 0.78601985463E+01 0.76760466466E+01
 0.70480491300E+01 0.71670434337E+01 0.74104204730E+01 0.76664148367E+01 0.80941722182E+01
 0.89633326764E+01 0.10448163783E+02 0.12882700085E+02 0.16947240078E+02 0.23125915692E+02
 0.39288758835E+02 0.82010077127E+02 0.15913301935E+03 0.26356232105E+03 0.37324105791E+03
 0.45751784778E+03 0.48924391888E+03 0.45751784778E+03 0.37324105791E+03 0.26356232105E+03
 0.15913301935E+03 0.82010077127E+02 0.39288758835E+02 0.23125915692E+02 0.16947240078E+02
 0.12882700085E+02 0.10448163783E+02 0.89633326764E+01 0.80941722182E+01 0.76664148367E+01
 0.74104204730E+01 0.71670434337E+01 0.67131456634E+01 0.68684247495E+01 0.71587100210E+01
 0.74104204730E+01 0.78601985463E+01 0.88913633446E+01 0.10694838175E+02 0.13623748034E+02
 0.18436215736E+02 0.26787970737E+02 0.53867147816E+02 0.11903704900E+03 0.22921124242E+03
 0.37324105791E+03 0.52190814642E+03 0.63527421852E+03 0.67783589223E+03 0.63527421852E+03
 0.52190814642E+03 0.37324105791E+03 0.22921124242E+03 0.11903704900E+03 0.53867147816E+02
 0.26787970737E+02 0.18436215736E+02 0.13623748034E+02 0.10694838175E+02 0.88913633446E+01
 0.78601985463E+01 0.74104204730E+01 0.71587100210E+01 0.68684247495E+01 0.62992386392E+01
 0.64994665079E+01 0.68684247495E+01 0.71670434337E+01 0.76760466466E+01 0.88555205626E+01
 0.10900658941E+02 0.14169842322E+02 0.19461070478E+02 0.30206289220E+02 0.66501306883E+02
 0.14903966387E+03 0.28401361341E+03 0.45751784778E+03 0.63527421852E+03 0.77045969853E+03
 0.82117871506E+03 0.77045969853E+03 0.63527421852E+03 0.45751784778E+03 0.28401361341E+03
 0.14903966387E+03 0.66501306883E+02 0.30206289220E+02 0.19461070478E+02 0.14169842322E+02
 0.10900658941E+02 0.88555205626E+01 0.76760466466E+01 0.71670434337E+01 0.68684247495E+01
 0.64994665079E+01 0.60760807536E+01 0.62992386392E+01 0.67131456634E+01 0.70480491300E+01
 0.75955627464E+01 0.88410596722E+01 0.10979719344E+02 0.14371121205E+02 0.19825627250E+02
 0.31628422480E+02 0.71513747792E+02 0.16059084043E+03 0.30479194626E+03 0.48924391888E+03
 0.67783589223E+03 0.82117871506E+03 0.87495433497E+03 0.82117871506E+03 0.67783589223E+03
 0.48924391888E+03 0.30479194626E+03 0.16059084043E+03 0.71513747792E+02 0.31628422480E+02
 0.19825627250E+02 0.14371121205E+02 0.10979719344E+02 0.88410596722E+01 0.75955627464E+01
 0.70480491300E+01 0.67131456634E+01 0.62992386392E+01 0.62992386392E+01 0.64994665079E+01
 0.68684247495E+01 0.71670434337E+01 0.76760466466E+01 0.88555205626E+01 0.10900658941E+02
 0.14169842322E+02 0.19461070478E+02 0.30206289220E+02 0.66501306883E+02 0.14903966387E+03
 0.28401361341E+03 0.45751784778E+03 0.63527421852E+03 0.77045969853E+03 0.82117871506E+03
 0.77045969853E+03 0.63527421852E+03 0.45751784778E+03 0.28401361341E+03 0.14903966387E+03
 0.66501306883E+02 0.30206289220E+02 0.19461070478E+02 0.14169842322E+02 0.10900658941E+02
 0.88555205626E+01 0.76760466466E+01 0.71670434337E+01 0.68684247495E+01 0.64994665079E+01
 0.67131456634E+01 0.68684247495E+01 0.71587100210E+01 0.74104204730E+01 0.78601985463E+01
 0.88913633446E+01 0.10694838175E+02 0.13623748034E+02 0.18436215736E+02 0.26787970737E+02
 0.53867147816E+02 0.11903704900E+03 0.22921124242E+03 0.37324105791E+03 0.52190814642E+03
 0.63527421852E+03 0.67783589223E+03 0.63527421852E+03 0.52190814642E+03 0.37324105791E+03
 0.22921124242E+03 0.11903704900E+03 0.53867147816E+02 0.26787970737E+02 0.18436215736E+02