 vasp.6.2.0 18Jan21 (build Mar 17 2021 09:06:54) complex                        
  
 executed on             LinuxIFC date 2021.06.11  12:33:59
 serial version


--------------------------------------------------------------------------------------------------------


 INCAR:
   ENCUT = 320.000000
   SIGMA = 0.200000
   EDIFF = 1.00e-06
   GGA = PE
   PREC = normal
   IBRION = 1
   ICHARG = 1
   ISIF = 2
   ISMEAR = 1
   KPAR = 1
   NBANDS = 30
   NSW = 0
   NCORE = 1
   LCHARG = .TRUE.

 POTCAR:    PAW_PBE Cu 22Jun2005                  
 POTCAR:    PAW_PBE Cu 22Jun2005                  
   SHA256 =  0e71e558f37a4e8407882b4609ceaae59938afaad9ced71dfe8490308a0ab630 Cu/POTCAR             
   COPYR  = (c) Copyright 22Jun2005 Georg Kresse                                                    
   COPYR  = This file is part of the software VASP. Any use, copying, and all other rights are regul
   COPYR  = If you do not have a valid VASP license, you may not use, copy or distribute this file. 
   VRHFIN =Cu: d10 p1                                                                               
   LEXCH  = PE                                                                                      
   EATOM  =  1390.9808 eV,  102.2342 Ry                                                             
                                                                                                    
   TITEL  = PAW_PBE Cu 22Jun2005                                                                    
   LULTRA =        F    use ultrasoft PP ?                                                          
   IUNSCR =        1    unscreen: 0-lin 1-nonlin 2-no                                               
   RPACOR =    2.000    partial core radius                                                         
   POMASS =   63.546; ZVAL   =   11.000    mass and valenz                                          
   RCORE  =    2.300    outmost cutoff radius                                                       
   RWIGS  =    2.200; RWIGS  =    1.164    wigner-seitz radius (au A)                               
   ENMAX  =  295.446; ENMIN  =  221.585 eV                                                          
   ICORE  =        3    local potential                                                             
   LCOR   =        T    correct aug charges                                                         
   LPAW   =        T    paw PP                                                                      
   EAUG   =  586.980                                                                                
   DEXC   =    0.000                                                                                
   RMAX   =    2.344    core radius for proj-oper                                                   
   RAUG   =    1.300    factor for augmentation sphere                                              
   RDEP   =    2.302    radius for radial grids                                                     
   RDEPT  =    1.771    core radius for aug-charge                                                  
                                                                                                    
   Atomic configuration                                                                             
    9 entries                                                                                       
     n  l   j            E        occ.                                                              
     1  0  0.50     -8850.2468   2.0000                                                             
     2  0  0.50     -1062.3498   2.0000                                                             
     2  1  1.50      -916.8226   6.0000                                                             
     3  0  0.50      -114.6929   2.0000                                                             
     3  1  1.50       -72.1325   6.0000                                                             
     3  2  2.50        -5.0394  10.0000                                                             
     4  0  0.50        -4.6097   1.0000                                                             
     4  1  0.50        -4.0817   0.0000                                                             
     4  3  2.50        -1.3606   0.0000                                                             
   Description                                                                                      
     l       E           TYP  RCUT    TYP  RCUT                                                     
     2     -5.0393973     23  2.200                                                                 
     2     10.8846608     23  2.200                                                                 
     0     -4.6097109     23  2.200                                                                 
     0      8.2520465     23  2.200                                                                 
     1     -2.7211652     23  2.200                                                                 
     1     21.7055443     23  2.200                                                                 
     3      2.7211652     23  2.300                                                                 
  local pseudopotential read in
  partial core-charges read in
  partial kinetic energy density read in
  atomic valenz-charges read in
  non local Contribution for L=           2  read in
    real space projection operators read in
  non local Contribution for L=           2  read in
    real space projection operators read in
  non local Contribution for L=           0  read in
    real space projection operators read in
  non local Contribution for L=           0  read in
    real space projection operators read in
  non local Contribution for L=           1  read in
    real space projection operators read in
  non local Contribution for L=           1  read in
    real space projection operators read in
    PAW grid and wavefunctions read in
 
   number of l-projection  operators is LMAX  =           6
   number of lm-projection operators is LMMAX =          18
 
  PAW_PBE Cu 22Jun2005                  :
 energy of atom  1       EATOM=-1390.9808
 kinetic energy error for atom=    0.0368 (will be added to EATOM!!)
 
 
 POSCAR: Cu
  positions in cartesian coordinates
  No initial velocities read in
 exchange correlation table for  LEXCH =        8
   RHO(1)=    0.500       N(1)  =     2000
   RHO(2)=  100.500       N(2)  =     4000
 


--------------------------------------------------------------------------------------------------------


 ion  position               nearest neighbor table
   1  0.000  0.000  0.000-   2 2.65   3 2.65   4 2.65   3 2.65   4 2.65   2 2.65   4 2.65   4 2.65
                             2 2.65   3 2.65   3 2.65   2 2.65
   2  0.500  0.500  0.000-   1 2.65   3 2.65   4 2.65   3 2.65   4 2.65   1 2.65   3 2.65   3 2.65
                             1 2.65   4 2.65   4 2.65   1 2.65
   3  0.500  0.000  0.500-   1 2.65   2 2.65   4 2.65   1 2.65   2 2.65   2 2.65   4 2.65   2 2.65
                             1 2.65   4 2.65   1 2.65   4 2.65
   4  0.000  0.500  0.500-   1 2.65   2 2.65   3 2.65   1 2.65   2 2.65   1 2.65   3 2.65   1 2.65
                             2 2.65   3 2.65   2 2.65   3 2.65
 
  LATTYP: Found a simple cubic cell.
 ALAT       =     3.7523382197
  
  Lattice vectors:
  
 A1 = (   3.7523382197,   0.0000000000,   0.0000000000)
 A2 = (   0.0000000000,   3.7523382197,   0.0000000000)
 A3 = (   0.0000000000,   0.0000000000,   3.7523382197)


Analysis of symmetry for initial positions (statically):
=====================================================================
 Subroutine PRICEL returns following result:
 
  LATTYP: Found a face centered cubic cell.
 ALAT       =     3.7523382197
  
  Lattice vectors:
  
 A1 = (   1.8761691098,  -1.8761691098,   0.0000000000)
 A2 = (   1.8761691098,   0.0000000000,   1.8761691098)
 A3 = (   0.0000000000,  -1.8761691098,   1.8761691098)
 
   4 primitive cells build up your supercell.
 

 Routine SETGRP: Setting up the symmetry group for a 
 simple cubic supercell.


 Subroutine GETGRP returns: Found 48 space group operations
 (whereof 48 operations were pure point group operations)
 out of a pool of 48 trial point group operations.


The static configuration has the point symmetry O_h .


Analysis of symmetry for dynamics (positions and initial velocities):
=====================================================================
 Subroutine PRICEL returns following result:
 
  LATTYP: Found a face centered cubic cell.
 ALAT       =     3.7523382197
  
  Lattice vectors:
  
 A1 = (   1.8761691098,  -1.8761691098,   0.0000000000)
 A2 = (   1.8761691098,   0.0000000000,   1.8761691098)
 A3 = (   0.0000000000,  -1.8761691098,   1.8761691098)
 
   4 primitive cells build up your supercell.
 

 Routine SETGRP: Setting up the symmetry group for a 
 simple cubic supercell.


 Subroutine GETGRP returns: Found 48 space group operations
 (whereof 48 operations were pure point group operations)
 out of a pool of 48 trial point group operations.


The dynamic configuration has the point symmetry O_h .


 Subroutine INISYM returns: Found 48 space group operations
 (whereof 48 operations are pure point group operations),
 and found     4 'primitive' translations


----------------------------------------------------------------------------------------

                                     Primitive cell                                     

  volume of cell :      13.2083

  direct lattice vectors                    reciprocal lattice vectors
     1.876169110 -1.876169110  0.000000000     0.266500497 -0.266500497 -0.266500497
     1.876169110  0.000000000  1.876169110     0.266500497  0.266500497  0.266500497
     0.000000000 -1.876169110  1.876169110    -0.266500497 -0.266500497  0.266500497

  length of vectors
     2.653303800  2.653303800  2.653303800     0.461592401  0.461592401  0.461592401

  position of ions in fractional coordinates (direct lattice)
     0.000000000  0.000000000  0.000000000

  ion indices of the primitive-cell ions
   primitive index   ion index
                 1           1

----------------------------------------------------------------------------------------

 
 
 KPOINTS: KPOINTS created by Atomic Simulation Env

Automatic generation of k-mesh.
 Grid dimensions read from file:
 generate k-points for:    9    9    9

 Generating k-lattice:

  Cartesian coordinates                     Fractional coordinates (reciprocal lattice)
     0.029611166  0.000000000  0.000000000     0.111111111  0.000000000  0.000000000
     0.000000000  0.029611166  0.000000000     0.000000000  0.111111111  0.000000000
     0.000000000  0.000000000  0.029611166     0.000000000  0.000000000  0.111111111

  Length of vectors
     0.029611166  0.029611166  0.029611166

  Shift w.r.t. Gamma in fractional coordinates (k-lattice)
     0.000000000  0.000000000  0.000000000

 
 Subroutine IBZKPT returns following result:
 ===========================================
 
 Found     35 irreducible k-points:
 
 Following reciprocal coordinates:
            Coordinates               Weight
  0.000000  0.000000  0.000000      1.000000
  0.111111  0.000000  0.000000      6.000000
  0.222222  0.000000  0.000000      6.000000
  0.333333  0.000000  0.000000      6.000000
  0.444444  0.000000  0.000000      6.000000
  0.111111  0.111111  0.000000     12.000000
  0.222222  0.111111  0.000000     24.000000
  0.333333  0.111111  0.000000     24.000000
  0.444444  0.111111  0.000000     24.000000
  0.222222  0.222222  0.000000     12.000000
  0.333333  0.222222  0.000000     24.000000
  0.444444  0.222222  0.000000     24.000000
  0.333333  0.333333  0.000000     12.000000
  0.444444  0.333333  0.000000     24.000000
  0.444444  0.444444  0.000000     12.000000
  0.111111  0.111111  0.111111      8.000000
  0.222222  0.111111  0.111111     24.000000
  0.333333  0.111111  0.111111     24.000000
  0.444444  0.111111  0.111111     24.000000
  0.222222  0.222222  0.111111     24.000000
  0.333333  0.222222  0.111111     48.000000
  0.444444  0.222222  0.111111     48.000000
  0.333333  0.333333  0.111111     24.000000
  0.444444  0.333333  0.111111     48.000000
  0.444444  0.444444  0.111111     24.000000
  0.222222  0.222222  0.222222      8.000000
  0.333333  0.222222  0.222222     24.000000
  0.444444  0.222222  0.222222     24.000000
  0.333333  0.333333  0.222222     24.000000
  0.444444  0.333333  0.222222     48.000000
  0.444444  0.444444  0.222222     24.000000
  0.333333  0.333333  0.333333      8.000000
  0.444444  0.333333  0.333333     24.000000
  0.444444  0.444444  0.333333     24.000000
  0.444444  0.444444  0.444444      8.000000
 
 Following cartesian coordinates:
            Coordinates               Weight
  0.000000  0.000000  0.000000      1.000000
  0.029611  0.000000  0.000000      6.000000
  0.059222  0.000000  0.000000      6.000000
  0.088833  0.000000  0.000000      6.000000
  0.118445  0.000000  0.000000      6.000000
  0.029611  0.029611  0.000000     12.000000
  0.059222  0.029611  0.000000     24.000000
  0.088833  0.029611  0.000000     24.000000
  0.118445  0.029611  0.000000     24.000000
  0.059222  0.059222  0.000000     12.000000
  0.088833  0.059222  0.000000     24.000000
  0.118445  0.059222  0.000000     24.000000
  0.088833  0.088833  0.000000     12.000000
  0.118445  0.088833  0.000000     24.000000
  0.118445  0.118445  0.000000     12.000000
  0.029611  0.029611  0.029611      8.000000
  0.059222  0.029611  0.029611     24.000000
  0.088833  0.029611  0.029611     24.000000
  0.118445  0.029611  0.029611     24.000000
  0.059222  0.059222  0.029611     24.000000
  0.088833  0.059222  0.029611     48.000000
  0.118445  0.059222  0.029611     48.000000
  0.088833  0.088833  0.029611     24.000000
  0.118445  0.088833  0.029611     48.000000
  0.118445  0.118445  0.029611     24.000000
  0.059222  0.059222  0.059222      8.000000
  0.088833  0.059222  0.059222     24.000000
  0.118445  0.059222  0.059222     24.000000
  0.088833  0.088833  0.059222     24.000000
  0.118445  0.088833  0.059222     48.000000
  0.118445  0.118445  0.059222     24.000000
  0.088833  0.088833  0.088833      8.000000
  0.118445  0.088833  0.088833     24.000000
  0.118445  0.118445  0.088833     24.000000
  0.118445  0.118445  0.118445      8.000000
 


--------------------------------------------------------------------------------------------------------




 Dimension of arrays:
   k-points           NKPTS =     35   k-points in BZ     NKDIM =     35   number of bands    NBANDS=     30
   number of dos      NEDOS =    301   number of ions     NIONS =      4
   non local maximal  LDIM  =      6   non local SUM 2l+1 LMDIM =     18
   total plane-waves  NPLWV =   4096
   max r-space proj   IRMAX =      1   max aug-charges    IRDMAX=   2445
   dimension x,y,z NGX =    16 NGY =   16 NGZ =   16
   dimension x,y,z NGXF=    32 NGYF=   32 NGZF=   32
   support grid    NGXF=    32 NGYF=   32 NGZF=   32
   ions per type =               4
   NGX,Y,Z   is equivalent  to a cutoff of   7.09,  7.09,  7.09 a.u.
   NGXF,Y,Z  is equivalent  to a cutoff of  14.18, 14.18, 14.18 a.u.

 SYSTEM =  unknown system                          
 POSCAR =  Cu                                      

 Startparameter for this run:
   NWRITE =      2    write-flag & timer
   PREC   = normal    normal or accurate (medium, high low for compatibility)
   ISTART =      0    job   : 0-new  1-cont  2-samecut
   ICHARG =      1    charge: 1-file 2-atom 10-const
   ISPIN  =      1    spin polarized calculation?
   LNONCOLLINEAR =      F non collinear calculations
   LSORBIT =      F    spin-orbit coupling
   INIWAV =      1    electr: 0-lowe 1-rand  2-diag
   LASPH  =      F    aspherical Exc in radial PAW
   METAGGA=      F    non-selfconsistent MetaGGA calc.

 Electronic Relaxation 1
   ENCUT  =  320.0 eV  23.52 Ry    4.85 a.u.   5.47  5.47  5.47*2*pi/ulx,y,z
   ENINI  =  320.0     initial cutoff
   ENAUG  =  587.0 eV  augmentation charge cutoff
   NELM   =     60;   NELMIN=  2; NELMDL= -5     # of ELM steps 
   EDIFF  = 0.1E-05   stopping-criterion for ELM
   LREAL  =      F    real-space projection
   NLSPLINE    = F    spline interpolate recip. space projectors
   LCOMPAT=      F    compatible to vasp.4.4
   GGA_COMPAT  = T    GGA compatible to vasp.4.4-vasp.4.6
   LMAXPAW     = -100 max onsite density
   LMAXMIX     =    2 max onsite mixed and CHGCAR
   VOSKOWN=      0    Vosko Wilk Nusair interpolation
   ROPT   =    0.00000
 Ionic relaxation
   EDIFFG = 0.1E-04   stopping-criterion for IOM
   NSW    =      0    number of steps for IOM
   NBLOCK =      1;   KBLOCK =      1    inner block; outer block 
   IBRION =     -1    ionic relax: 0-MD 1-quasi-New 2-CG
   NFREE  =      0    steps in history (QN), initial steepest desc. (CG)
   ISIF   =      2    stress and relaxation
   IWAVPR =      0    prediction:  0-non 1-charg 2-wave 3-comb
   ISYM   =      2    0-nonsym 1-usesym 2-fastsym
   LCORR  =      T    Harris-Foulkes like correction to forces

   POTIM  = 0.5000    time-step for ionic-motion
   TEIN   =    0.0    initial temperature
   TEBEG  =    0.0;   TEEND  =   0.0 temperature during run
   SMASS  =  -3.00    Nose mass-parameter (am)
   estimated Nose-frequenzy (Omega)   =  0.10E-29 period in steps = 0.13E+47 mass=  -0.322E-27a.u.
   SCALEE = 1.0000    scale energy and forces
   NPACO  =    256;   APACO  = 16.0  distance and # of slots for P.C.
   PSTRESS=    0.0 pullay stress

  Mass of Ions in am
   POMASS =  63.55
  Ionic Valenz
   ZVAL   =  11.00
  Atomic Wigner-Seitz radii
   RWIGS  =  -1.00
  virtual crystal weights 
   VCA    =   1.00
   NELECT =      44.0000    total number of electrons
   NUPDOWN=      -1.0000    fix difference up-down

 DOS related values:
   EMIN   =  10.00;   EMAX   =-10.00  energy-range for DOS
   EFERMI =   0.00
   ISMEAR =     1;   SIGMA  =   0.20  broadening in eV -4-tet -1-fermi 0-gaus

 Electronic relaxation 2 (details)
   IALGO  =     38    algorithm
   LDIAG  =      T    sub-space diagonalisation (order eigenvalues)
   LSUBROT=      F    optimize rotation matrix (better conditioning)
   TURBO    =      0    0=normal 1=particle mesh
   IRESTART =      0    0=no restart 2=restart with 2 vectors
   NREBOOT  =      0    no. of reboots
   NMIN     =      0    reboot dimension
   EREF     =   0.00    reference energy to select bands
   IMIX   =      4    mixing-type and parameters
     AMIX     =   0.40;   BMIX     =  1.00
     AMIX_MAG =   1.60;   BMIX_MAG =  1.00
     AMIN     =   0.10
     WC   =   100.;   INIMIX=   1;  MIXPRE=   1;  MAXMIX= -45

 Intra band minimization:
   WEIMIN = 0.0000     energy-eigenvalue tresh-hold
   EBREAK =  0.83E-08  absolut break condition
   DEPER  =   0.30     relativ break condition  

   TIME   =   0.40     timestep for ELM

  volume/ion in A,a.u.               =      13.21        89.13
  Fermi-wavevector in a.u.,A,eV,Ry     =   1.540247  2.910645 32.277935  2.372361
  Thomas-Fermi vector in A             =   2.646361
 
 Write flags
   LWAVE        =      T    write WAVECAR
   LDOWNSAMPLE  =      F    k-point downsampling of WAVECAR
   LCHARG       =      T    write CHGCAR
   LVTOT        =      F    write LOCPOT, total local potential
   LVHAR        =      F    write LOCPOT, Hartree potential only
   LELF         =      F    write electronic localiz. function (ELF)
   LORBIT       =      0    0 simple, 1 ext, 2 COOP (PROOUT), +10 PAW based schemes


 Dipole corrections
   LMONO  =      F    monopole corrections only (constant potential shift)
   LDIPOL =      F    correct potential (dipole corrections)
   IDIPOL =      0    1-x, 2-y, 3-z, 4-all directions 
   EPSILON=  1.0000000 bulk dielectric constant

 Exchange correlation treatment:
   GGA     =    PE    GGA type
   LEXCH   =     8    internal setting for exchange type
   VOSKOWN=      0    Vosko Wilk Nusair interpolation
   LHFCALC =     F    Hartree Fock is set to
   LHFONE  =     F    Hartree Fock one center treatment
   AEXX    =    0.0000 exact exchange contribution

 Linear response parameters
   LEPSILON=     F    determine dielectric tensor
   LRPA    =     F    only Hartree local field effects (RPA)
   LNABLA  =     F    use nabla operator in PAW spheres
   LVEL    =     F    velocity operator in full k-point grid
   LINTERFAST=   F  fast interpolation
   KINTER  =     0    interpolate to denser k-point grid
   CSHIFT  =0.1000    complex shift for real part using Kramers Kronig
   OMEGAMAX=  -1.0    maximum frequency
   DEG_THRESHOLD= 0.2000000E-02 threshold for treating states as degnerate
   RTIME   =   -0.100 relaxation time in fs
  (WPLASMAI=    0.000 imaginary part of plasma frequency in eV, 0.658/RTIME)
   DFIELD  = 0.0000000 0.0000000 0.0000000 field for delta impulse in time
 
 Orbital magnetization related:
   ORBITALMAG=     F  switch on orbital magnetization
   LCHIMAG   =     F  perturbation theory with respect to B field
   DQ        =  0.001000  dq finite difference perturbation B field
   LLRAUG    =     F  two centre corrections for induced B field



--------------------------------------------------------------------------------------------------------


 Static calculation
 charge density and potential will be updated during run
 non-spin polarized calculation
 Variant of blocked Davidson
 Davidson routine will perform the subspace rotation
 perform sub-space diagonalisation
    after iterative eigenvector-optimisation
 modified Broyden-mixing scheme, WC =      100.0
 initial mixing is a Kerker type mixing with AMIX =  0.4000 and BMIX =      1.0000
 Hartree-type preconditioning will be used
 using additional bands            8
 reciprocal scheme for non local part
 use partial core corrections
 calculate Harris-corrections to forces 
   (improved forces if not selfconsistent)
 use gradient corrections 
 use of overlap-Matrix (Vanderbilt PP)
 Methfessel and Paxton  Order N= 1 SIGMA  =   0.20


--------------------------------------------------------------------------------------------------------


  energy-cutoff  :      320.00
  volume of cell :       52.83
      direct lattice vectors                 reciprocal lattice vectors
     3.752338220  0.000000000  0.000000000     0.266500497  0.000000000  0.000000000
     0.000000000  3.752338220  0.000000000     0.000000000  0.266500497  0.000000000
     0.000000000  0.000000000  3.752338220     0.000000000  0.000000000  0.266500497

  length of vectors
     3.752338220  3.752338220  3.752338220     0.266500497  0.266500497  0.266500497


 
 k-points in units of 2pi/SCALE and weight: KPOINTS created by Atomic Simulation Env
   0.00000000  0.00000000  0.00000000       0.001
   0.02961117  0.00000000  0.00000000       0.008
   0.05922233  0.00000000  0.00000000       0.008
   0.08883350  0.00000000  0.00000000       0.008
   0.11844467  0.00000000  0.00000000       0.008
   0.02961117  0.02961117  0.00000000       0.016
   0.05922233  0.02961117  0.00000000       0.033
   0.08883350  0.02961117  0.00000000       0.033
   0.11844467  0.02961117  0.00000000       0.033
   0.05922233  0.05922233  0.00000000       0.016
   0.08883350  0.05922233  0.00000000       0.033
   0.11844467  0.05922233  0.00000000       0.033
   0.08883350  0.08883350  0.00000000       0.016
   0.11844467  0.08883350  0.00000000       0.033
   0.11844467  0.11844467  0.00000000       0.016
   0.02961117  0.02961117  0.02961117       0.011
   0.05922233  0.02961117  0.02961117       0.033
   0.08883350  0.02961117  0.02961117       0.033
   0.11844467  0.02961117  0.02961117       0.033
   0.05922233  0.05922233  0.02961117       0.033
   0.08883350  0.05922233  0.02961117       0.066
   0.11844467  0.05922233  0.02961117       0.066
   0.08883350  0.08883350  0.02961117       0.033
   0.11844467  0.08883350  0.02961117       0.066
   0.11844467  0.11844467  0.02961117       0.033
   0.05922233  0.05922233  0.05922233       0.011
   0.08883350  0.05922233  0.05922233       0.033
   0.11844467  0.05922233  0.05922233       0.033
   0.08883350  0.08883350  0.05922233       0.033
   0.11844467  0.08883350  0.05922233       0.066
   0.11844467  0.11844467  0.05922233       0.033
   0.08883350  0.08883350  0.08883350       0.011
   0.11844467  0.08883350  0.08883350       0.033
   0.11844467  0.11844467  0.08883350       0.033
   0.11844467  0.11844467  0.11844467       0.011
 
 k-points in reciprocal lattice and weights: KPOINTS created by Atomic Simulation Env
   0.00000000  0.00000000  0.00000000       0.001
   0.11111111  0.00000000  0.00000000       0.008
   0.22222222  0.00000000  0.00000000       0.008
   0.33333333  0.00000000  0.00000000       0.008
   0.44444444  0.00000000  0.00000000       0.008
   0.11111111  0.11111111  0.00000000       0.016
   0.22222222  0.11111111  0.00000000       0.033
   0.33333333  0.11111111  0.00000000       0.033
   0.44444444  0.11111111  0.00000000       0.033
   0.22222222  0.22222222  0.00000000       0.016
   0.33333333  0.22222222  0.00000000       0.033
   0.44444444  0.22222222  0.00000000       0.033
   0.33333333  0.33333333  0.00000000       0.016
   0.44444444  0.33333333  0.00000000       0.033
   0.44444444  0.44444444  0.00000000       0.016
   0.11111111  0.11111111  0.11111111       0.011
   0.22222222  0.11111111  0.11111111       0.033
   0.33333333  0.11111111  0.11111111       0.033
   0.44444444  0.11111111  0.11111111       0.033
   0.22222222  0.22222222  0.11111111       0.033
   0.33333333  0.22222222  0.11111111       0.066
   0.44444444  0.22222222  0.11111111       0.066
   0.33333333  0.33333333  0.11111111       0.033
   0.44444444  0.33333333  0.11111111       0.066
   0.44444444  0.44444444  0.11111111       0.033
   0.22222222  0.22222222  0.22222222       0.011
   0.33333333  0.22222222  0.22222222       0.033
   0.44444444  0.22222222  0.22222222       0.033
   0.33333333  0.33333333  0.22222222       0.033
   0.44444444  0.33333333  0.22222222       0.066
   0.44444444  0.44444444  0.22222222       0.033
   0.33333333  0.33333333  0.33333333       0.011
   0.44444444  0.33333333  0.33333333       0.033
   0.44444444  0.44444444  0.33333333       0.033
   0.44444444  0.44444444  0.44444444       0.011
 
 position of ions in fractional coordinates (direct lattice) 
   0.00000000  0.00000000  0.00000000
   0.50000000  0.50000000  0.00000000
   0.50000000  0.00000000  0.50000000
   0.00000000  0.50000000  0.50000000
 
 position of ions in cartesian coordinates  (Angst):
   0.00000000  0.00000000  0.00000000
   1.87616911  1.87616911  0.00000000
   1.87616911  0.00000000  1.87616911
   0.00000000  1.87616911  1.87616911
 


--------------------------------------------------------------------------------------------------------


 k-point   1 :   0.0000 0.0000 0.0000  plane waves:     691
 k-point   2 :   0.1111 0.0000 0.0000  plane waves:     711
 k-point   3 :   0.2222 0.0000 0.0000  plane waves:     695
 k-point   4 :   0.3333 0.0000 0.0000  plane waves:     687
 k-point   5 :   0.4444 0.0000 0.0000  plane waves:     695
 k-point   6 :   0.1111 0.1111 0.0000  plane waves:     697
 k-point   7 :   0.2222 0.1111 0.0000  plane waves:     691
 k-point   8 :   0.3333 0.1111 0.0000  plane waves:     689
 k-point   9 :   0.4444 0.1111 0.0000  plane waves:     683
 k-point  10 :   0.2222 0.2222 0.0000  plane waves:     690
 k-point  11 :   0.3333 0.2222 0.0000  plane waves:     686
 k-point  12 :   0.4444 0.2222 0.0000  plane waves:     686
 k-point  13 :   0.3333 0.3333 0.0000  plane waves:     700
 k-point  14 :   0.4444 0.3333 0.0000  plane waves:     691
 k-point  15 :   0.4444 0.4444 0.0000  plane waves:     688
 k-point  16 :   0.1111 0.1111 0.1111  plane waves:     697
 k-point  17 :   0.2222 0.1111 0.1111  plane waves:     691
 k-point  18 :   0.3333 0.1111 0.1111  plane waves:     687
 k-point  19 :   0.4444 0.1111 0.1111  plane waves:     687
 k-point  20 :   0.2222 0.2222 0.1111  plane waves:     691
 k-point  21 :   0.3333 0.2222 0.1111  plane waves:     694
 k-point  22 :   0.4444 0.2222 0.1111  plane waves:     688
 k-point  23 :   0.3333 0.3333 0.1111  plane waves:     690
 k-point  24 :   0.4444 0.3333 0.1111  plane waves:     687
 k-point  25 :   0.4444 0.4444 0.1111  plane waves:     683
 k-point  26 :   0.2222 0.2222 0.2222  plane waves:     693
 k-point  27 :   0.3333 0.2222 0.2222  plane waves:     687
 k-point  28 :   0.4444 0.2222 0.2222  plane waves:     676
 k-point  29 :   0.3333 0.3333 0.2222  plane waves:     686
 k-point  30 :   0.4444 0.3333 0.2222  plane waves:     682
 k-point  31 :   0.4444 0.4444 0.2222  plane waves:     684
 k-point  32 :   0.3333 0.3333 0.3333  plane waves:     675
 k-point  33 :   0.4444 0.3333 0.3333  plane waves:     675
 k-point  34 :   0.4444 0.4444 0.3333  plane waves:     677
 k-point  35 :   0.4444 0.4444 0.4444  plane waves:     675

 maximum number of plane-waves:       711
 maximum index in each direction: 
   IXMAX=    5   IYMAX=    5   IZMAX=    5
   IXMIN=   -5   IYMIN=   -5   IZMIN=   -5


 total amount of memory used by VASP MPI-rank0    48650. kBytes
=======================================================================

   base      :      30000. kBytes
   nonl-proj :       3628. kBytes
   grid      :       1806. kBytes
   one-center:         62. kBytes
   wavefun   :      13154. kBytes
 
     INWAV:  cpu time    0.0000: real time    0.0000
 Broyden mixing: mesh for mixing (old mesh)
   NGX = 11   NGY = 11   NGZ = 11
  (NGX  = 32   NGY  = 32   NGZ  = 32)
  gives a total of   1331 points

 initial charge density was supplied:
 charge density of overlapping atoms calculated
 number of electron      44.0000000 magnetization 
 keeping initial charge density in first step


--------------------------------------------------------------------------------------------------------


 Maximum index for augmentation-charges         2109 (set IRDMAX)


--------------------------------------------------------------------------------------------------------


 First call to EWALD:  gamma=   0.472
 Maximum number of real-space cells 3x 3x 3
 Maximum number of reciprocal cells 3x 3x 3

    FEWALD:  cpu time    0.0009: real time    0.0009


--------------------------------------- Iteration      1(   1)  ---------------------------------------


    POTLOK:  cpu time    0.0075: real time    0.0075
    SETDIJ:  cpu time    0.0038: real time    0.0038
     EDDAV:  cpu time    0.4651: real time    0.4844
       DOS:  cpu time    0.0024: real time    0.0024
    --------------------------------------------
      LOOP:  cpu time    0.4788: real time    0.4981

 eigenvalue-minimisations  :  2212
 total energy-change (2. order) : 0.2860943E+03  (-0.1462317E+04)
 number of electron      44.0000000 magnetization 
 augmentation part       44.0000000 magnetization 

 Free energy of the ion-electron system (eV)
  ---------------------------------------------------
  alpha Z        PSCENC =       221.47579804
  Ewald energy   TEWEN  =     -4257.90279123
  -Hartree energ DENC   =     -1536.17563056
  -exchange      EXHF   =         0.00000000
  -V(xc)+E(xc)   XCENC  =       181.95951199
  PAW double counting   =      4912.82663951    -5336.19386850
  entropy T*S    EENTRO =         0.00247082
  eigenvalues    EBANDS =       536.32602864
  atomic energy  EATOM  =      5563.77610493
  Solvation  Ediel_sol  =         0.00000000
  ---------------------------------------------------
  free energy    TOTEN  =       286.09426363 eV

  energy without entropy =      286.09179281  energy(sigma->0) =      286.09344002


--------------------------------------------------------------------------------------------------------




--------------------------------------- Iteration      1(   2)  ---------------------------------------


     EDDAV:  cpu time    0.4210: real time    0.4210
       DOS:  cpu time    0.0027: real time    0.0028
    --------------------------------------------
      LOOP:  cpu time    0.4237: real time    0.4238

 eigenvalue-minimisations  :  2100
 total energy-change (2. order) :-0.2829600E+03  (-0.2731568E+03)
 number of electron      44.0000000 magnetization 
 augmentation part       44.0000000 magnetization 

 Free energy of the ion-electron system (eV)
  ---------------------------------------------------
  alpha Z        PSCENC =       221.47579804
  Ewald energy   TEWEN  =     -4257.90279123
  -Hartree energ DENC   =     -1536.17563056
  -exchange      EXHF   =         0.00000000
  -V(xc)+E(xc)   XCENC  =       181.95951199
  PAW double counting   =      4912.82663951    -5336.19386850
  entropy T*S    EENTRO =        -0.00227166
  eigenvalues    EBANDS =       253.37080709
  atomic energy  EATOM  =      5563.77610493
  Solvation  Ediel_sol  =         0.00000000
  ---------------------------------------------------
  free energy    TOTEN  =         3.13429960 eV

  energy without entropy =        3.13657126  energy(sigma->0) =        3.13505682


--------------------------------------------------------------------------------------------------------




--------------------------------------- Iteration      1(   3)  ---------------------------------------


     EDDAV:  cpu time    0.4660: real time    0.4660
       DOS:  cpu time    0.0028: real time    0.0028
    --------------------------------------------
      LOOP:  cpu time    0.4688: real time    0.4688

 eigenvalue-minimisations  :  2334
 total energy-change (2. order) :-0.2085274E+02  (-0.1984990E+02)
 number of electron      44.0000000 magnetization 
 augmentation part       44.0000000 magnetization 

 Free energy of the ion-electron system (eV)
  ---------------------------------------------------
  alpha Z        PSCENC =       221.47579804
  Ewald energy   TEWEN  =     -4257.90279123
  -Hartree energ DENC   =     -1536.17563056
  -exchange      EXHF   =         0.00000000
  -V(xc)+E(xc)   XCENC  =       181.95951199
  PAW double counting   =      4912.82663951    -5336.19386850
  entropy T*S    EENTRO =        -0.00311342
  eigenvalues    EBANDS =       232.51890990
  atomic energy  EATOM  =      5563.77610493
  Solvation  Ediel_sol  =         0.00000000
  ---------------------------------------------------
  free energy    TOTEN  =       -17.71843935 eV

  energy without entropy =      -17.71532593  energy(sigma->0) =      -17.71740154


--------------------------------------------------------------------------------------------------------




--------------------------------------- Iteration      1(   4)  ---------------------------------------


     EDDAV:  cpu time    0.4662: real time    0.4662
       DOS:  cpu time    0.0027: real time    0.0027
    --------------------------------------------
      LOOP:  cpu time    0.4689: real time    0.4689

 eigenvalue-minimisations  :  2400
 total energy-change (2. order) :-0.4110323E+00  (-0.4104825E+00)
 number of electron      44.0000000 magnetization 
 augmentation part       44.0000000 magnetization 

 Free energy of the ion-electron system (eV)
  ---------------------------------------------------
  alpha Z        PSCENC =       221.47579804
  Ewald energy   TEWEN  =     -4257.90279123
  -Hartree energ DENC   =     -1536.17563056
  -exchange      EXHF   =         0.00000000
  -V(xc)+E(xc)   XCENC  =       181.95951199
  PAW double counting   =      4912.82663951    -5336.19386850
  entropy T*S    EENTRO =        -0.00283168
  eigenvalues    EBANDS =       232.10759589
  atomic energy  EATOM  =      5563.77610493
  Solvation  Ediel_sol  =         0.00000000
  ---------------------------------------------------
  free energy    TOTEN  =       -18.12947161 eV

  energy without entropy =      -18.12663994  energy(sigma->0) =      -18.12852772


--------------------------------------------------------------------------------------------------------




--------------------------------------- Iteration      1(   5)  ---------------------------------------


     EDDAV:  cpu time    0.5145: real time    0.5145
       DOS:  cpu time    0.0028: real time    0.0028
    CHARGE:  cpu time    0.0331: real time    0.0331
    MIXING:  cpu time    0.0003: real time    0.0003
    --------------------------------------------
      LOOP:  cpu time    0.5507: real time    0.5507

 eigenvalue-minimisations  :  2748
 total energy-change (2. order) :-0.4682683E-02  (-0.4682545E-02)
 number of electron      44.0000893 magnetization 
 augmentation part       26.0305786 magnetization 

 Broyden mixing:
  rms(total) = 0.14841E+01    rms(broyden)= 0.14838E+01
  rms(prec ) = 0.34433E+01
  weight for this iteration     100.00

 Free energy of the ion-electron system (eV)
  ---------------------------------------------------
  alpha Z        PSCENC =       221.47579804
  Ewald energy   TEWEN  =     -4257.90279123
  -Hartree energ DENC   =     -1536.17563056
  -exchange      EXHF   =         0.00000000
  -V(xc)+E(xc)   XCENC  =       181.95951199
  PAW double counting   =      4912.82663951    -5336.19386850
  entropy T*S    EENTRO =        -0.00283106
  eigenvalues    EBANDS =       232.10291259
  atomic energy  EATOM  =      5563.77610493
  Solvation  Ediel_sol  =         0.00000000
  ---------------------------------------------------
  free energy    TOTEN  =       -18.13415430 eV

  energy without entropy =      -18.13132324  energy(sigma->0) =      -18.13321061


--------------------------------------------------------------------------------------------------------




--------------------------------------- Iteration      1(   6)  ---------------------------------------


    POTLOK:  cpu time    0.0072: real time    0.0072
    SETDIJ:  cpu time    0.0037: real time    0.0037
     EDDAV:  cpu time    0.4287: real time    0.4287
       DOS:  cpu time    0.0025: real time    0.0025
    CHARGE:  cpu time    0.0306: real time    0.0306
    MIXING:  cpu time    0.0003: real time    0.0003
    --------------------------------------------
      LOOP:  cpu time    0.4731: real time    0.4731

 eigenvalue-minimisations  :  2304
 total energy-change (2. order) : 0.1639780E+01  (-0.3145745E+01)
 number of electron      44.0000979 magnetization 
 augmentation part       29.4674108 magnetization 

 Broyden mixing:
  rms(total) = 0.88117E+00    rms(broyden)= 0.88064E+00
  rms(prec ) = 0.18602E+01
  weight for this iteration     100.00

 eigenvalues of (default mixing * dielectric matrix)
  average eigenvalue GAMMA=   0.6277
  0.6277

 Free energy of the ion-electron system (eV)
  ---------------------------------------------------
  alpha Z        PSCENC =       221.47579804
  Ewald energy   TEWEN  =     -4257.90279123
  -Hartree energ DENC   =     -1422.77258956
  -exchange      EXHF   =         0.00000000
  -V(xc)+E(xc)   XCENC  =       176.41041700
  PAW double counting   =      4919.98584299    -5320.17525555
  entropy T*S    EENTRO =         0.00072539
  eigenvalues    EBANDS =       102.70737408
  atomic energy  EATOM  =      5563.77610493
  Solvation  Ediel_sol  =         0.00000000
  ---------------------------------------------------
  free energy    TOTEN  =       -16.49437392 eV

  energy without entropy =      -16.49509931  energy(sigma->0) =      -16.49461571


--------------------------------------------------------------------------------------------------------




--------------------------------------- Iteration      1(   7)  ---------------------------------------


    POTLOK:  cpu time    0.0068: real time    0.0068
    SETDIJ:  cpu time    0.0037: real time    0.0037
     EDDAV:  cpu time    0.4414: real time    0.4414
       DOS:  cpu time    0.0026: real time    0.0026
    CHARGE:  cpu time    0.0310: real time    0.0310
    MIXING:  cpu time    0.0003: real time    0.0003
    --------------------------------------------
      LOOP:  cpu time    0.4858: real time    0.4858

 eigenvalue-minimisations  :  2366
 total energy-change (2. order) : 0.1684528E+01  (-0.6390440E+00)
 number of electron      44.0000944 magnetization 
 augmentation part       28.1179073 magnetization 

 Broyden mixing:
  rms(total) = 0.81758E-01    rms(broyden)= 0.81371E-01
  rms(prec ) = 0.19931E+00
  weight for this iteration     100.00

 eigenvalues of (default mixing * dielectric matrix)
  average eigenvalue GAMMA=   1.2868
  1.9499  0.6238

 Free energy of the ion-electron system (eV)
  ---------------------------------------------------
  alpha Z        PSCENC =       221.47579804
  Ewald energy   TEWEN  =     -4257.90279123
  -Hartree energ DENC   =     -1460.75030227
  -exchange      EXHF   =         0.00000000
  -V(xc)+E(xc)   XCENC  =       178.37736121
  PAW double counting   =      5006.88070997    -5426.17698208
  entropy T*S    EENTRO =         0.00277372
  eigenvalues    EBANDS =       159.50748152
  atomic energy  EATOM  =      5563.77610493
  Solvation  Ediel_sol  =         0.00000000
  ---------------------------------------------------
  free energy    TOTEN  =       -14.80984618 eV

  energy without entropy =      -14.81261990  energy(sigma->0) =      -14.81077075


--------------------------------------------------------------------------------------------------------




--------------------------------------- Iteration      1(   8)  ---------------------------------------


    POTLOK:  cpu time    0.0069: real time    0.0069
    SETDIJ:  cpu time    0.0036: real time    0.0036
     EDDAV:  cpu time    0.5069: real time    0.5070
       DOS:  cpu time    0.0026: real time    0.0026
    CHARGE:  cpu time    0.0325: real time    0.0325
    MIXING:  cpu time    0.0004: real time    0.0004
    --------------------------------------------
      LOOP:  cpu time    0.5529: real time    0.5529

 eigenvalue-minimisations  :  2774
 total energy-change (2. order) : 0.1611301E-01  (-0.1066197E-01)
 number of electron      44.0000940 magnetization 
 augmentation part       28.0162506 magnetization 

 Broyden mixing:
  rms(total) = 0.86608E-01    rms(broyden)= 0.86578E-01
  rms(prec ) = 0.20613E+00
  weight for this iteration     100.00

 eigenvalues of (default mixing * dielectric matrix)
  average eigenvalue GAMMA=   1.3034
  0.6658  0.8244  2.4199

 Free energy of the ion-electron system (eV)
  ---------------------------------------------------
  alpha Z        PSCENC =       221.47579804
  Ewald energy   TEWEN  =     -4257.90279123
  -Hartree energ DENC   =     -1453.66975407
  -exchange      EXHF   =         0.00000000
  -V(xc)+E(xc)   XCENC  =       178.12715676
  PAW double counting   =      5110.35811743    -5538.41909894
  entropy T*S    EENTRO =         0.00276304
  eigenvalues    EBANDS =       161.45797087
  atomic energy  EATOM  =      5563.77610493
  Solvation  Ediel_sol  =         0.00000000
  ---------------------------------------------------
  free energy    TOTEN  =       -14.79373317 eV

  energy without entropy =      -14.79649621  energy(sigma->0) =      -14.79465418


--------------------------------------------------------------------------------------------------------




--------------------------------------- Iteration      1(   9)  ---------------------------------------


    POTLOK:  cpu time    0.0070: real time    0.0070
    SETDIJ:  cpu time    0.0037: real time    0.0037
     EDDAV:  cpu time    0.4466: real time    0.4466
       DOS:  cpu time    0.0026: real time    0.0026
    CHARGE:  cpu time    0.0312: real time    0.0312
    MIXING:  cpu time    0.0003: real time    0.0003
    --------------------------------------------
      LOOP:  cpu time    0.4914: real time    0.4914

 eigenvalue-minimisations  :  2414
 total energy-change (2. order) : 0.1298132E-01  (-0.3648554E-02)
 number of electron      44.0000944 magnetization 
 augmentation part       28.1376488 magnetization 

 Broyden mixing:
  rms(total) = 0.51642E-02    rms(broyden)= 0.51167E-02
  rms(prec ) = 0.10172E-01
  weight for this iteration     100.00

 eigenvalues of (default mixing * dielectric matrix)
  average eigenvalue GAMMA=   1.5542
  0.6560  0.9076  2.6889  1.9643

 Free energy of the ion-electron system (eV)
  ---------------------------------------------------
  alpha Z        PSCENC =       221.47579804
  Ewald energy   TEWEN  =     -4257.90279123
  -Hartree energ DENC   =     -1446.92311992
  -exchange      EXHF   =         0.00000000
  -V(xc)+E(xc)   XCENC  =       177.82578413
  PAW double counting   =      5135.79195375    -5565.17032438
  entropy T*S    EENTRO =         0.00279280
  eigenvalues    EBANDS =       156.34305004
  atomic energy  EATOM  =      5563.77610493
  Solvation  Ediel_sol  =         0.00000000
  ---------------------------------------------------
  free energy    TOTEN  =       -14.78075185 eV

  energy without entropy =      -14.78354465  energy(sigma->0) =      -14.78168278


--------------------------------------------------------------------------------------------------------




--------------------------------------- Iteration      1(  10)  ---------------------------------------


    POTLOK:  cpu time    0.0070: real time    0.0070
    SETDIJ:  cpu time    0.0037: real time    0.0037
     EDDAV:  cpu time    0.4930: real time    0.4931
       DOS:  cpu time    0.0027: real time    0.0028
    CHARGE:  cpu time    0.0323: real time    0.0323
    MIXING:  cpu time    0.0004: real time    0.0004
    --------------------------------------------
      LOOP:  cpu time    0.5391: real time    0.5391

 eigenvalue-minimisations  :  2744
 total energy-change (2. order) :-0.9957401E-04  (-0.1030674E-03)
 number of electron      44.0000943 magnetization 
 augmentation part       28.1320150 magnetization 

 Broyden mixing:
  rms(total) = 0.12619E-02    rms(broyden)= 0.12612E-02
  rms(prec ) = 0.14898E-02
  weight for this iteration     100.00

 eigenvalues of (default mixing * dielectric matrix)
  average eigenvalue GAMMA=   1.4686
  2.6296  2.4127  0.8800  0.6530  0.7680

 Free energy of the ion-electron system (eV)
  ---------------------------------------------------
  alpha Z        PSCENC =       221.47579804
  Ewald energy   TEWEN  =     -4257.90279123
  -Hartree energ DENC   =     -1447.31420096
  -exchange      EXHF   =         0.00000000
  -V(xc)+E(xc)   XCENC  =       177.84477906
  PAW double counting   =      5131.72465847    -5560.97440974
  entropy T*S    EENTRO =         0.00278967
  eigenvalues    EBANDS =       156.58642034
  atomic energy  EATOM  =      5563.77610493
  Solvation  Ediel_sol  =         0.00000000
  ---------------------------------------------------
  free energy    TOTEN  =       -14.78085142 eV

  energy without entropy =      -14.78364109  energy(sigma->0) =      -14.78178131


--------------------------------------------------------------------------------------------------------




--------------------------------------- Iteration      1(  11)  ---------------------------------------


    POTLOK:  cpu time    0.0069: real time    0.0069
    SETDIJ:  cpu time    0.0037: real time    0.0037
     EDDAV:  cpu time    0.4643: real time    0.4643
       DOS:  cpu time    0.0026: real time    0.0026
    CHARGE:  cpu time    0.0328: real time    0.0328
    MIXING:  cpu time    0.0004: real time    0.0004
    --------------------------------------------
      LOOP:  cpu time    0.5107: real time    0.5108

 eigenvalue-minimisations  :  2392
 total energy-change (2. order) : 0.1751026E-05  (-0.1869156E-05)
 number of electron      44.0000943 magnetization 
 augmentation part       28.1324830 magnetization 

 Broyden mixing:
  rms(total) = 0.76645E-03    rms(broyden)= 0.76628E-03
  rms(prec ) = 0.18683E-02
  weight for this iteration     100.00

 eigenvalues of (default mixing * dielectric matrix)
  average eigenvalue GAMMA=   1.4928
  2.6127  2.4981  0.6551  0.9523  1.0300  1.2088

 Free energy of the ion-electron system (eV)
  ---------------------------------------------------
  alpha Z        PSCENC =       221.47579804
  Ewald energy   TEWEN  =     -4257.90279123
  -Hartree energ DENC   =     -1447.47600275
  -exchange      EXHF   =         0.00000000
  -V(xc)+E(xc)   XCENC  =       177.85199830
  PAW double counting   =      5127.92225191    -5557.01333446
  entropy T*S    EENTRO =         0.00278849
  eigenvalues    EBANDS =       156.58233710
  atomic energy  EATOM  =      5563.77610493
  Solvation  Ediel_sol  =         0.00000000
  ---------------------------------------------------
  free energy    TOTEN  =       -14.78084967 eV

  energy without entropy =      -14.78363816  energy(sigma->0) =      -14.78177917


--------------------------------------------------------------------------------------------------------




--------------------------------------- Iteration      1(  12)  ---------------------------------------


    POTLOK:  cpu time    0.0068: real time    0.0068
    SETDIJ:  cpu time    0.0036: real time    0.0036
     EDDAV:  cpu time    0.3046: real time    0.3046
       DOS:  cpu time    0.0025: real time    0.0025
    CHARGE:  cpu time    0.0310: real time    0.0310
    MIXING:  cpu time    0.0004: real time    0.0004
    --------------------------------------------
      LOOP:  cpu time    0.3491: real time    0.3491

 eigenvalue-minimisations  :  1394
 total energy-change (2. order) :-0.2761122E-05  (-0.9861485E-07)
 number of electron      44.0000943 magnetization 
 augmentation part       28.1332127 magnetization 

 Broyden mixing:
  rms(total) = 0.74349E-04    rms(broyden)= 0.73741E-04
  rms(prec ) = 0.15185E-03
  weight for this iteration     100.00

 eigenvalues of (default mixing * dielectric matrix)
  average eigenvalue GAMMA=   1.5663
  2.7102  2.3560  2.3560  0.6551  0.9654  0.9654  0.9562

 Free energy of the ion-electron system (eV)
  ---------------------------------------------------
  alpha Z        PSCENC =       221.47579804
  Ewald energy   TEWEN  =     -4257.90279123
  -Hartree energ DENC   =     -1447.37618845
  -exchange      EXHF   =         0.00000000
  -V(xc)+E(xc)   XCENC  =       177.84775367
  PAW double counting   =      5128.64987121    -5557.79865555
  entropy T*S    EENTRO =         0.00278890
  eigenvalues    EBANDS =       156.54446605
  atomic energy  EATOM  =      5563.77610493
  Solvation  Ediel_sol  =         0.00000000
  ---------------------------------------------------
  free energy    TOTEN  =       -14.78085243 eV

  energy without entropy =      -14.78364133  energy(sigma->0) =      -14.78178206


--------------------------------------------------------------------------------------------------------




--------------------------------------- Iteration      1(  13)  ---------------------------------------


    POTLOK:  cpu time    0.0070: real time    0.0070
    SETDIJ:  cpu time    0.0036: real time    0.0036
     EDDAV:  cpu time    0.2992: real time    0.2992
       DOS:  cpu time    0.0026: real time    0.0026
    --------------------------------------------
      LOOP:  cpu time    0.3125: real time    0.3125

 eigenvalue-minimisations  :  1320
 total energy-change (2. order) :-0.3208424E-06  (-0.3661370E-07)
 number of electron      44.0000943 magnetization 
 augmentation part       28.1332127 magnetization 

 Free energy of the ion-electron system (eV)
  ---------------------------------------------------
  alpha Z        PSCENC =       221.47579804
  Ewald energy   TEWEN  =     -4257.90279123
  -Hartree energ DENC   =     -1447.37583170
  -exchange      EXHF   =         0.00000000
  -V(xc)+E(xc)   XCENC  =       177.84767865
  PAW double counting   =      5128.61049138    -5557.76075949
  entropy T*S    EENTRO =         0.00278893
  eigenvalues    EBANDS =       156.54566774
  atomic energy  EATOM  =      5563.77610493
  Solvation  Ediel_sol  =         0.00000000
  ---------------------------------------------------
  free energy    TOTEN  =       -14.78085275 eV

  energy without entropy =      -14.78364168  energy(sigma->0) =      -14.78178239


--------------------------------------------------------------------------------------------------------




 average (electrostatic) potential at core
  the test charge radii are     0.9430
  (the norm of the test charge is              1.0000)
       1 -64.7614       2 -64.7614       3 -64.7614       4 -64.7614
 
 
 
 E-fermi :   6.2103     XC(G=0): -12.0906     alpha+bet :-12.0033

 Fermi energy:         6.2103423111

 k-point     1 :       0.0000    0.0000    0.0000
  band No.  band energies     occupation 
      1      -2.2569      2.00000
      2       2.0139      2.00000
      3       2.0139      2.00000
      4       2.0139      2.00000
      5       2.4022      2.00000
      6       2.4022      2.00000
      7       2.4022      2.00000
      8       3.5716      2.00000
      9       3.5716      2.00000
     10       3.5716      2.00000
     11       4.2661      2.00000
     12       4.2661      2.00000
     13       4.7297      2.00000
     14       4.7297      2.00000
     15       4.7297      2.00000
     16       4.8608      2.00000
     17       4.8608      2.00000
     18       4.8608      2.00000
     19       4.8608      2.00000
     20       4.8608      2.00000
     21       4.8608      2.00000
     22       7.8576     -0.00000
     23       7.8576     -0.00000
     24       7.8576     -0.00000
     25      12.6411      0.00000
     26      12.6411      0.00000
     27      12.6411      0.00000
     28      18.5166      0.00000
     29      18.5166      0.00000
     30      18.5166      0.00000

 k-point     2 :       0.1111    0.0000    0.0000
  band No.  band energies     occupation 
      1      -2.1185      2.00000
      2       2.0071      2.00000
      3       2.0743      2.00000
      4       2.0743      2.00000
      5       2.4358      2.00000
      6       2.4379      2.00000
      7       2.4379      2.00000
      8       3.5348      2.00000
      9       3.6017      2.00000
     10       3.6017      2.00000
     11       4.2328      2.00000
     12       4.2798      2.00000
     13       4.6604      2.00000
     14       4.6604      2.00000
     15       4.6861      2.00000
     16       4.6861      2.00000
     17       4.7150      2.00000
     18       4.8098      2.00000
     19       4.8098      2.00000
     20       4.8608      2.00000
     21       4.8608      2.00000
     22       7.0055     -0.00000
     23       8.1847     -0.00000
     24       8.1847     -0.00000
     25      12.6985      0.00000
     26      12.6985      0.00000
     27      13.7784      0.00000
     28      17.6489      0.00000
     29      17.6490      0.00000
     30      17.9061      0.00000

 k-point     3 :       0.2222    0.0000    0.0000
  band No.  band energies     occupation 
      1      -1.7079      2.00000
      2       1.9323      2.00000
      3       2.2405      2.00000
      4       2.2405      2.00000
      5       2.5336      2.00000
      6       2.5467      2.00000
      7       2.5467      2.00000
      8       3.4292      2.00000
      9       3.6906      2.00000
     10       3.6906      2.00000
     11       4.1399      2.00000
     12       4.2263      2.00000
     13       4.2263      2.00000
     14       4.3193      2.00000
     15       4.5644      2.00000
     16       4.5644      2.00000
     17       4.6689      2.00000
     18       4.6689      2.00000
     19       4.6740      2.00000
     20       4.8609      2.00000
     21       4.8609      2.00000
     22       5.5435      2.00003
     23       8.9979     -0.00000
     24       8.9979     -0.00000
     25      12.8798      0.00000
     26      12.8798      0.00000
     27      16.0476      0.00000
     28      16.0476      0.00000
     29      16.1410      0.00000
     30      16.6878      0.00000

 k-point     4 :       0.3333    0.0000    0.0000
  band No.  band energies     occupation 
      1      -1.0424      2.00000
      2       1.5917      2.00000
      3       2.4603      2.00000
      4       2.4603      2.00000
      5       2.6845      2.00000
      6       2.7314      2.00000
      7       2.7314      2.00000
      8       3.2691      2.00000
      9       3.7587      2.00000
     10       3.7587      2.00000
     11       3.8339      2.00000
     12       3.8339      2.00000
     13       4.0115      2.00000
     14       4.3800      2.00000
     15       4.3953      2.00000
     16       4.3953      2.00000
     17       4.4093      2.00000
     18       4.4676      2.00000
     19       4.4676      2.00000
     20       4.6115      2.00000
     21       4.8611      2.00000
     22       4.8611      2.00000
     23      10.0927     -0.00000
     24      10.0927     -0.00000
     25      13.2112      0.00000
     26      13.2112      0.00000
     27      14.3903      0.00000
     28      14.3903      0.00000
     29      15.4792      0.00000
     30      15.4792      0.00000

 k-point     5 :       0.4444    0.0000    0.0000
  band No.  band energies     occupation 
      1      -0.1653      2.00000
      2       0.8080      2.00000
      3       2.6318      2.00000
      4       2.6318      2.00000
      5       2.8723      2.00000
      6       2.9949      2.00000
      7       2.9949      2.00000
      8       3.0753      2.00000
      9       3.3395      2.00000
     10       3.3395      2.00000
     11       3.9014      2.00000
     12       3.9373      2.00000
     13       4.0227      2.00000
     14       4.0227      2.00000
     15       4.2418      2.00000
     16       4.2418      2.00000
     17       4.2567      2.00000
     18       4.2567      2.00000
     19       4.4550      2.00000
     20       4.5354      2.00000
     21       4.8612      2.00000
     22       4.8612      2.00000
     23      11.3793     -0.00000
     24      11.3793     -0.00000
     25      12.8202      0.00000
     26      12.8202      0.00000
     27      13.7313      0.00000
     28      13.7313      0.00000
     29      14.4807      0.00000
     30      14.4807      0.00000

 k-point     6 :       0.1111    0.1111    0.0000
  band No.  band energies     occupation 
      1      -1.9810      2.00000
      2       2.0705      2.00000
      3       2.0705      2.00000
      4       2.1321      2.00000
      5       2.4706      2.00000
      6       2.4706      2.00000
      7       2.4718      2.00000
      8       3.5153      2.00000
      9       3.6157      2.00000
     10       3.6263      2.00000
     11       4.2244      2.00000
     12       4.2741      2.00000
     13       4.5243      2.00000
     14       4.5649      2.00000
     15       4.5649      2.00000
     16       4.6462      2.00000
     17       4.7002      2.00000
     18       4.7002      2.00000
     19       4.8097      2.00000
     20       4.8097      2.00000
     21       4.8276      2.00000
     22       7.3215     -0.00000
     23       7.3215     -0.00000
     24       8.4812     -0.00000
     25      12.7579      0.00000
     26      13.8629      0.00000
     27      13.8629      0.00000
     28      16.0315      0.00000
     29      17.8297      0.00000
     30      17.8311      0.00000

 k-point     7 :       0.2222    0.1111    0.0000
  band No.  band energies     occupation 
      1      -1.5733      2.00000
      2       2.0051      2.00000
      3       2.2452      2.00000
      4       2.2907      2.00000
      5       2.5647      2.00000
      6       2.5736      2.00000
      7       2.5757      2.00000
      8       3.4225      2.00000
      9       3.6957      2.00000
     10       3.6964      2.00000
     11       4.1286      2.00000
     12       4.1486      2.00000
     13       4.1570      2.00000
     14       4.3152      2.00000
     15       4.3492      2.00000
     16       4.5329      2.00000
     17       4.5743      2.00000
     18       4.6627      2.00000
     19       4.6682      2.00000
     20       4.8092      2.00000
     21       4.8102      2.00000
     22       5.9104      2.05533
     23       8.0587     -0.00000
     24       9.2461     -0.00000
     25      12.9437      0.00000
     26      14.1260      0.00000
     27      14.3011      0.00000
     28      16.2173      0.00000
     29      16.2441      0.00000
     30      16.8445      0.00000

 k-point     8 :       0.3333    0.1111    0.0000
  band No.  band energies     occupation 
      1      -0.9134      2.00000
      2       1.6802      2.00000
      3       2.4790      2.00000
      4       2.5048      2.00000
      5       2.7103      2.00000
      6       2.7391      2.00000
      7       2.7537      2.00000
      8       3.2711      2.00000
      9       3.6724      2.00000
     10       3.7297      2.00000
     11       3.7845      2.00000
     12       3.8359      2.00000
     13       4.0083      2.00000
     14       4.0608      2.00000
     15       4.3751      2.00000
     16       4.3910      2.00000
     17       4.4060      2.00000
     18       4.4668      2.00000
     19       4.5580      2.00000
     20       4.8066      2.00000
     21       4.8083      2.00000
     22       4.9472      2.00000
     23       9.0037     -0.00000
     24      10.3058     -0.00000
     25      12.7079      0.00000
     26      13.3023      0.00000
     27      14.5600      0.00000
     28      14.5919      0.00000
     29      15.6152      0.00000
     30      17.3608      0.00000

 k-point     9 :       0.4444    0.1111    0.0000
  band No.  band energies     occupation 
      1      -0.0455      2.00000
      2       0.9138      2.00000
      3       2.6693      2.00000
      4       2.6805      2.00000
      5       2.8910      2.00000
      6       2.9633      2.00000
      7       3.0069      2.00000
      8       3.0859      2.00000
      9       3.2743      2.00000
     10       3.3355      2.00000
     11       3.7804      2.00000
     12       3.7822      2.00000
     13       4.0232      2.00000
     14       4.1202      2.00000
     15       4.2414      2.00000
     16       4.2495      2.00000
     17       4.2623      2.00000
     18       4.3329      2.00000
     19       4.4893      2.00000
     20       4.6183      2.00000
     21       4.8066      2.00000
     22       4.8074      2.00000
     23      10.0916     -0.00000
     24      11.3208     -0.00000
     25      11.5700     -0.00000
     26      12.9971      0.00000
     27      13.8293      0.00000
     28      14.5941      0.00000
     29      15.2928      0.00000
     30      16.2287      0.00000

 k-point    10 :       0.2222    0.2222    0.0000
  band No.  band energies     occupation 
      1      -1.1752      2.00000
      2       2.2072      2.00000
      3       2.2072      2.00000
      4       2.4267      2.00000
      5       2.6549      2.00000
      6       2.6589      2.00000
      7       2.6589      2.00000
      8       3.3752      2.00000
      9       3.7149      2.00000
     10       3.7411      2.00000
     11       3.8914      2.00000
     12       3.8914      2.00000
     13       3.9443      2.00000
     14       4.1232      2.00000
     15       4.3581      2.00000
     16       4.4417      2.00000
     17       4.5542      2.00000
     18       4.5542      2.00000
     19       4.6666      2.00000
     20       4.6666      2.00000
     21       4.7305      2.00000
     22       6.5951     -0.02031
     23       6.5951     -0.02031
     24       9.9219     -0.00000
     25      12.4438      0.00000
     26      13.1742      0.00000
     27      16.5579      0.00000
     28      16.5579      0.00000
     29      16.7113      0.00000
     30      16.7113      0.00000

 k-point    11 :       0.3333    0.2222    0.0000
  band No.  band energies     occupation 
      1      -0.5334      2.00000
      2       1.9271      2.00000
      3       2.4854      2.00000
      4       2.6139      2.00000
      5       2.7762      2.00000
      6       2.7872      2.00000
      7       2.8175      2.00000
      8       3.2648      2.00000
      9       3.4755      2.00000
     10       3.6376      2.00000
     11       3.6403      2.00000
     12       3.7222      2.00000
     13       3.8568      2.00000
     14       4.0733      2.00000
     15       4.3117      2.00000
     16       4.3960      2.00000
     17       4.4592      2.00000
     18       4.4653      2.00000
     19       4.4788      2.00000
     20       4.6647      2.00000
     21       4.6861      2.00000
     22       5.5030      2.00001
     23       7.4107     -0.00000
     24      10.8497     -0.00000
     25      10.9060     -0.00000
     26      13.5424      0.00000
     27      15.0539      0.00000
     28      16.0137      0.00000
     29      17.0946      0.00000
     30      17.4933      0.00000

 k-point    12 :       0.4444    0.2222    0.0000
  band No.  band energies     occupation 
      1       0.3038      2.00000
      2       1.2154      2.00000
      3       2.7390      2.00000
      4       2.8152      2.00000
      5       2.8746      2.00000
      6       2.9450      2.00000
      7       3.0397      2.00000
      8       3.1122      2.00000
      9       3.1292      2.00000
     10       3.3197      2.00000
     11       3.5730      2.00000
     12       3.6544      2.00000
     13       4.0311      2.00000
     14       4.1271      2.00000
     15       4.2146      2.00000
     16       4.2425      2.00000
     17       4.2496      2.00000
     18       4.2896      2.00000
     19       4.6550      2.00000
     20       4.6643      2.00000
     21       4.6690      2.00000
     22       4.9321      2.00000
     23       8.3628     -0.00000
     24       9.4944     -0.00000
     25      12.1169      0.00000
     26      13.5095      0.00000
     27      14.1216      0.00000
     28      14.9402      0.00000
     29      17.8547      0.00000
     30      18.5201      0.00000

 k-point    13 :       0.3333    0.3333    0.0000
  band No.  band energies     occupation 
      1       0.0727      2.00000
      2       2.2711      2.00000
      3       2.2711      2.00000
      4       2.7073      2.00000
      5       2.8801      2.00000
      6       2.9136      2.00000
      7       2.9136      2.00000
      8       3.2234      2.00000
      9       3.3460      2.00000
     10       3.3460      2.00000
     11       3.4804      2.00000
     12       3.6702      2.00000
     13       3.9283      2.00000
     14       4.0209      2.00000
     15       4.2119      2.00000
     16       4.3136      2.00000
     17       4.3136      2.00000
     18       4.4663      2.00000
     19       4.4663      2.00000
     20       4.5751      2.00000
     21       4.6677      2.00000
     22       6.1490      1.49302
     23       6.1490      1.49302
     24       9.2528     -0.00000
     25      11.8147      0.00000
     26      13.9748      0.00000
     27      15.8356      0.00000
     28      15.8356      0.00000
     29      16.6737      0.00000
     30      16.6737      0.00000

 k-point    14 :       0.4444    0.3333    0.0000
  band No.  band energies     occupation 
      1       0.8463      2.00000
      2       1.6585      2.00000
      3       2.5912      2.00000
      4       2.7322      2.00000
      5       3.0037      2.00000
      6       3.0275      2.00000
      7       3.0838      2.00000
      8       3.1351      2.00000
      9       3.1387      2.00000
     10       3.2825      2.00000
     11       3.4182      2.00000
     12       3.5673      2.00000
     13       4.0376      2.00000
     14       4.0656      2.00000
     15       4.1342      2.00000
     16       4.1652      2.00000
     17       4.1749      2.00000
     18       4.2545      2.00000
     19       4.4766      2.00000
     20       4.5076      2.00000
     21       4.9392      2.00000
     22       5.3685      2.00000
     23       6.9401     -0.00000
     24       7.9544     -0.00000
     25      12.9655      0.00000
     26      14.3154      0.00000
     27      14.6248      0.00000
     28      15.5209      0.00000
     29      16.8648      0.00000
     30      17.5807      0.00000

 k-point    15 :       0.4444    0.4444    0.0000
  band No.  band energies     occupation 
      1       1.5023      2.00000
      2       2.1333      2.00000
      3       2.1333      2.00000
      4       2.5041      2.00000
      5       3.1248      2.00000
      6       3.1248      2.00000
      7       3.1459      2.00000
      8       3.1866      2.00000
      9       3.2159      2.00000
     10       3.3115      2.00000
     11       3.3115      2.00000
     12       3.4745      2.00000
     13       3.9807      2.00000
     14       4.0434      2.00000
     15       4.0506      2.00000
     16       4.0506      2.00000
     17       4.1498      2.00000
     18       4.2925      2.00000
     19       4.2925      2.00000
     20       4.3746      2.00000
     21       5.3342      2.00000
     22       5.9468      2.06857
     23       5.9468      2.06857
     24       6.7752     -0.00048
     25      14.0627      0.00000
     26      15.3591      0.00000
     27      15.3710      0.00000
     28      15.3710      0.00000
     29      16.3429      0.00000
     30      16.3429      0.00000

 k-point    16 :       0.1111    0.1111    0.1111
  band No.  band energies     occupation 
      1      -1.8445      2.00000
      2       2.1302      2.00000
      3       2.1302      2.00000
      4       2.1302      2.00000
      5       2.5034      2.00000
      6       2.5034      2.00000
      7       2.5034      2.00000
      8       3.4986      2.00000
      9       3.6368      2.00000
     10       3.6368      2.00000
     11       4.2450      2.00000
     12       4.2450      2.00000
     13       4.4462      2.00000
     14       4.4462      2.00000
     15       4.4462      2.00000
     16       4.5989      2.00000
     17       4.5989      2.00000
     18       4.5989      2.00000
     19       4.8157      2.00000
     20       4.8157      2.00000
     21       4.8157      2.00000
     22       7.5951     -0.00000
     23       7.5951     -0.00000
     24       7.5951     -0.00000
     25      13.9497      0.00000
     26      13.9497      0.00000
     27      13.9497      0.00000
     28      16.2001      0.00000
     29      16.2001      0.00000
     30      16.2001      0.00000

 k-point    17 :       0.2222    0.1111    0.1111
  band No.  band energies     occupation 
      1      -1.4402      2.00000
      2       2.0718      2.00000
      3       2.2945      2.00000
      4       2.2945      2.00000
      5       2.5953      2.00000
      6       2.6024      2.00000
      7       2.6024      2.00000
      8       3.4177      2.00000
      9       3.6965      2.00000
     10       3.7004      2.00000
     11       4.0704      2.00000
     12       4.0704      2.00000
     13       4.1708      2.00000
     14       4.2122      2.00000
     15       4.3034      2.00000
     16       4.4750      2.00000
     17       4.5002      2.00000
     18       4.5002      2.00000
     19       4.7739      2.00000
     20       4.7966      2.00000
     21       4.7966      2.00000
     22       6.1702      1.33202
     23       8.2721     -0.00000
     24       8.2721     -0.00000
     25      14.2192      0.00000
     26      14.2192      0.00000
     27      14.4633      0.00000
     28      14.4633      0.00000
     29      16.3481      0.00000
     30      16.6920      0.00000

 k-point    18 :       0.3333    0.1111    0.1111
  band No.  band energies     occupation 
      1      -0.7867      2.00000
      2       1.7599      2.00000
      3       2.5178      2.00000
      4       2.5178      2.00000
      5       2.7375      2.00000
      6       2.7605      2.00000
      7       2.7605      2.00000
      8       3.2765      2.00000
      9       3.6577      2.00000
     10       3.6577      2.00000
     11       3.7666      2.00000
     12       3.8062      2.00000
     13       3.8811      2.00000
     14       4.1202      2.00000
     15       4.3062      2.00000
     16       4.3614      2.00000
     17       4.3614      2.00000
     18       4.3910      2.00000
     19       4.7001      2.00000
     20       4.7796      2.00000
     21       4.7796      2.00000
     22       5.1228      2.00000
     23       9.1735     -0.00000
     24       9.1735     -0.00000
     25      12.8896      0.00000
     26      12.8896      0.00000
     27      14.6961      0.00000
     28      14.6961      0.00000
     29      17.4740      0.00000
     30      17.5067      0.00000

 k-point    19 :       0.4444    0.1111    0.1111
  band No.  band energies     occupation 
      1       0.0704      2.00000
      2       1.0127      2.00000
      3       2.7164      2.00000
      4       2.7164      2.00000
      5       2.9129      2.00000
      6       2.9413      2.00000
      7       2.9413      2.00000
      8       3.1003      2.00000
      9       3.3132      2.00000
     10       3.3132      2.00000
     11       3.7076      2.00000
     12       3.7358      2.00000
     13       3.9504      2.00000
     14       4.1230      2.00000
     15       4.2378      2.00000
     16       4.2378      2.00000
     17       4.2452      2.00000
     18       4.4955      2.00000
     19       4.5579      2.00000
     20       4.6031      2.00000
     21       4.7721      2.00000
     22       4.7721      2.00000
     23      10.2080     -0.00000
     24      10.2080     -0.00000
     25      11.5295     -0.00000
     26      11.5295     -0.00000
     27      15.4048      0.00000
     28      15.4048      0.00000
     29      16.3600      0.00000
     30      16.3600      0.00000

 k-point    20 :       0.2222    0.2222    0.1111
  band No.  band energies     occupation 
      1      -1.0469      2.00000
      2       2.2533      2.00000
      3       2.2533      2.00000
      4       2.4252      2.00000
      5       2.6847      2.00000
      6       2.6882      2.00000
      7       2.6882      2.00000
      8       3.3791      2.00000
      9       3.7122      2.00000
     10       3.7265      2.00000
     11       3.8491      2.00000
     12       3.8491      2.00000
     13       3.8784      2.00000
     14       4.1734      2.00000
     15       4.3366      2.00000
     16       4.3702      2.00000
     17       4.3904      2.00000
     18       4.3904      2.00000
     19       4.7572      2.00000
     20       4.7572      2.00000
     21       4.7577      2.00000
     22       6.7666     -0.00060
     23       6.7666     -0.00060
     24       8.8381     -0.00000
     25      12.6376      0.00000
     26      14.5088      0.00000
     27      14.9365      0.00000
     28      14.9365      0.00000
     29      16.6658      0.00000
     30      16.6658      0.00000

 k-point    21 :       0.3333    0.2222    0.1111
  band No.  band energies     occupation 
      1      -0.4144      2.00000
      2       1.9765      2.00000
      3       2.4957      2.00000
      4       2.5974      2.00000
      5       2.8066      2.00000
      6       2.8217      2.00000
      7       2.8357      2.00000
      8       3.2819      2.00000
      9       3.4951      2.00000
     10       3.6052      2.00000
     11       3.6176      2.00000
     12       3.7166      2.00000
     13       3.7971      2.00000
     14       4.1651      2.00000
     15       4.2253      2.00000
     16       4.2508      2.00000
     17       4.2909      2.00000
     18       4.4586      2.00000
     19       4.6765      2.00000
     20       4.7119      2.00000
     21       4.7120      2.00000
     22       5.5957      2.00012
     23       7.5369     -0.00000
     24       9.5983     -0.00000
     25      11.1036     -0.00000
     26      13.3555      0.00000
     27      15.0147      0.00000
     28      15.6890      0.00000
     29      17.2061      0.00000
     30      17.9386      0.00000

 k-point    22 :       0.4444    0.2222    0.1111
  band No.  band energies     occupation 
      1       0.4061      2.00000
      2       1.2909      2.00000
      3       2.7240      2.00000
      4       2.7773      2.00000
      5       2.8734      2.00000
      6       2.9385      2.00000
      7       2.9808      2.00000
      8       3.1412      2.00000
      9       3.2834      2.00000
     10       3.3694      2.00000
     11       3.5622      2.00000
     12       3.6458      2.00000
     13       3.9044      2.00000
     14       4.0519      2.00000
     15       4.1624      2.00000
     16       4.1830      2.00000
     17       4.2971      2.00000
     18       4.5215      2.00000
     19       4.6289      2.00000
     20       4.6845      2.00000
     21       4.6846      2.00000
     22       4.9261      2.00000
     23       8.4551     -0.00000
     24       9.4989     -0.00000
     25      10.8677     -0.00000
     26      11.9837      0.00000
     27      15.7592      0.00000
     28      16.6873      0.00000
     29      16.7469      0.00000
     30      17.9070      0.00000

 k-point    23 :       0.3333    0.3333    0.1111
  band No.  band energies     occupation 
      1       0.1759      2.00000
      2       2.2577      2.00000
      3       2.2577      2.00000
      4       2.6362      2.00000
      5       2.9279      2.00000
      6       2.9656      2.00000
      7       2.9656      2.00000
      8       3.2613      2.00000
      9       3.3845      2.00000
     10       3.3845      2.00000
     11       3.5103      2.00000
     12       3.6705      2.00000
     13       3.8126      2.00000
     14       4.1294      2.00000
     15       4.1525      2.00000
     16       4.1525      2.00000
     17       4.1623      2.00000
     18       4.6067      2.00000
     19       4.6067      2.00000
     20       4.6327      2.00000
     21       4.6410      2.00000
     22       6.2125      0.98186
     23       6.2125      0.98186
     24       9.2089     -0.00000
     25      10.6543     -0.00000
     26      14.0916      0.00000
     27      14.0916      0.00000
     28      15.5631      0.00000
     29      17.6987      0.00000
     30      18.6408      0.00000

 k-point    24 :       0.4444    0.3333    0.1111
  band No.  band energies     occupation 
      1       0.9201      2.00000
      2       1.6850      2.00000
      3       2.4944      2.00000
      4       2.6143      2.00000
      5       3.0474      2.00000
      6       3.0975      2.00000
      7       3.0983      2.00000
      8       3.1988      2.00000
      9       3.2848      2.00000
     10       3.3953      2.00000
     11       3.4366      2.00000
     12       3.5732      2.00000
     13       3.8704      2.00000
     14       3.9936      2.00000
     15       4.0499      2.00000
     16       4.0703      2.00000
     17       4.2572      2.00000
     18       4.4425      2.00000
     19       4.5619      2.00000
     20       4.5725      2.00000
     21       4.9097      2.00000
     22       5.3634      2.00000
     23       6.9902     -0.00000
     24       7.9907     -0.00000
     25      11.5451     -0.00000
     26      12.7086      0.00000
     27      15.0711      0.00000
     28      16.2761      0.00000
     29      16.3563      0.00000
     30      17.3940      0.00000

 k-point    25 :       0.4444    0.4444    0.1111
  band No.  band energies     occupation 
      1       1.5245      2.00000
      2       2.0842      2.00000
      3       2.0842      2.00000
      4       2.3937      2.00000
      5       3.2226      2.00000
      6       3.2483      2.00000
      7       3.2486      2.00000
      8       3.2486      2.00000
      9       3.3453      2.00000
     10       3.3453      2.00000
     11       3.3678      2.00000
     12       3.4908      2.00000
     13       3.8584      2.00000
     14       3.9366      2.00000
     15       3.9366      2.00000
     16       3.9493      2.00000
     17       4.2837      2.00000
     18       4.4103      2.00000
     19       4.4103      2.00000
     20       4.4633      2.00000
     21       5.3072      2.00000
[...]
      3       2.5772      2.00000
      4       2.5772      2.00000
      5       3.0083      2.00000
      6       3.0083      2.00000
      7       3.0995      2.00000
      8       3.2354      2.00000
      9       3.4608      2.00000
     10       3.4608      2.00000
     11       3.5306      2.00000
     12       3.6192      2.00000
     13       3.7955      2.00000
     14       3.9073      2.00000
     15       4.0400      2.00000
     16       4.0400      2.00000
     17       4.5196      2.00000
     18       4.5752      2.00000
     19       4.6890      2.00000
     20       4.7013      2.00000
     21       4.7013      2.00000
     22       5.0174      2.00000
     23       8.5706     -0.00000
     24       8.5706     -0.00000
     25      10.3961     -0.00000
     26      10.3961     -0.00000
     27      14.8336      0.00000
     28      16.0426      0.00000
     29      18.3328      0.00000
     30      18.3328      0.00000

 k-point    29 :       0.3333    0.3333    0.2222
  band No.  band energies     occupation 
      1       0.4692      2.00000
      2       2.2176      2.00000
      3       2.2176      2.00000
      4       2.4453      2.00000
      5       3.0649      2.00000
      6       3.1080      2.00000
      7       3.1080      2.00000
      8       3.3856      2.00000
      9       3.4916      2.00000
     10       3.4916      2.00000
     11       3.5801      2.00000
     12       3.6659      2.00000
     13       3.7016      2.00000
     14       3.9599      2.00000
     15       3.9599      2.00000
     16       3.9731      2.00000
     17       4.3464      2.00000
     18       4.5710      2.00000
     19       4.7174      2.00000
     20       4.7307      2.00000
     21       4.7307      2.00000
     22       6.4107     -0.05065
     23       6.4107     -0.05065
     24       8.2214     -0.00000
     25      10.2305     -0.00000
     26      12.2655      0.00000
     27      12.2655      0.00000
     28      15.8256      0.00000
     29      18.1221      0.00000
     30      20.3898      0.00000

 k-point    30 :       0.4444    0.3333    0.2222
  band No.  band energies     occupation 
      1       1.1180      2.00000
      2       1.7454      2.00000
      3       2.3116      2.00000
      4       2.3840      2.00000
      5       3.1715      2.00000
      6       3.2012      2.00000
      7       3.3042      2.00000
      8       3.4011      2.00000
      9       3.4982      2.00000
     10       3.5449      2.00000
     11       3.5830      2.00000
     12       3.6074      2.00000
     13       3.7319      2.00000
     14       3.8241      2.00000
     15       3.8950      2.00000
     16       3.9004      2.00000
     17       4.4689      2.00000
     18       4.6435      2.00000
     19       4.6710      2.00000
     20       4.6740      2.00000
     21       4.8237      2.00000
     22       5.3741      2.00000
     23       7.1010     -0.00000
     24       7.8978     -0.00000
     25      10.0999     -0.00000
     26      10.9773     -0.00000
     27      13.2222      0.00000
     28      14.4098      0.00000
     29      18.9344      0.00000
     30      19.9626      0.00000

 k-point    31 :       0.4444    0.4444    0.2222
  band No.  band energies     occupation 
      1       1.5768      2.00000
      2       1.9831      2.00000
      3       1.9831      2.00000
      4       2.1894      2.00000
      5       3.3190      2.00000
      6       3.3959      2.00000
      7       3.3959      2.00000
      8       3.5257      2.00000
      9       3.5759      2.00000
     10       3.6017      2.00000
     11       3.6017      2.00000
     12       3.6894      2.00000
     13       3.7098      2.00000
     14       3.7807      2.00000
     15       3.7807      2.00000
     16       3.7940      2.00000
     17       4.4647      2.00000
     18       4.5779      2.00000
     19       4.5779      2.00000
     20       4.6017      2.00000
     21       5.2222      2.00000
     22       5.9416      2.06723
     23       5.9416      2.06723
     24       6.7968     -0.00027
     25      10.8026     -0.00000
     26      11.8728      0.00000
     27      11.8728      0.00000
     28      13.0193      0.00000
     29      19.7779      0.00000
     30      20.8473      0.00000

 k-point    32 :       0.3333    0.3333    0.3333
  band No.  band energies     occupation 
      1       0.9001      2.00000
      2       2.1683      2.00000
      3       2.1683      2.00000
      4       2.1683      2.00000
      5       3.2579      2.00000
      6       3.2579      2.00000
      7       3.2579      2.00000
      8       3.6038      2.00000
      9       3.6429      2.00000
     10       3.6429      2.00000
     11       3.6638      2.00000
     12       3.6638      2.00000
     13       3.6638      2.00000
     14       3.8216      2.00000
     15       3.8216      2.00000
     16       3.8216      2.00000
     17       4.5173      2.00000
     18       4.5173      2.00000
     19       4.7587      2.00000
     20       4.7587      2.00000
     21       4.7587      2.00000
     22       6.7362     -0.00128
     23       6.7362     -0.00128
     24       6.7362     -0.00128
     25      10.7840     -0.00000
     26      10.7840     -0.00000
     27      10.7840     -0.00000
     28      14.1902      0.00000
     29      20.9550      0.00000
     30      20.9550      0.00000

 k-point    33 :       0.4444    0.3333    0.3333
  band No.  band energies     occupation 
      1       1.3784      2.00000
      2       1.8133      2.00000
      3       2.1362      2.00000
      4       2.1362      2.00000
      5       3.3305      2.00000
      6       3.3305      2.00000
      7       3.4495      2.00000
      8       3.5800      2.00000
      9       3.6444      2.00000
     10       3.7064      2.00000
     11       3.7493      2.00000
     12       3.7493      2.00000
     13       3.7499      2.00000
     14       3.7801      2.00000
     15       3.8396      2.00000
     16       3.8396      2.00000
     17       4.6534      2.00000
     18       4.7246      2.00000
     19       4.7246      2.00000
     20       4.7334      2.00000
     21       4.7372      2.00000
     22       5.5118      2.00001
     23       7.0701     -0.00000
     24       7.0701     -0.00000
     25       9.8448     -0.00000
     26       9.8448     -0.00000
     27      11.6641     -0.00000
     28      12.8024      0.00000
     29      21.7353      0.00000
     30      21.7353      0.00000

 k-point    34 :       0.4444    0.4444    0.3333
  band No.  band energies     occupation 
      1       1.6418      2.00000
      2       1.8908      2.00000
      3       1.8908      2.00000
      4       1.9948      2.00000
      5       3.4305      2.00000
      6       3.4703      2.00000
      7       3.4703      2.00000
      8       3.5588      2.00000
      9       3.6055      2.00000
     10       3.6478      2.00000
     11       3.6478      2.00000
     12       3.6620      2.00000
     13       4.0616      2.00000
     14       4.0616      2.00000
     15       4.0731      2.00000
     16       4.1415      2.00000
     17       4.6159      2.00000
     18       4.7027      2.00000
     19       4.7027      2.00000
     20       4.7041      2.00000
     21       5.0725      2.00000
     22       5.9224      2.06048
     23       5.9224      2.06048
     24       6.5753     -0.02699
     25       9.7370     -0.00000
     26      10.4596     -0.00000
     27      10.4596     -0.00000
     28      11.4771     -0.00000
     29      22.5435      0.00000
     30      23.5329      0.00000

 k-point    35 :       0.4444    0.4444    0.4444
  band No.  band energies     occupation 
      1       1.7240      2.00000
      2       1.8385      2.00000
      3       1.8385      2.00000
      4       1.8385      2.00000
      5       3.5176      2.00000
      6       3.5176      2.00000
      7       3.5176      2.00000
      8       3.5606      2.00000
      9       3.5606      2.00000
     10       3.5803      2.00000
     11       3.5803      2.00000
     12       3.5803      2.00000
     13       4.4530      2.00000
     14       4.4530      2.00000
     15       4.4530      2.00000
     16       4.7137      2.00000
     17       4.7137      2.00000
     18       4.7442      2.00000
     19       4.7442      2.00000
     20       4.7442      2.00000
     21       5.0554      2.00000
     22       5.8887      2.04536
     23       5.8887      2.04536
     24       5.8887      2.04536
     25       9.6352     -0.00000
     26       9.6352     -0.00000
     27       9.6352     -0.00000
     28      10.3079     -0.00000
     29      25.2929      0.00000
     30      25.2929      0.00000


--------------------------------------------------------------------------------------------------------


 soft charge-density along one line, spin component           1
         0         1         2         3         4         5         6         7         8         9
x    15.8669    0.0000    0.0000   -0.0000    0.9643    0.0000    0.0000   -0.0000   -0.4555   -0.0000
x     0.0000   -0.0000    0.0503   -0.0000   -0.0000   -0.0000    0.0000    0.0000
y    15.8669    0.0000    0.0000   -0.0000    0.9643    0.0000    0.0000   -0.0000   -0.4555   -0.0000
y     0.0000   -0.0000    0.0503   -0.0000   -0.0000   -0.0000    0.0000    0.0000
z    15.8669    0.0000    0.0000   -0.0000    0.9643    0.0000    0.0000   -0.0000   -0.4555   -0.0000
z     0.0000   -0.0000    0.0503   -0.0000   -0.0000   -0.0000    0.0000    0.0000
 total charge-density along one line
x    44.0001    0.0000    0.0000   -0.0000   19.6394   -0.0000    0.0000   -0.0000    4.1469    0.0000
x    -0.0000   -0.0000    0.0569    0.0000   -0.0000   -0.0000    0.0099    0.0000    0.0000    0.0000
x    -0.0017    0.0000   -0.0000    0.0000    0.0006    0.0000    0.0000   -0.0000   -0.0004    0.0000
x    -0.0000    0.0000    0.0003    0.0000
y    44.0001    0.0000   -0.0000   -0.0000   19.6394    0.0000   -0.0000   -0.0000    4.1469   -0.0000
y    -0.0000   -0.0000    0.0569   -0.0000   -0.0000   -0.0000    0.0099    0.0000   -0.0000   -0.0000
y    -0.0017    0.0000    0.0000   -0.0000    0.0006   -0.0000    0.0000   -0.0000   -0.0004    0.0000
y     0.0000   -0.0000    0.0003    0.0000
z    44.0001    0.0000   -0.0000   -0.0000   19.6394    0.0000    0.0000    0.0000    4.1469   -0.0000
z     0.0000    0.0000    0.0569   -0.0000    0.0000    0.0000    0.0099   -0.0000    0.0000   -0.0000
z    -0.0017    0.0000    0.0000   -0.0000    0.0006    0.0000   -0.0000   -0.0000   -0.0004    0.0000
z    -0.0000   -0.0000    0.0003    0.0000
 
 pseudopotential strength for first ion, spin component:           1
 -3.676   0.000  -0.000   0.000  -0.000  -4.137  -0.000   0.000
  0.000  -3.676   0.000   0.000   0.000  -0.000  -4.137  -0.000
 -0.000   0.000  -3.661   0.000  -0.000   0.000  -0.000  -4.148
  0.000   0.000   0.000  -3.676   0.000  -0.000  -0.000  -0.000
 -0.000   0.000  -0.000   0.000  -3.661   0.000  -0.000   0.000
 -4.137  -0.000   0.000  -0.000   0.000   9.881   0.000  -0.000
 -0.000  -4.137  -0.000  -0.000  -0.000   0.000   9.881  -0.000
  0.000  -0.000  -4.148  -0.000   0.000  -0.000  -0.000   9.889
 -0.000  -0.000  -0.000  -4.137  -0.000  -0.000   0.000   0.000
  0.000  -0.000   0.000  -0.000  -4.148  -0.000   0.000  -0.000
 -0.000   0.000   0.000  -0.000  -0.000  -0.000   0.000   0.000
 -0.000   0.000   0.000  -0.000  -0.000  -0.000   0.000   0.000
  0.000  -0.000   0.000  -0.000   0.000  -0.000  -0.000  -0.000
 -0.000  -0.000  -0.000   0.000  -0.000  -0.000  -0.000   0.000
 -0.000  -0.000  -0.000  -0.000   0.000   0.000  -0.000   0.000
  0.000  -0.000   0.000   0.000   0.000  -0.000  -0.000  -0.000
  0.000  -0.000  -0.000   0.000   0.000  -0.000  -0.000   0.000
 -0.000   0.000  -0.000  -0.000   0.000  -0.000  -0.000  -0.000
 total augmentation occupancy for first ion, spin component:           1
  1.903  -0.000  -0.000  -0.000   0.000  -0.023  -0.000   0.000  -0.000   0.000  -0.000  -0.000  -0.000   0.000   0.000   0.000
  0.000   1.903  -0.000   0.000  -0.000   0.000  -0.023   0.000   0.000   0.000  -0.000  -0.000   0.000  -0.000  -0.000   0.000
 -0.000   0.000   1.923  -0.000   0.000  -0.000  -0.000  -0.039  -0.000   0.000  -0.000   0.000   0.000   0.000   0.000   0.000
  0.000  -0.000  -0.000   1.903   0.000   0.000   0.000   0.000  -0.023   0.000  -0.000  -0.000  -0.000   0.000  -0.000  -0.000
 -0.000   0.000   0.000  -0.000   1.923  -0.000   0.000  -0.000  -0.000  -0.039   0.000   0.000   0.000  -0.000  -0.000   0.000
 -0.023   0.000  -0.000   0.000  -0.000   0.013  -0.000  -0.000  -0.000   0.000   0.000   0.000   0.000  -0.000  -0.000  -0.000
 -0.000  -0.023  -0.000   0.000   0.000   0.000   0.013   0.000  -0.000  -0.000   0.000  -0.000   0.000  -0.000  -0.000   0.000
  0.000   0.000  -0.039   0.000  -0.000  -0.000   0.000   0.012   0.000   0.000  -0.000   0.000  -0.000   0.000  -0.000  -0.000
  0.000   0.000  -0.000  -0.023  -0.000   0.000  -0.000   0.000   0.013   0.000   0.000  -0.000   0.000   0.000   0.000  -0.000
  0.000   0.000  -0.000   0.000  -0.039   0.000   0.000  -0.000   0.000   0.012   0.000   0.000   0.000   0.000   0.000  -0.000
 -0.000   0.000   0.000  -0.000  -0.000  -0.000   0.000  -0.000  -0.000   0.000   1.616  -0.144   0.000   0.000   0.000  -0.000
  0.000  -0.000   0.000   0.000   0.000   0.000   0.000   0.000  -0.000  -0.000  -0.144   0.017   0.000   0.000   0.000   0.000
 -0.000   0.000   0.000  -0.000  -0.000   0.000   0.000  -0.000   0.000  -0.000   0.000   0.000   0.193   0.000   0.000  -0.012
  0.000  -0.000  -0.000   0.000   0.000  -0.000  -0.000   0.000   0.000   0.000   0.000   0.000  -0.000   0.193   0.000  -0.000
  0.000  -0.000  -0.000  -0.000   0.000  -0.000  -0.000   0.000   0.000   0.000   0.000   0.000   0.000   0.000   0.193  -0.000
 -0.000   0.000   0.000   0.000   0.000  -0.000   0.000  -0.000  -0.000  -0.000   0.000   0.000  -0.012  -0.000   0.000   0.001
  0.000  -0.000  -0.000   0.000   0.000   0.000   0.000   0.000   0.000   0.000   0.000   0.000  -0.000  -0.012  -0.000   0.000
 -0.000   0.000   0.000   0.000   0.000  -0.000   0.000   0.000   0.000   0.000   0.000   0.000  -0.000  -0.000  -0.012  -0.000


------------------------ aborting loop because EDIFF is reached ----------------------------------------


    CHARGE:  cpu time    0.0326: real time    0.0326
    FORLOC:  cpu time    0.0006: real time    0.0006
    FORNL :  cpu time    0.1755: real time    0.1755
    STRESS:  cpu time    0.2181: real time    0.2181
    FORCOR:  cpu time    0.0076: real time    0.0076
    FORHAR:  cpu time    0.0018: real time    0.0018
    MIXING:  cpu time    0.0005: real time    0.0005

  FORCE on cell =-STRESS in cart. coord.  units (eV):
  Direction    XX          YY          ZZ          XY          YZ          ZX
  --------------------------------------------------------------------------------------
  Alpha Z   221.47580   221.47580   221.47580
  Ewald   -1419.30155 -1419.30155 -1419.30155     0.00000    -0.00000    -0.00000
  Hartree   482.46123   482.46123   482.46123    -0.00000    -0.00000    -0.00000
  E(xc)    -256.58093  -256.58093  -256.58093     0.00000     0.00000     0.00000
  Local     324.08802   324.08802   324.08802    -0.00000    -0.00000     0.00000
  n-local   -85.11403   -93.23433   -94.52876     0.41055     2.62016     1.15559
  augment   378.83312   378.83312   378.83312    -0.00000     0.00000    -0.00000
  Kinetic   363.56543   355.47982   350.12407    -3.32600     0.09797    -1.04742
  Fock        0.00000     0.00000     0.00000     0.00000     0.00000     0.00000
  -------------------------------------------------------------------------------------
  Total      -3.59359    -3.59359    -3.59359    -0.00000     0.00000    -0.00000
  in kB    -108.97652  -108.97652  -108.97652    -0.00000     0.00000    -0.00000
  external pressure =     -108.98 kB  Pullay stress =        0.00 kB


 VOLUME and BASIS-vectors are now :
 -----------------------------------------------------------------------------
  energy-cutoff  :      320.00
  volume of cell :       52.83
      direct lattice vectors                 reciprocal lattice vectors
     3.752338220  0.000000000  0.000000000     0.266500497  0.000000000  0.000000000
     0.000000000  3.752338220  0.000000000     0.000000000  0.266500497  0.000000000
     0.000000000  0.000000000  3.752338220     0.000000000  0.000000000  0.266500497

  length of vectors
     3.752338220  3.752338220  3.752338220     0.266500497  0.266500497  0.266500497


 FORCES acting on ions
    electron-ion (+dipol)            ewald-force                    non-local-force                 convergence-correction
 -----------------------------------------------------------------------------------------------
   -.869E-13 0.162E-13 0.205E-13   0.525E-14 0.139E-13 -.218E-14   -.645E-24 0.169E-23 -.133E-23   -.635E-13 0.397E-13 0.566E-13
   0.203E-12 0.296E-12 0.209E-13   -.187E-13 0.150E-13 -.236E-14   0.172E-23 -.164E-23 -.501E-23   -.936E-13 0.266E-13 0.544E-13
   0.199E-12 0.137E-13 0.300E-12   0.287E-13 -.162E-13 0.374E-14   -.205E-23 -.172E-23 -.206E-23   -.720E-13 0.486E-13 0.200E-13
   -.761E-13 0.295E-12 0.302E-12   -.162E-13 -.151E-13 0.356E-14   -.157E-23 -.163E-23 -.111E-23   -.707E-13 0.378E-13 0.317E-13
 -----------------------------------------------------------------------------------------------
   0.239E-12 0.621E-12 0.644E-12   -.101E-14 -.244E-14 0.276E-14   -.255E-23 -.330E-23 -.950E-23   -.300E-12 0.153E-12 0.163E-12
 
 
 POSITION                                       TOTAL-FORCE (eV/Angst)
 -----------------------------------------------------------------------------------
      0.00000      0.00000      0.00000         0.000000      0.000000     -0.000000
      1.87617      1.87617      0.00000         0.000000      0.000000     -0.000000
      1.87617      0.00000      1.87617         0.000000     -0.000000      0.000000
      0.00000      1.87617      1.87617        -0.000000     -0.000000      0.000000
 -----------------------------------------------------------------------------------
    total drift:                               -0.000000      0.000000      0.000000


--------------------------------------------------------------------------------------------------------



  FREE ENERGIE OF THE ION-ELECTRON SYSTEM (eV)
  ---------------------------------------------------
  free  energy   TOTEN  =       -14.78085275 eV

  energy  without entropy=      -14.78364168  energy(sigma->0) =      -14.78178239
 


--------------------------------------------------------------------------------------------------------


    POTLOK:  cpu time    0.0109: real time    0.0109


--------------------------------------------------------------------------------------------------------


 writing wavefunctions
     LOOP+:  cpu time    6.5944: real time    6.6139
    4ORBIT:  cpu time    0.0000: real time    0.0000

 total amount of memory used by VASP MPI-rank0    48650. kBytes
=======================================================================

   base      :      30000. kBytes
   nonl-proj :       3628. kBytes
   grid      :       1806. kBytes
   one-center:         62. kBytes
   wavefun   :      13154. kBytes
 
  
  
 General timing and accounting informations for this job:
 ========================================================
  
                  Total CPU time used (sec):        6.777
                            User time (sec):        6.741
                          System time (sec):        0.036
                         Elapsed time (sec):        6.784
  
                   Maximum memory used (kb):       54604.
                   Average memory used (kb):          N/A
  
                          Minor page faults:         7377
                          Major page faults:            0
                 Voluntary context switches:           26
