unknown system                          
   1.00000000000000     
     3.443320    0.000000    0.000000
     0.000000    3.443320    0.000000
     0.000000    0.000000    3.443320
   Cu
     4
Direct
  0.000000  0.000000  0.000000
  0.500000  0.500000  0.000000
  0.500000  0.000000  0.500000
  0.000000  0.500000  0.500000
 
   32   32   32
 0.71512323884E+03 0.67810047925E+03 0.57771643204E+03 0.44085495328E+03 0.29898114818E+03
 0.17764920394E+03 0.91291287089E+02 0.42286911622E+02 0.22324974627E+02 0.16242802677E+02
 0.12659860722E+02 0.10381116874E+02 0.90647696220E+01 0.83491465501E+01 0.79221447379E+01
 0.76279885352E+01 0.75096508529E+01 0.76279885352E+01 0.79221447379E+01 0.83491465501E+01
 0.90647696220E+01 0.10381116874E+02 0.12659860722E+02 0.16242802677E+02 0.22324974627E+02
 0.42286911622E+02 0.91291287089E+02 0.17764920394E+03 0.29898114818E+03 0.44085495328E+03
 0.57771643204E+03 0.67810047925E+03 0.67810047925E+03 0.64286297886E+03 0.54731630496E+03
 0.41707760748E+03 0.28220901652E+03 0.16718497402E+03 0.85783218612E+02 0.40076578113E+02
 0.21767269872E+02 0.16071136869E+02 0.12593185800E+02 0.10392895832E+02 0.91246585783E+01
 0.84350265892E+01 0.80236527710E+01 0.77412698143E+01 0.76279885352E+01 0.77412698143E+01
 0.80236527710E+01 0.84350265892E+01 0.91246585783E+01 0.10392895832E+02 0.12593185800E+02
 0.16071136869E+02 0.21767269872E+02 0.40076578113E+02 0.85783218612E+02 0.16718497402E+03
 0.28220901652E+03 0.41707760748E+03 0.54731630496E+03 0.64286297886E+03 0.57771643204E+03
 0.54731630496E+03 0.46490140956E+03 0.35269892768E+03 0.23697060460E+03 0.13919993242E+03
 0.71296497408E+02 0.34444264800E+02 0.20401375314E+02 0.15587494078E+02 0.12409189868E+02
 0.10423936353E+02 0.92819316573E+01 0.86556960011E+01 0.82794278782E+01 0.80236527710E+01
 0.79221447379E+01 0.80236527710E+01 0.82794278782E+01 0.86556960011E+01 0.92819316573E+01
 0.10423936353E+02 0.12409189868E+02 0.15587494078E+02 0.20401375314E+02 0.34444264800E+02
 0.71296497408E+02 0.13919993242E+03 0.23697060460E+03 0.35269892768E+03 0.46490140956E+03
 0.54731630496E+03 0.44085495328E+03 0.41707760748E+03 0.35269892768E+03 0.26539895046E+03
 0.17621729465E+03 0.10235729367E+03 0.52929553283E+02 0.27781841514E+02 0.18846381749E+02
 0.14884643792E+02 0.12163245511E+02 0.10489750706E+02 0.95251721274E+01 0.89854698131E+01
 0.86556960011E+01 0.84350265892E+01 0.83491465501E+01 0.84350265892E+01 0.86556960011E+01
 0.89854698131E+01 0.95251721274E+01 0.10489750706E+02 0.12163245511E+02 0.14884643792E+02
 0.18846381749E+02 0.27781841514E+02 0.52929553283E+02 0.10235729367E+03 0.17621729465E+03
 0.26539895046E+03 0.35269892768E+03 0.41707760748E+03 0.29898114818E+03 0.28220901652E+03
 0.23697060460E+03 0.17621729465E+03 0.11537389404E+03 0.66816254971E+02 0.36378536634E+02
 0.22422899351E+02 0.17352477258E+02 0.14106839627E+02 0.11955272995E+02 0.10664534601E+02
 0.99314637441E+01 0.95251721274E+01 0.92819316573E+01 0.91246585783E+01 0.90647696220E+01
 0.91246585783E+01 0.92819316573E+01 0.95251721274E+01 0.99314637441E+01 0.10664534601E+02
 0.11955272995E+02 0.14106839627E+02 0.17352477258E+02 0.22422899351E+02 0.36378536634E+02
 0.66816254971E+02 0.11537389404E+03 0.17621729465E+03 0.23697060460E+03 0.28220901652E+03
 0.17764920394E+03 0.16718497402E+03 0.13919993242E+03 0.10235729367E+03 0.66816254971E+02
 0.40257611444E+02 0.25327744967E+02 0.19177792607E+02 0.15846508474E+02 0.13426661574E+02
 0.11917899121E+02 0.11079661922E+02 0.10664534601E+02 0.10489750706E+02 0.10423936353E+02
 0.10392895832E+02 0.10381116874E+02 0.10392895832E+02 0.10423936353E+02 0.10489750706E+02
 0.10664534601E+02 0.11079661922E+02 0.11917899121E+02 0.13426661574E+02 0.15846508474E+02
 0.19177792607E+02 0.25327744967E+02 0.40257611444E+02 0.66816254971E+02 0.10235729367E+03
 0.13919993242E+03 0.16718497402E+03 0.91291287089E+02 0.85783218612E+02 0.71296497408E+02
 0.52929553283E+02 0.36378536634E+02 0.25327744967E+02 0.19883832985E+02 0.16884516627E+02
 0.14551636202E+02 0.13020756058E+02 0.12209046003E+02 0.11917899121E+02 0.11955272995E+02
 0.12163245511E+02 0.12409189868E+02 0.12593185800E+02 0.12659860722E+02 0.12593185800E+02
 0.12409189868E+02 0.12163245511E+02 0.11955272995E+02 0.11917899121E+02 0.12209046003E+02
 0.13020756058E+02 0.14551636202E+02 0.16884516627E+02 0.19883832985E+02 0.25327744967E+02
 0.36378536634E+02 0.52929553283E+02 0.71296497408E+02 0.85783218612E+02 0.42286911622E+02
 0.40076578113E+02 0.34444264800E+02 0.27781841514E+02 0.22422899351E+02 0.19177792607E+02
 0.16884516627E+02 0.14977823674E+02 0.13683081298E+02 0.13057463461E+02 0.13020756058E+02
 0.13426661574E+02 0.14106839627E+02 0.14884643792E+02 0.15587494078E+02 0.16071136869E+02
 0.16242802677E+02 0.16071136869E+02 0.15587494078E+02 0.14884643792E+02 0.14106839627E+02
 0.13426661574E+02 0.13020756058E+02 0.13057463461E+02 0.13683081298E+02 0.14977823674E+02
 0.16884516627E+02 0.19177792607E+02 0.22422899351E+02 0.27781841514E+02 0.34444264800E+02
 0.40076578113E+02 0.22324974627E+02 0.21767269872E+02 0.20401375314E+02 0.18846381749E+02
 0.17352477258E+02 0.15846508474E+02 0.14551636202E+02 0.13683081298E+02 0.13378203853E+02
 0.13683081298E+02 0.14551636202E+02 0.15846508474E+02 0.17352477258E+02 0.18846381749E+02
 0.20401375314E+02 0.21767269872E+02 0.22324974627E+02 0.21767269872E+02 0.20401375314E+02
 0.18846381749E+02 0.17352477258E+02 0.15846508474E+02 0.14551636202E+02 0.13683081298E+02
 0.13378203853E+02 0.13683081298E+02 0.14551636202E+02 0.15846508474E+02 0.17352477258E+02
 0.18846381749E+02 0.20401375314E+02 0.21767269872E+02 0.16242802677E+02 0.16071136869E+02
 0.15587494078E+02 0.14884643792E+02 0.14106839627E+02 0.13426661574E+02 0.13020756058E+02
 0.13057463461E+02 0.13683081298E+02 0.14977823674E+02 0.16884516627E+02 0.19177792607E+02
 0.22422899351E+02 0.27781841514E+02 0.34444264800E+02 0.40076578113E+02 0.42286911622E+02
 0.40076578113E+02 0.34444264800E+02 0.27781841514E+02 0.22422899351E+02 0.19177792607E+02
 0.16884516627E+02 0.14977823674E+02 0.13683081298E+02 0.13057463461E+02 0.13020756058E+02
 0.13426661574E+02 0.14106839627E+02 0.14884643792E+02 0.15587494078E+02 0.16071136869E+02
 0.12659860722E+02 0.12593185800E+02 0.12409189868E+02 0.12163245511E+02 0.11955272995E+02
 0.11917899121E+02 0.12209046003E+02 0.13020756058E+02 0.14551636202E+02 0.16884516627E+02
 0.19883832985E+02 0.25327744967E+02 0.36378536634E+02 0.52929553283E+02 0.71296497408E+02
 0.85783218612E+02 0.91291287089E+02 0.85783218612E+02 0.71296497408E+02 0.52929553283E+02
 0.36378536634E+02 0.25327744967E+02 0.19883832985E+02 0.16884516627E+02 0.14551636202E+02
 0.13020756058E+02 0.12209046003E+02 0.11917899121E+02 0.11955272995E+02 0.12163245511E+02
 0.12409189868E+02 0.12593185800E+02 0.10381116874E+02 0.10392895832E+02 0.10423936353E+02
 0.10489750706E+02 0.10664534601E+02 0.11079661922E+02 0.11917899121E+02 0.13426661574E+02
 0.15846508474E+02 0.19177792607E+02 0.25327744967E+02 0.40257611444E+02 0.66816254971E+02
 0.10235729367E+03 0.13919993242E+03 0.16718497402E+03 0.17764920394E+03 0.16718497402E+03
 0.13919993242E+03 0.10235729367E+03 0.66816254971E+02 0.40257611444E+02 0.25327744967E+02
 0.19177792607E+02 0.15846508474E+02 0.13426661574E+02 0.11917899121E+02 0.11079661922E+02
 0.10664534601E+02 0.10489750706E+02 0.10423936353E+02 0.10392895832E+02 0.90647696220E+01
 0.91246585783E+01 0.92819316573E+01 0.95251721274E+01 0.99314637441E+01 0.10664534601E+02
 0.11955272995E+02 0.14106839627E+02 0.17352477258E+02 0.22422899351E+02 0.36378536634E+02
 0.66816254971E+02 0.11537389404E+03 0.17621729465E+03 0.23697060460E+03 0.28220901652E+03
 0.29898114818E+03 0.28220901652E+03 0.23697060460E+03 0.17621729465E+03 0.11537389404E+03
 0.66816254971E+02 0.36378536634E+02 0.22422899351E+02 0.17352477258E+02 0.14106839627E+02
 0.11955272995E+02 0.10664534601E+02 0.99314637441E+01 0.95251721274E+01 0.92819316573E+01
 0.91246585783E+01 0.83491465501E+01 0.84350265892E+01 0.86556960011E+01 0.89854698131E+01
 0.95251721274E+01 0.10489750706E+02 0.12163245511E+02 0.14884643792E+02 0.18846381749E+02
 0.27781841514E+02 0.52929553283E+02 0.10235729367E+03 0.17621729465E+03 0.26539895046E+03
 0.35269892768E+03 0.41707760748E+03 0.44085495328E+03 0.41707760748E+03 0.35269892768E+03
 0.26539895046E+03 0.17621729465E+03 0.10235729367E+03 0.52929553283E+02 0.27781841514E+02
 0.18846381749E+02 0.14884643792E+02 0.12163245511E+02 0.10489750706E+02 0.95251721274E+01
 0.89854698131E+01 0.86556960011E+01 0.84350265892E+01 0.79221447379E+01 0.80236527710E+01
 0.82794278782E+01 0.86556960011E+01 0.92819316573E+01 0.10423936353E+02 0.12409189868E+02
 0.15587494078E+02 0.20401375314E+02 0.34444264800E+02 0.71296497408E+02 0.13919993242E+03
 0.23697060460E+03 0.35269892768E+03 0.46490140956E+03 0.54731630496E+03 0.57771643204E+03
 0.54731630496E+03 0.46490140956E+03 0.35269892768E+03 0.23697060460E+03 0.13919993242E+03
 0.71296497408E+02 0.34444264800E+02 0.20401375314E+02 0.15587494078E+02 0.12409189868E+02
 0.10423936353E+02 0.92819316573E+01 0.86556960011E+01 0.82794278782E+01 0.80236527710E+01
 0.76279885352E+01 0.77412698143E+01 0.80236527710E+01 0.84350265892E+01 0.91246585783E+01
 0.10392895832E+02 0.12593185800E+02 0.16071136869E+02 0.21767269872E+02 0.40076578113E+02
 0.85783218612E+02 0.16718497402E+03 0.28220901652E+03 0.41707760748E+03 0.54731630496E+03
 0.64286297886E+03 0.67810047925E+03 0.64286297886E+03 0.54731630496E+03 0.41707760748E+03
 0.28220901652E+03 0.16718497402E+03 0.85783218612E+02 0.40076578113E+02 0.21767269872E+02
 0.16071136869E+02 0.12593185800E+02 0.10392895832E+02 0.91246585783E+01 0.84350265892E+01
 0.80236527710E+01 0.77412698143E+01 0.75096508529E+01 0.76279885352E+01 0.79221447379E+01
 0.83491465501E+01 0.90647696220E+01 0.10381116874E+02 0.12659860722E+02 0.16242802677E+02
 0.22324974627E+02 0.42286911622E+02 0.91291287089E+02 0.17764920394E+03 0.29898114818E+03
 0.44085495328E+03 0.57771643204E+03 0.67810047925E+03 0.71512323884E+03 0.67810047925E+03
 0.57771643204E+03 0.44085495328E+03 0.29898114818E+03 0.17764920394E+03 0.91291287089E+02
 0.42286911622E+02 0.22324974627E+02 0.16242802677E+02 0.12659860722E+02 0.10381116874E+02
 0.90647696220E+01 0.83491465501E+01 0.79221447379E+01 0.76279885352E+01 0.76279885352E+01
 0.77412698143E+01 0.80236527710E+01 0.84350265892E+01 0.91246585783E+01 0.10392895832E+02
 0.12593185800E+02 0.16071136869E+02 0.21767269872E+02 0.40076578113E+02 0.85783218612E+02
 0.16718497402E+03 0.28220901652E+03 0.41707760748E+03 0.54731630496E+03 0.64286297886E+03
 0.67810047925E+03 0.64286297886E+03 0.54731630496E+03 0.41707760748E+03 0.28220901652E+03
 0.16718497402E+03 0.85783218612E+02 0.40076578113E+02 0.21767269872E+02 0.16071136869E+02
 0.12593185800E+02 0.10392895832E+02 0.91246585783E+01 0.84350265892E+01 0.80236527710E+01
 0.77412698143E+01 0.79221447379E+01 0.80236527710E+01 0.82794278782E+01 0.86556960011E+01
 0.92819316573E+01 0.10423936353E+02 0.12409189868E+02 0.15587494078E+02 0.20401375314E+02
 0.34444264800E+02 0.71296497408E+02 0.13919993242E+03 0.23697060460E+03 0.35269892768E+03
 0.46490140956E+03 0.54731630496E+03 0.57771643204E+03 0.54731630496E+03 0.46490140956E+03
 0.35269892768E+03 0.23697060460E+03 0.13919993242E+03 0.71296497408E+02 0.34444264800E+02
 0.20401375314E+02 0.15587494078E+02 0.12409189868E+02 0.10423936353E+02 0.92819316573E+01
 0.86556960011E+01 0.82794278782E+01 0.80236527710E+01 0.83491465501E+01 0.84350265892E+01
 0.86556960011E+01 0.89854698131E+01 0.95251721274E+01 0.10489750706E+02 0.12163245511E+02
 0.14884643792E+02 0.18846381749E+02 0.27781841514E+02 0.52929553283E+02 0.10235729367E+03
 0.17621729465E+03 0.26539895046E+03 0.35269892768E+03 0.41707760748E+03 0.44085495328E+03
 0.41707760748E+03 0.35269892768E+03 0.26539895046E+03 0.17621729465E+03 0.10235729367E+03
 0.52929553283E+02 0.27781841514E+02 0.18846381749E+02 0.14884643792E+02 0.12163245511E+02
 0.10489750706E+02 0.95251721274E+01 0.89854698131E+01 0.86556960011E+01 0.84350265892E+01
 0.90647696220E+01 0.91246585783E+01 0.92819316573E+01 0.95251721274E+01 0.99314637441E+01
 0.10664534601E+02 0.11955272995E+02 0.14106839627E+02 0.17352477258E+02 0.22422899351E+02
 0.36378536634E+02 0.66816254971E+02 0.11537389404E+03 0.17621729465E+03 0.23697060460E+03
 0.28220901652E+03 0.29898114818E+03 0.28220901652E+03 0.23697060460E+03 0.17621729465E+03
 0.11537389404E+03 0.66816254971E+02 0.36378536634E+02 0.22422899351E+02 0.17352477258E+02
 0.14106839627E+02 0.11955272995E+02 0.10664534601E+02 0.99314637441E+01 0.95251721274E+01
 0.92819316573E+01 0.91246585783E+01 0.10381116874E+02 0.10392895832E+02 0.10423936353E+02
 0.10489750706E+02 0.10664534601E+02 0.11079661922E+02 0.11917899121E+02 0.13426661574E+02
 0.15846508474E+02 0.19177792607E+02 0.25327744967E+02 0.40257611444E+02 0.66816254971E+02
 0.10235729367E+03 0.13919993242E+03 0.16718497402E+03 0.17764920394E+03 0.16718497402E+03
 0.13919993242E+03 0.10235729367E+03 0.66816254971E+02 0.40257611444E+02 0.25327744967E+02
 0.19177792607E+02 0.15846508474E+02 0.13426661574E+02 0.11917899121E+02 0.11079661922E+02
 0.10664534601E+02 0.10489750706E+02 0.10423936353E+02 0.10392895832E+02 0.12659860722E+02
 0.12593185800E+02 0.12409189868E+02 0.12163245511E+02 0.11955272995E+02 0.11917899121E+02
 0.12209046003E+02 0.13020756058E+02 0.14551636202E+02 0.16884516627E+02 0.19883832985E+02
 0.25327744967E+02 0.36378536634E+02 0.52929553283E+02 0.71296497408E+02 0.85783218612E+02
 0.91291287089E+02 0.85783218612E+02 0.71296497408E+02 0.52929553283E+02 0.36378536634E+02
 0.25327744967E+02 0.19883832985E+02 0.16884516627E+02 0.14551636202E+02 0.13020756058E+02
 0.12209046003E+02 0.11917899121E+02 0.11955272995E+02 0.12163245511E+02 0.12409189868E+02
 0.12593185800E+02 0.16242802677E+02 0.16071136869E+02 0.15587494078E+02 0.14884643792E+02
 0.14106839627E+02 0.13426661574E+02 0.13020756058E+02 0.13057463461E+02 0.13683081298E+02
 0.14977823674E+02 0.16884516627E+02 0.19177792607E+02 0.22422899351E+02 0.27781841514E+02
 0.34444264800E+02 0.40076578113E+02 0.42286911622E+02 0.40076578113E+02 0.34444264800E+02
 0.27781841514E+02 0.22422899351E+02 0.19177792607E+02 0.16884516627E+02 0.14977823674E+02
 0.13683081298E+02 0.13057463461E+02 0.13020756058E+02 0.13426661574E+02 0.14106839627E+02
 0.14884643792E+02 0.15587494078E+02 0.16071136869E+02 0.22324974627E+02 0.21767269872E+02
 0.20401375314E+02 0.18846381749E+02 0.17352477258E+02 0.15846508474E+02 0.14551636202E+02
 0.13683081298E+02 0.13378203853E+02 0.13683081298E+02 0.14551636202E+02 0.15846508474E+02
 0.17352477258E+02 0.18846381749E+02 0.20401375314E+02 0.21767269872E+02 0.22324974627E+02
 0.21767269872E+02 0.20401375314E+02 0.18846381749E+02 0.17352477258E+02 0.15846508474E+02
 0.14551636202E+02 0.13683081298E+02 0.13378203853E+02 0.13683081298E+02 0.14551636202E+02
 0.15846508474E+02 0.17352477258E+02 0.18846381749E+02 0.20401375314E+02 0.21767269872E+02
 0.42286911622E+02 0.40076578113E+02 0.34444264800E+02 0.27781841514E+02 0.22422899351E+02
 0.19177792607E+02 0.16884516627E+02 0.14977823674E+02 0.13683081298E+02 0.13057463461E+02
 0.13020756058E+02 0.13426661574E+02 0.14106839627E+02 0.14884643792E+02 0.15587494078E+02
 0.16071136869E+02 0.16242802677E+02 0.16071136869E+02 0.15587494078E+02 0.14884643792E+02
 0.14106839627E+02 0.13426661574E+02 0.13020756058E+02 0.13057463461E+02 0.13683081298E+02
 0.14977823674E+02 0.16884516627E+02 0.19177792607E+02 0.22422899351E+02 0.27781841514E+02
 0.34444264800E+02 0.40076578113E+02 0.91291287089E+02 0.85783218612E+02 0.71296497408E+02
 0.52929553283E+02 0.36378536634E+02 0.25327744967E+02 0.19883832985E+02 0.16884516627E+02
 0.14551636202E+02 0.13020756058E+02 0.12209046003E+02 0.11917899121E+02 0.11955272995E+02
 0.12163245511E+02 0.12409189868E+02 0.12593185800E+02 0.12659860722E+02 0.12593185800E+02
 0.12409189868E+02 0.12163245511E+02 0.11955272995E+02 0.11917899121E+02 0.12209046003E+02
 0.13020756058E+02 0.14551636202E+02 0.16884516627E+02 0.19883832985E+02 0.25327744967E+02
 0.36378536634E+02 0.52929553283E+02 0.71296497408E+02 0.85783218612E+02 0.17764920394E+03
 0.16718497402E+03 0.13919993242E+03 0.10235729367E+03 0.66816254971E+02 0.40257611444E+02
 0.25327744967E+02 0.19177792607E+02 0.15846508474E+02 0.13426661574E+02 0.11917899121E+02
 0.11079661922E+02 0.10664534601E+02 0.10489750706E+02 0.10423936353E+02 0.10392895832E+02
 0.10381116874E+02 0.10392895832E+02 0.10423936353E+02 0.10489750706E+02 0.10664534601E+02
 0.11079661922E+02 0.11917899121E+02 0.13426661574E+02 0.15846508474E+02 0.19177792607E+02
 0.25327744967E+02 0.40257611444E+02 0.66816254971E+02 0.10235729367E+03 0.13919993242E+03
 0.16718497402E+03 0.29898114818E+03 0.28220901652E+03 0.23697060460E+03 0.17621729465E+03
 0.11537389404E+03 0.66816254971E+02 0.36378536634E+02 0.22422899351E+02 0.17352477258E+02
 0.14106839627E+02 0.11955272995E+02 0.10664534601E+02 0.99314637441E+01 0.95251721274E+01
 0.92819316573E+01 0.91246585783E+01 0.90647696220E+01 0.91246585783E+01 0.92819316573E+01
 0.95251721274E+01 0.99314637441E+01 0.10664534601E+02 0.11955272995E+02 0.14106839627E+02
 0.17352477258E+02 0.22422899351E+02 0.36378536634E+02 0.66816254971E+02 0.11537389404E+03
 0.17621729465E+03 0.23697060460E+03 0.28220901652E+03 0.44085495328E+03 0.41707760748E+03
 0.35269892768E+03 0.26539895046E+03 0.17621729465E+03 0.10235729367E+03 0.52929553283E+02
 0.27781841514E+02 0.18846381749E+02 0.14884643792E+02 0.12163245511E+02 0.10489750706E+02
 0.95251721274E+01 0.89854698131E+01 0.86556960011E+01 0.84350265892E+01 0.83491465501E+01
 0.84350265892E+01 0.86556960011E+01 0.89854698131E+01 0.95251721274E+01 0.10489750706E+02
 0.12163245511E+02 0.14884643792E+02 0.18846381749E+02 0.27781841514E+02 0.52929553283E+02
 0.10235729367E+03 0.17621729465E+03 0.26539895046E+03 0.35269892768E+03 0.41707760748E+03
 0.57771643204E+03 0.54731630496E+03 0.46490140956E+03 0.35269892768E+03 0.23697060460E+03
 0.13919993242E+03 0.71296497408E+02 0.34444264800E+02 0.20401375314E+02 0.15587494078E+02
 0.12409189868E+02 0.10423936353E+02 0.92819316573E+01 0.86556960011E+01 0.82794278782E+01
 0.80236527710E+01 0.79221447379E+01 0.80236527710E+01 0.82794278782E+01 0.86556960011E+01
 0.92819316573E+01 0.10423936353E+02 0.12409189868E+02 0.15587494078E+02 0.20401375314E+02
 0.34444264800E+02 0.71296497408E+02 0.13919993242E+03 0.23697060460E+03 0.35269892768E+03
 0.46490140956E+03 0.54731630496E+03 0.67810047925E+03 0.64286297886E+03 0.54731630496E+03
 0.41707760748E+03 0.28220901652E+03 0.16718497402E+03 0.85783218612E+02 0.40076578113E+02
 0.21767269872E+02 0.16071136869E+02 0.12593185800E+02 0.10392895832E+02 0.91246585783E+01
 0.84350265892E+01 0.80236527710E+01 0.77412698143E+01 0.76279885352E+01 0.77412698143E+01
 0.80236527710E+01 0.84350265892E+01 0.91246585783E+01 0.10392895832E+02 0.12593185800E+02
 0.16071136869E+02 0.21767269872E+02 0.40076578113E+02 0.85783218612E+02 0.16718497402E+03
 0.28220901652E+03 0.41707760748E+03 0.54731630496E+03 0.64286297886E+03 0.67810047925E+03
 0.64286297886E+03 0.54731630496E+03 0.41707760748E+03 0.28220901652E+03 0.16718497402E+03
 0.85783218612E+02 0.40076578113E+02 0.21767269872E+02 0.16071136869E+02 0.12593185800E+02
 0.10392895832E+02 0.91246585783E+01 0.84350265892E+01 0.80236527710E+01 0.77412698143E+01
 0.76279885352E+01 0.77412698143E+01 0.80236527710E+01 0.84350265892E+01 0.91246585783E+01
 0.10392895832E+02 0.12593185800E+02 0.16071136869E+02 0.21767269872E+02 0.40076578113E+02
 0.85783218612E+02 0.16718497402E+03 0.28220901652E+03 0.41707760748E+03 0.54731630496E+03
 0.64286297886E+03 0.64286297886E+03 0.60932501462E+03 0.51838744719E+03 0.39446827769E+03
 0.26629358487E+03 0.15729847770E+03 0.80622002085E+02 0.38036420902E+02 0.21261301568E+02
 0.15902102212E+02 0.12527518240E+02 0.10403476895E+02 0.91817396483E+01 0.85171658713E+01
 0.81208168724E+01 0.78497141778E+01 0.77412698143E+01 0.78497141778E+01 0.81208168724E+01
 0.85171658713E+01 0.91817396483E+01 0.10403476895E+02 0.12527518240E+02 0.15902102212E+02
 0.21261301568E+02 0.38036420902E+02 0.80622002085E+02 0.15729847770E+03 0.26629358487E+03
 0.39446827769E+03 0.51838744719E+03 0.60932501462E+03 0.54731630496E+03 0.51838744719E+03
 0.43997187268E+03 0.33327361049E+03 0.22339422178E+03 0.13088730172E+03 0.67071231460E+02
 0.32851907555E+02 0.20019154215E+02 0.15426809627E+02 0.12346821907E+02 0.10431778877E+02
 0.93321644396E+01 0.87288492668E+01 0.83663645959E+01 0.81208168724E+01 0.80236527710E+01
 0.81208168724E+01 0.83663645959E+01 0.87288492668E+01 0.93321644396E+01 0.10431778877E+02
 0.12346821907E+02 0.15426809627E+02 0.20019154215E+02 0.32851907555E+02 0.67071231460E+02
 0.13088730172E+03 0.22339422178E+03 0.33327361049E+03 0.43997187268E+03 0.51838744719E+03
 0.41707760748E+03 0.39446827769E+03 0.33327361049E+03 0.25037359061E+03 0.16587555205E+03
 0.96204450790E+02 0.49958526589E+02 0.26753681634E+02 0.18581198346E+02 0.14738262799E+02
 0.12106051002E+02 0.10493720614E+02 0.95658023133E+01 0.90462777774E+01 0.87288492668E+01
 0.85171658713E+01 0.84350265892E+01 0.85171658713E+01 0.87288492668E+01 0.90462777774E+01
 0.95658023133E+01 0.10493720614E+02 0.12106051002E+02 0.14738262799E+02 0.18581198346E+02
 0.26753681634E+02 0.49958526589E+02 0.96204450790E+02 0.16587555205E+03 0.25037359061E+03
 0.33327361049E+03 0.39446827769E+03 0.28220901652E+03 0.26629358487E+03 0.22339422178E+03
 0.16587555205E+03 0.10845742967E+03 0.62905026273E+02 0.34646257681E+02 0.21881766736E+02
 0.17128822002E+02 0.13978739472E+02 0.11902279382E+02 0.10660612024E+02 0.99563250272E+01
 0.95658023133E+01 0.93321644396E+01 0.91817396483E+01 0.91246585783E+01 0.91817396483E+01
 0.93321644396E+01 0.95658023133E+01 0.99563250272E+01 0.10660612024E+02 0.11902279382E+02
 0.13978739472E+02 0.17128822002E+02 0.21881766736E+02 0.34646257681E+02 0.62905026273E+02
 0.10845742967E+03 0.16587555205E+03 0.22339422178E+03 0.26629358487E+03 0.16718497402E+03
 0.15729847770E+03 0.13088730172E+03 0.96204450790E+02 0.62905026273E+02 0.38226622241E+02
 0.24532013379E+02 0.18893761467E+02 0.15656447221E+02 0.13316036589E+02 0.11863134087E+02
 0.11058297998E+02 0.10660612024E+02 0.10493720614E+02 0.10431778877E+02 0.10403476895E+02
 0.10392895832E+02 0.10403476895E+02 0.10431778877E+02 0.10493720614E+02 0.10660612024E+02
 0.11058297998E+02 0.11863134087E+02 0.13316036589E+02 0.15656447221E+02 0.18893761467E+02
 0.24532013379E+02 0.38226622241E+02 0.62905026273E+02 0.96204450790E+02 0.13088730172E+03
 0.15729847770E+03 0.85783218612E+02 0.80622002085E+02 0.67071231460E+02 0.49958526589E+02
 0.34646257681E+02 0.24532013379E+02 0.19560697245E+02 0.16658140406E+02 0.14396645090E+02
 0.12920214574E+02 0.12140555047E+02 0.11863134087E+02 0.11902279382E+02 0.12106051002E+02
 0.12346821907E+02 0.12527518240E+02 0.12593185800E+02 0.12527518240E+02 0.12346821907E+02
 0.12106051002E+02 0.11902279382E+02 0.11863134087E+02 0.12140555047E+02 0.12920214574E+02
 0.14396645090E+02 0.16658140406E+02 0.19560697245E+02 0.24532013379E+02 0.34646257681E+02
 0.49958526589E+02 0.67071231460E+02 0.80622002085E+02 0.40076578113E+02 0.38036420902E+02
 0.32851907555E+02 0.26753681634E+02 0.21881766736E+02 0.18893761467E+02 0.16658140406E+02
 0.14805923129E+02 0.13554546965E+02 0.12952694261E+02 0.12920214574E+02 0.13316036589E+02
 0.13978739472E+02 0.14738262799E+02 0.15426809627E+02 0.15902102212E+02 0.16071136869E+02
 0.15902102212E+02 0.15426809627E+02 0.14738262799E+02 0.13978739472E+02 0.13316036589E+02
 0.12920214574E+02 0.12952694261E+02 0.13554546965E+02 0.14805923129E+02 0.16658140406E+02
 0.18893761467E+02 0.21881766736E+02 0.26753681634E+02 0.32851907555E+02 0.38036420902E+02
 0.21767269872E+02 0.21261301568E+02 0.20019154215E+02 0.18581198346E+02 0.17128822002E+02
 0.15656447221E+02 0.14396645090E+02 0.13554546965E+02 0.13259490497E+02 0.13554546965E+02
 0.14396645090E+02 0.15656447221E+02 0.17128822002E+02 0.18581198346E+02 0.20019154215E+02
 0.21261301568E+02 0.21767269872E+02 0.21261301568E+02 0.20019154215E+02 0.18581198346E+02
 0.17128822002E+02 0.15656447221E+02 0.14396645090E+02 0.13554546965E+02 0.13259490497E+02
 0.13554546965E+02 0.14396645090E+02 0.15656447221E+02 0.17128822002E+02 0.18581198346E+02
 0.20019154215E+02 0.21261301568E+02 0.16071136869E+02 0.15902102212E+02 0.15426809627E+02
 0.14738262799E+02 0.13978739472E+02 0.13316036589E+02 0.12920214574E+02 0.12952694261E+02
 0.13554546965E+02 0.14805923129E+02 0.16658140406E+02 0.18893761467E+02 0.21881766736E+02
 0.26753681634E+02 0.32851907555E+02 0.38036420902E+02 0.40076578113E+02 0.38036420902E+02
 0.32851907555E+02 0.26753681634E+02 0.21881766736E+02 0.18893761467E+02 0.16658140406E+02
 0.14805923129E+02 0.13554546965E+02 0.12952694261E+02 0.12920214574E+02 0.13316036589E+02
 0.13978739472E+02 0.14738262799E+02 0.15426809627E+02 0.15902102212E+02 0.12593185800E+02
 0.12527518240E+02 0.12346821907E+02 0.12106051002E+02 0.11902279382E+02 0.11863134087E+02
 0.12140555047E+02 0.12920214574E+02 0.14396645090E+02 0.16658140406E+02 0.19560697245E+02
 0.24532013379E+02 0.34646257681E+02 0.49958526589E+02 0.67071231460E+02 0.80622002085E+02
 0.85783218612E+02 0.80622002085E+02 0.67071231460E+02 0.49958526589E+02 0.34646257681E+02
 0.24532013379E+02 0.19560697245E+02 0.16658140406E+02 0.14396645090E+02 0.12920214574E+02
 0.12140555047E+02 0.11863134087E+02 0.11902279382E+02 0.12106051002E+02 0.12346821907E+02
 0.12527518240E+02 0.10392895832E+02 0.10403476895E+02 0.10431778877E+02 0.10493720614E+02
 0.10660612024E+02 0.11058297998E+02 0.11863134087E+02 0.13316036589E+02 0.15656447221E+02
 0.18893761467E+02 0.24532013379E+02 0.38226622241E+02 0.62905026273E+02 0.96204450790E+02
 0.13088730172E+03 0.15729847770E+03 0.16718497402E+03 0.15729847770E+03 0.13088730172E+03
 0.96204450790E+02 0.62905026273E+02 0.38226622241E+02 0.24532013379E+02 0.18893761467E+02
 0.15656447221E+02 0.13316036589E+02 0.11863134087E+02 0.11058297998E+02 0.10660612024E+02
 0.10493720614E+02 0.10431778877E+02 0.10403476895E+02 0.91246585783E+01 0.91817396483E+01
 0.93321644396E+01 0.95658023133E+01 0.99563250272E+01 0.10660612024E+02 0.11902279382E+02
 0.13978739472E+02 0.17128822002E+02 0.21881766736E+02 0.34646257681E+02 0.62905026273E+02
 0.10845742967E+03 0.16587555205E+03 0.22339422178E+03 0.26629358487E+03 0.28220901652E+03
 0.26629358487E+03 0.22339422178E+03 0.16587555205E+03 0.10845742967E+03 0.62905026273E+02
 0.34646257681E+02 0.21881766736E+02 0.17128822002E+02 0.13978739472E+02 0.11902279382E+02
 0.10660612024E+02 0.99563250272E+01 0.95658023133E+01 0.93321644396E+01 0.91817396483E+01
 0.84350265892E+01 0.85171658713E+01 0.87288492668E+01 0.90462777774E+01 0.95658023133E+01
 0.10493720614E+02 0.12106051002E+02 0.14738262799E+02 0.18581198346E+02 0.26753681634E+02
 0.49958526589E+02 0.96204450790E+02 0.16587555205E+03 0.25037359061E+03 0.33327361049E+03
 0.39446827769E+03 0.41707760748E+03 0.39446827769E+03 0.33327361049E+03 0.25037359061E+03
 0.16587555205E+03 0.96204450790E+02 0.49958526589E+02 0.26753681634E+02 0.18581198346E+02
 0.14738262799E+02 0.12106051002E+02 0.10493720614E+02 0.95658023133E+01 0.90462777774E+01
 0.87288492668E+01 0.85171658713E+01 0.80236527710E+01 0.81208168724E+01 0.83663645959E+01
 0.87288492668E+01 0.93321644396E+01 0.10431778877E+02 0.12346821907E+02 0.15426809627E+02
 0.20019154215E+02 0.32851907555E+02 0.67071231460E+02 0.13088730172E+03 0.22339422178E+03
 0.33327361049E+03 0.43997187268E+03 0.51838744719E+03 0.54731630496E+03 0.51838744719E+03
 0.43997187268E+03 0.33327361049E+03 0.22339422178E+03 0.13088730172E+03 0.67071231460E+02
 0.32851907555E+02 0.20019154215E+02 0.15426809627E+02 0.12346821907E+02 0.10431778877E+02
 0.93321644396E+01 0.87288492668E+01 0.83663645959E+01 0.81208168724E+01 0.77412698143E+01
 0.78497141778E+01 0.81208168724E+01 0.85171658713E+01 0.91817396483E+01 0.10403476895E+02
 0.12527518240E+02 0.15902102212E+02 0.21261301568E+02 0.38036420902E+02 0.80622002085E+02
 0.15729847770E+03 0.26629358487E+03 0.39446827769E+03 0.51838744719E+03 0.60932501462E+03
 0.64286297886E+03 0.60932501462E+03 0.51838744719E+03 0.39446827769E+03 0.26629358487E+03
 0.15729847770E+03 0.80622002085E+02 0.38036420902E+02 0.21261301568E+02 0.15902102212E+02
 0.12527518240E+02 0.10403476895E+02 0.91817396483E+01 0.85171658713E+01 0.81208168724E+01
 0.78497141778E+01 0.76279885352E+01 0.77412698143E+01 0.80236527710E+01 0.84350265892E+01
 0.91246585783E+01 0.10392895832E+02 0.12593185800E+02 0.16071136869E+02 0.21767269872E+02
 0.40076578113E+02 0.85783218612E+02 0.16718497402E+03 0.28220901652E+03 0.41707760748E+03
 0.54731630496E+03 0.64286297886E+03 0.67810047925E+03 0.64286297886E+03 0.54731630496E+03
 0.41707760748E+03 0.28220901652E+03 0.16718497402E+03 0.85783218612E+02 0.40076578113E+02
 0.21767269872E+02 0.16071136869E+02 0.12593185800E+02 0.10392895832E+02 0.91246585783E+01
 0.84350265892E+01 0.80236527710E+01 0.77412698143E+01 0.77412698143E+01 0.78497141778E+01
 0.81208168724E+01 0.85171658713E+01 0.91817396483E+01 0.10403476895E+02 0.12527518240E+02
 0.15902102212E+02 0.21261301568E+02 0.38036420902E+02 0.80622002085E+02 0.15729847770E+03
 0.26629358487E+03 0.39446827769E+03 0.51838744719E+03 0.60932501462E+03 0.64286297886E+03
 0.60932501462E+03 0.51838744719E+03 0.39446827769E+03 0.26629358487E+03 0.15729847770E+03
 0.80622002085E+02 0.38036420902E+02 0.21261301568E+02 0.15902102212E+02 0.12527518240E+02
 0.10403476895E+02 0.91817396483E+01 0.85171658713E+01 0.81208168724E+01 0.78497141778E+01
 0.80236527710E+01 0.81208168724E+01 0.83663645959E+01 0.87288492668E+01 0.93321644396E+01
 0.10431778877E+02 0.12346821907E+02 0.15426809627E+02 0.20019154215E+02 0.32851907555E+02
 0.67071231460E+02 0.13088730172E+03 0.22339422178E+03 0.33327361049E+03 0.43997187268E+03
 0.51838744719E+03 0.54731630496E+03 0.51838744719E+03 0.43997187268E+03 0.33327361049E+03
 0.22339422178E+03 0.13088730172E+03 0.67071231460E+02 0.32851907555E+02 0.20019154215E+02