unknown system                          
   1.00000000000000     
     3.635000    0.000000    0.000000
     0.000000    3.635000    0.000000
     0.000000    0.000000    3.635000
   Cu
     4
Direct
  0.000000  0.000000  0.000000
  0.500000  0.500000  0.000000
  0.500000  0.000000  0.500000
  0.000000  0.500000  0.500000
 
   32   32   32
  845.06      796.43      665.96      491.88      317.53      175.90      82.741      36.276      20.786      15.194    
  11.569      9.3473      8.0736      7.4328      7.0311      6.6568      6.4775      6.6568      7.0311      7.4328    
  8.0736      9.3473      11.569      15.194      20.786      36.276      82.741      175.90      317.53      491.88    
  665.96      796.43      796.43      750.40      626.91      462.20      297.48      164.18      77.187      34.425    
  20.389      14.996      11.497      9.3671      8.1527      7.5460      7.1706      6.8232      6.6568      6.8232    
  7.1706      7.5460      8.1527      9.3671      11.497      14.996      20.389      34.425      77.187      164.18    
  297.48      462.20      626.91      750.40      665.96      626.91      522.18      382.75      244.09      133.33    
  62.909      29.868      19.360      14.452      11.306      9.4152      8.3415      7.7997      7.4671      7.1706    
  7.0311      7.1706      7.4671      7.7997      8.3415      9.4152      11.306      14.452      19.360      29.868    
  62.909      133.33      244.09      382.75      522.18      626.91      491.88      462.20      382.75      277.57    
  174.35      94.143      45.702      24.837      17.910      13.697      11.066      9.4985      8.5937      8.1080    
  7.7997      7.5460      7.4328      7.5460      7.7997      8.1080      8.5937      9.4985      11.066      13.697    
  17.910      24.837      45.702      94.143      174.35      277.57      382.75      462.20      317.53      297.48    
  244.09      174.35      107.77      58.624      31.517      21.052      16.238      12.910      10.885      9.6891    
  8.9889      8.5937      8.3415      8.1527      8.0736      8.1527      8.3415      8.5937      8.9889      9.6891    
  10.885      12.910      16.238      21.052      31.517      58.624      107.77      174.35      244.09      297.48    
  175.90      164.18      133.33      94.143      58.624      34.705      23.201      18.228      14.632      12.264    
  10.878      10.101      9.6891      9.4985      9.4152      9.3671      9.3473      9.3671      9.4152      9.4985    
  9.6891      10.101      10.878      12.264      14.632      18.228      23.201      34.705      58.624      94.143    
  133.33      164.18      82.741      77.187      62.909      45.702      31.517      23.201      18.972      15.701    
  13.341      11.902      11.162      10.878      10.885      11.066      11.306      11.497      11.569      11.497    
  11.306      11.066      10.885      10.878      11.162      11.902      13.341      15.701      18.972      23.201    
  31.517      45.702      62.909      77.187      36.276      34.425      29.868      24.837      21.052      18.228    
  15.701      13.756      12.521      11.945      11.902      12.264      12.910      13.697      14.452      14.996    
  15.194      14.996      14.452      13.697      12.910      12.264      11.902      11.945      12.521      13.756    
  15.701      18.228      21.052      24.837      29.868      34.425      20.786      20.389      19.360      17.910    
  16.238      14.632      13.341      12.521      12.243      12.521      13.341      14.632      16.238      17.910    
  19.360      20.389      20.786      20.389      19.360      17.910      16.238      14.632      13.341      12.521    
  12.243      12.521      13.341      14.632      16.238      17.910      19.360      20.389      15.194      14.996    
  14.452      13.697      12.910      12.264      11.902      11.945      12.521      13.756      15.701      18.228    
  21.052      24.837      29.868      34.425      36.276      34.425      29.868      24.837      21.052      18.228    
  15.701      13.756      12.521      11.945      11.902      12.264      12.910      13.697      14.452      14.996    
  11.569      11.497      11.306      11.066      10.885      10.878      11.162      11.902      13.341      15.701    
  18.972      23.201      31.517      45.702      62.909      77.187      82.741      77.187      62.909      45.702    
  31.517      23.201      18.972      15.701      13.341      11.902      11.162      10.878      10.885      11.066    
  11.306      11.497      9.3473      9.3671      9.4152      9.4985      9.6891      10.101      10.878      12.264    
  14.632      18.228      23.201      34.705      58.624      94.143      133.33      164.18      175.90      164.18    
  133.33      94.143      58.624      34.705      23.201      18.228      14.632      12.264      10.878      10.101    
  9.6891      9.4985      9.4152      9.3671      8.0736      8.1527      8.3415      8.5937      8.9889      9.6891    
  10.885      12.910      16.238      21.052      31.517      58.624      107.77      174.35      244.09      297.48    
  317.53      297.48      244.09      174.35      107.77      58.624      31.517      21.052      16.238      12.910    
  10.885      9.6891      8.9889      8.5937      8.3415      8.1527      7.4328      7.5460      7.7997      8.1080    
  8.5937      9.4985      11.066      13.697      17.910      24.837      45.702      94.143      174.35      277.57    
  382.75      462.20      491.88      462.20      382.75      277.57      174.35      94.143      45.702      24.837    
  17.910      13.697      11.066      9.4985      8.5937      8.1080      7.7997      7.5460      7.0311      7.1706    
  7.4671      7.7997      8.3415      9.4152      11.306      14.452      19.360      29.868      62.909      133.33    
  244.09      382.75      522.18      626.91      665.96      626.91      522.18      382.75      244.09      133.33    
  62.909      29.868      19.360      14.452      11.306      9.4152      8.3415      7.7997      7.4671      7.1706    
  6.6568      6.8232      7.1706      7.5460      8.1527      9.3671      11.497      14.996      20.389      34.425    
  77.187      164.18      297.48      462.20      626.91      750.40      796.43      750.40      626.91      462.20    
  297.48      164.18      77.187      34.425      20.389      14.996      11.497      9.3671      8.1527      7.5460    
  7.1706      6.8232      6.4775      6.6568      7.0311      7.4328      8.0736      9.3473      11.569      15.194    
  20.786      36.276      82.741      175.90      317.53      491.88      665.96      796.43      845.06      796.43    
  665.96      491.88      317.53      175.90      82.741      36.276      20.786      15.194      11.569      9.3473    
  8.0736      7.4328      7.0311      6.6568      6.6568      6.8232      7.1706      7.5460      8.1527      9.3671    
  11.497      14.996      20.389      34.425      77.187      164.18      297.48      462.20      626.91      750.40    
  796.43      750.40      626.91      462.20      297.48      164.18      77.187      34.425      20.389      14.996    
  11.497      9.3671      8.1527      7.5460      7.1706      6.8232      7.0311      7.1706      7.4671      7.7997    
  8.3415      9.4152      11.306      14.452      19.360      29.868      62.909      133.33      244.09      382.75    
  522.18      626.91      665.96      626.91      522.18      382.75      244.09      133.33      62.909      29.868    
  19.360      14.452      11.306      9.4152      8.3415      7.7997      7.4671      7.1706      7.4328      7.5460    
  7.7997      8.1080      8.5937      9.4985      11.066      13.697      17.910      24.837      45.702      94.143    
  174.35      277.57      382.75      462.20      491.88      462.20      382.75      277.57      174.35      94.143    
  45.702      24.837      17.910      13.697      11.066      9.4985      8.5937      8.1080      7.7997      7.5460    
  8.0736      8.1527      8.3415      8.5937      8.9889      9.6891      10.885      12.910      16.238      21.052    
  31.517      58.624      107.77      174.35      244.09      297.48      317.53      297.48      244.09      174.35    
  107.77      58.624      31.517      21.052      16.238      12.910      10.885      9.6891      8.9889      8.5937    
  8.3415      8.1527      9.3473      9.3671      9.4152      9.4985      9.6891      10.101      10.878      12.264    
  14.632      18.228      23.201      34.705      58.624      94.143      133.33      164.18      175.90      164.18    
  133.33      94.143      58.624      34.705      23.201      18.228      14.632      12.264      10.878      10.101    
  9.6891      9.4985      9.4152      9.3671      11.569      11.497      11.306      11.066      10.885      10.878    
  11.162      11.902      13.341      15.701      18.972      23.201      31.517      45.702      62.909      77.187    
  82.741      77.187      62.909      45.702      31.517      23.201      18.972      15.701      13.341      11.902    
  11.162      10.878      10.885      11.066      11.306      11.497      15.194      14.996      14.452      13.697    
  12.910      12.264      11.902      11.945      12.521      13.756      15.701      18.228      21.052      24.837    
  29.868      34.425      36.276      34.425      29.868      24.837      21.052      18.228      15.701      13.756    
  12.521      11.945      11.902      12.264      12.910      13.697      14.452      14.996      20.786      20.389    
  19.360      17.910      16.238      14.632      13.341      12.521      12.243      12.521      13.341      14.632    
  16.238      17.910      19.360      20.389      20.786      20.389      19.360      17.910      16.238      14.632    
  13.341      12.521      12.243      12.521      13.341      14.632      16.238      17.910      19.360      20.389    
  36.276      34.425      29.868      24.837      21.052      18.228      15.701      13.756      12.521      11.945    
  11.902      12.264      12.910      13.697      14.452      14.996      15.194      14.996      14.452      13.697    
  12.910      12.264      11.902      11.945      12.521      13.756      15.701      18.228      21.052      24.837    
  29.868      34.425      82.741      77.187      62.909      45.702      31.517      23.201      18.972      15.701    
  13.341      11.902      11.162      10.878      10.885      11.066      11.306      11.497      11.569      11.497    
  11.306      11.066      10.885      10.878      11.162      11.902      13.341      15.701      18.972      23.201    
  31.517      45.702      62.909      77.187      175.90      164.18      133.33      94.143      58.624      34.705    
  23.201      18.228      14.632      12.264      10.878      10.101      9.6891      9.4985      9.4152      9.3671    
  9.3473      9.3671      9.4152      9.4985      9.6891      10.101      10.878      12.264      14.632      18.228    
  23.201      34.705      58.624      94.143      133.33      164.18      317.53      297.48      244.09      174.35    
  107.77      58.624      31.517      21.052      16.238      12.910      10.885      9.6891      8.9889      8.5937    
  8.3415      8.1527      8.0736      8.1527      8.3415      8.5937      8.9889      9.6891      10.885      12.910    
  16.238      21.052      31.517      58.624      107.77      174.35      244.09      297.48      491.88      462.20    
  382.75      277.57      174.35      94.143      45.702      24.837      17.910      13.697      11.066      9.4985    
  8.5937      8.1080      7.7997      7.5460      7.4328      7.5460      7.7997      8.1080      8.5937      9.4985    
  11.066      13.697      17.910      24.837      45.702      94.143      174.35      277.57      382.75      462.20    
  665.96      626.91      522.18      382.75      244.09      133.33      62.909      29.868      19.360      14.452    
  11.306      9.4152      8.3415      7.7997      7.4671      7.1706      7.0311      7.1706      7.4671      7.7997    
  8.3415      9.4152      11.306      14.452      19.360      29.868      62.909      133.33      244.09      382.75    
  522.18      626.91      796.43      750.40      626.91      462.20      297.48      164.18      77.187      34.425    
  20.389      14.996      11.497      9.3671      8.1527      7.5460      7.1706      6.8232      6.6568      6.8232    
  7.1706      7.5460      8.1527      9.3671      11.497      14.996      20.389      34.425      77.187      164.18    
  297.48      462.20      626.91      750.40      796.43      750.40      626.91      462.20      297.48      164.18    
  77.187      34.425      20.389      14.996      11.497      9.3671      8.1527      7.5460      7.1706      6.8232    
  6.6568      6.8232      7.1706      7.5460      8.1527      9.3671      11.497      14.996      20.389      34.425    
  77.187      164.18      297.48      462.20      626.91      750.40      750.40      706.84      589.96      434.15    
  278.58      153.20      72.042      32.746      20.019      14.803      11.427      9.3839      8.2257      7.6508    
  7.2998      6.9774      6.8232      6.9774      7.2998      7.6508      8.2257      9.3839      11.427      14.803    
  20.019      32.746      72.042      153.20      278.58      434.15      589.96      706.84      626.91      589.96    
  490.88      359.09      228.30      124.34      58.853      28.624      19.038      14.272      11.240      9.4259    
  8.4010      7.8867      7.5750      7.2998      7.1706      7.2998      7.5750      7.8867      8.4010      9.4259    
  11.240      14.272      19.038      28.624      58.853      124.34      228.30      359.09      490.88      589.96    
  462.20      434.15      359.09      259.86      162.78      87.812      43.045      24.093      17.619      13.539    
  11.006      9.5024      8.6382      8.1765      7.8867      7.6508      7.5460      7.6508      7.8867      8.1765    
  8.6382      9.5024      11.006      13.539      17.619      24.093      43.045      87.812      162.78      259.86    
  359.09      434.15      297.48      278.58      228.30      162.78      100.51      54.925      30.136      20.646    
  15.991      12.777      10.830      9.6834      9.0143      8.6382      8.4010      8.2257      8.1527      8.2257    
  8.4010      8.6382      9.0143      9.6834      10.830      12.777      15.991      20.646      30.136      54.925    
  100.51      162.78      228.30      278.58      164.18      153.20      124.34      87.812      54.925      33.031    
  22.630      17.914      14.435      12.154      10.822      10.078      9.6834      9.5024      9.4259      9.3839    
  9.3671      9.3839      9.4259      9.5024      9.6834      10.078      10.822      12.154      14.435      17.914    
  22.630      33.031      54.925      87.812      124.34      153.20      77.187      72.042      58.853      43.045    
  30.136      22.630      18.635      15.463      13.188      11.805      11.094      10.822      10.830      11.006    
  11.240      11.427      11.497      11.427      11.240      11.006      10.830      10.822      11.094      11.805    
  13.188      15.463      18.635      22.630      30.136      43.045      58.853      72.042      34.425      32.746    
  28.624      24.093      20.646      17.914      15.463      13.586      12.399      11.846      11.805      12.154    
  12.777      13.539      14.272      14.803      14.996      14.803      14.272      13.539      12.777      12.154    
  11.805      11.846      12.399      13.586      15.463      17.914      20.646      24.093      28.624      32.746    
  20.389      20.019      19.038      17.619      15.991      14.435      13.188      12.399      12.131      12.399    
  13.188      14.435      15.991      17.619      19.038      20.019      20.389      20.019      19.038      17.619    
  15.991      14.435      13.188      12.399      12.131      12.399      13.188      14.435      15.991      17.619    
  19.038      20.019      14.996      14.803      14.272      13.539      12.777      12.154      11.805      11.846    
  12.399      13.586      15.463      17.914      20.646      24.093      28.624      32.746      34.425      32.746    
  28.624      24.093      20.646      17.914      15.463      13.586      12.399      11.846      11.805      12.154    
  12.777      13.539      14.272      14.803      11.497      11.427      11.240      11.006      10.830      10.822    
  11.094      11.805      13.188      15.463      18.635      22.630      30.136      43.045      58.853      72.042    
  77.187      72.042      58.853      43.045      30.136      22.630      18.635      15.463      13.188      11.805    
  11.094      10.822      10.830      11.006      11.240      11.427      9.3671      9.3839      9.4259      9.5024    
  9.6834      10.078      10.822      12.154      14.435      17.914      22.630      33.031      54.925      87.812    
  124.34      153.20      164.18      153.20      124.34      87.812      54.925      33.031      22.630      17.914    
  14.435      12.154      10.822      10.078      9.6834      9.5024      9.4259      9.3839      8.1527      8.2257    
  8.4010      8.6382      9.0143      9.6834      10.830      12.777      15.991      20.646      30.136      54.925    
  100.51      162.78      228.30      278.58      297.48      278.58      228.30      162.78      100.51      54.925    
  30.136      20.646      15.991      12.777      10.830      9.6834      9.0143      8.6382      8.4010      8.2257    
  7.5460      7.6508      7.8867      8.1765      8.6382      9.5024      11.006      13.539      17.619      24.093    
  43.045      87.812      162.78      259.86      359.09      434.15      462.20      434.15      359.09      259.86    
  162.78      87.812      43.045      24.093      17.619      13.539      11.006      9.5024      8.6382      8.1765    
  7.8867      7.6508      7.1706      7.2998      7.5750      7.8867      8.4010      9.4259      11.240      14.272    
  19.038      28.624      58.853      124.34      228.30      359.09      490.88      589.96      626.91      589.96    
  490.88      359.09      228.30      124.34      58.853      28.624      19.038      14.272      11.240      9.4259    
  8.4010      7.8867      7.5750      7.2998      6.8232      6.9774      7.2998      7.6508      8.2257      9.3839    
  11.427      14.803      20.019      32.746      72.042      153.20      278.58      434.15      589.96      706.84    
  750.40      706.84      589.96      434.15      278.58      153.20      72.042      32.746      20.019      14.803    
  11.427      9.3839      8.2257      7.6508      7.2998      6.9774      6.6568      6.8232      7.1706      7.5460    
  8.1527      9.3671      11.497      14.996      20.389      34.425      77.187      164.18      297.48      462.20    
  626.91      750.40      796.43      750.40      626.91      462.20      297.48      164.18      77.187      34.425    
  20.389      14.996      11.497      9.3671      8.1527      7.5460      7.1706      6.8232      6.8232      6.9774    
  7.2998      7.6508      8.2257      9.3839      11.427      14.803      20.019      32.746      72.042      153.20    
  278.58      434.15      589.96      706.84      750.40      706.84      589.96      434.15      278.58      153.20    
  72.042      32.746      20.019      14.803      11.427      9.3839      8.2257      7.6508      7.2998      6.9774    
  7.1706      7.2998      7.5750      7.8867      8.4010      9.4259      11.240      14.272      19.038      28.624    
  58.853      124.34      228.30      359.09      490.88      589.96      626.91      589.96      490.88      359.09    
  228.30      124.34      58.853      28.624      19.038      14.272      11.240      9.4259      8.4010      7.8867    
  7.5750      7.2998      7.5460      7.6508      7.8867      8.1765      8.6382      9.5024      11.006      13.539    
  17.619      24.093      43.045      87.812      162.78      259.86      359.09      434.15      462.20      434.15    
  359.09      259.86      162.78      87.812      43.045      24.093      17.619      13.539      11.006      9.5024    
  8.6382      8.1765      7.8867      7.6508      8.1527      8.2257      8.4010      8.6382      9.0143      9.6834    
  10.830      12.777      15.991      20.646      30.136      54.925      100.51      162.78      228.30      278.58    
  297.48      278.58      228.30      162.78      100.51      54.925      30.136      20.646      15.991      12.777    
  10.830      9.6834      9.0143      8.6382      8.4010      8.2257      9.3671      9.3839      9.4259      9.5024    
  9.6834      10.078      10.822      12.154      14.435      17.914      22.630      33.031      54.925      87.812    
  124.34      153.20      164.18      153.20      124.34      87.812      54.925      33.031      22.630      17.914    
  14.435      12.154      10.822      10.078      9.6834      9.5024      9.4259      9.3839      11.497      11.427    
  11.240      11.006      10.830      10.822      11.094      11.805      13.188      15.463      18.635      22.630    
  30.136      43.045      58.853      72.042      77.187      72.042      58.853      43.045      30.136      22.630    
  18.635      15.463      13.188      11.805      11.094      10.822      10.830      11.006      11.240      11.427    
  14.996      14.803      14.272      13.539      12.777      12.154      11.805      11.846      12.399      13.586    
  15.463      17.914      20.646      24.093      28.624      32.746      34.425      32.746      28.624      24.093    
  20.646      17.914      15.463      13.586      12.399      11.846      11.805      12.154      12.777      13.539    
  14.272      14.803      20.389      20.019      19.038      17.619      15.991      14.435      13.188      12.399    
  12.131      12.399      13.188      14.435      15.991      17.619      19.038      20.019      20.389      20.019    
  19.038      17.619      15.991      14.435      13.188      12.399      12.131      12.399      13.188      14.435    
  15.991      17.619      19.038      20.019      34.425      32.746      28.624      24.093      20.646      17.914    
  15.463      13.586      12.399      11.846      11.805      12.154      12.777      13.539      14.272      14.803    
  14.996      14.803      14.272      13.539      12.777      12.154      11.805      11.846      12.399      13.586    
  15.463      17.914      20.646      24.093      28.624      32.746      77.187      72.042      58.853      43.045    
  30.136      22.630      18.635      15.463      13.188      11.805      11.094      10.822      10.830      11.006    
  11.240      11.427      11.497      11.427      11.240      11.006      10.830      10.822      11.094      11.805    
  13.188      15.463      18.635      22.630      30.136      43.045      58.853      72.042      164.18      153.20    
  124.34      87.812      54.925      33.031      22.630      17.914      14.435      12.154      10.822      10.078    
  9.6834      9.5024      9.4259      9.3839      9.3671      9.3839      9.4259      9.5024      9.6834      10.078    
  10.822      12.154      14.435      17.914      22.630      33.031      54.925      87.812      124.34      153.20    
  297.48      278.58      228.30      162.78      100.51      54.925      30.136      20.646      15.991      12.777    
  10.830      9.6834      9.0143      8.6382      8.4010      8.2257      8.1527      8.2257      8.4010      8.6382    
  9.0143      9.6834      10.830      12.777      15.991      20.646      30.136      54.925      100.51      162.78    
  228.30      278.58      462.20      434.15      359.09      259.86      162.78      87.812      43.045      24.093    
  17.619      13.539      11.006      9.5024      8.6382      8.1765      7.8867      7.6508      7.5460      7.6508    
  7.8867      8.1765      8.6382      9.5024      11.006      13.539      17.619      24.093      43.045      87.812    
  162.78      259.86      359.09      434.15      626.91      589.96      490.88      359.09      228.30      124.34    
  58.853      28.624      19.038      14.272      11.240      9.4259      8.4010      7.8867      7.5750      7.2998    
  7.1706      7.2998      7.5750      7.8867      8.4010      9.4259      11.240      14.272      19.038      28.624    
  58.853      124.34      228.30      359.09      490.88      589.96      750.40      706.84      589.96      434.15    
  278.58      153.20      72.042      32.746      20.019      14.803      11.427      9.3839      8.2257      7.6508    
  7.2998      6.9774      6.8232      6.9774      7.2998      7.6508      8.2257      9.3839      11.427      14.803    
  20.019      32.746      72.042      153.20      278.58      434.15      589.96      706.84      665.96      626.91    
  522.18      382.75      244.09      133.33      62.909      29.868      19.360      14.452      11.306      9.4152    
  8.3415      7.7997      7.4671      7.1706      7.0311      7.1706      7.4671      7.7997      8.3415      9.4152    
  11.306      14.452      19.360      29.868      62.909      133.33      244.09      382.75      522.18      626.91    
  626.91      589.96      490.88      359.09      228.30      124.34      58.853      28.624      19.038      14.272    
  11.240      9.4259      8.4010      7.8867      7.5750      7.2998      7.1706      7.2998      7.5750      7.8867    
  8.4010      9.4259      11.240      14.272      19.038      28.624      58.853      124.34      228.30      359.09    
  490.88      589.96      522.18      490.88      407.05      295.89      186.44      100.84      48.536      25.594    
  18.131      13.783      11.064      9.4547      8.5471      8.0865      7.8095      7.5750      7.4671      7.5750    
  7.8095      8.0865      8.5471      9.4547      11.064      13.783      18.131      25.594      48.536      100.84    
  186.44      295.89      407.05      490.88      382.75      359.09      295.89      212.77      132.32      71.432    
  36.389      22.273      16.806      13.111      10.849      9.5171      8.7532      8.3419      8.0865      7.8867    
  7.7997      7.8867      8.0865      8.3419      8.7532      9.5171      10.849      13.111      16.806      22.273    
  36.389      71.432      132.32      212.77      295.89      359.09      244.09      228.30      186.44      132.32    
  81.635      45.529      26.745      19.555      15.306      12.419      10.687      9.6749      9.0855      8.7532    
  8.5471      8.4010      8.3415      8.4010      8.5471      8.7532      9.0855      9.6749      10.687      12.419    
  15.306      19.555      26.745      45.529      81.635      132.32      186.44      228.30      133.33      124.34    
  100.84      71.432      45.529      28.893      21.191      17.034      13.889      11.856      10.677      10.021    
  9.6749      9.5171      9.4547      9.4259      9.4152      9.4259      9.4547      9.5171      9.6749      10.021    
  10.677      11.856      13.889      17.034      21.191      28.893      45.529      71.432      100.84      124.34    
  62.909      58.853      48.536      36.389      26.745      21.191      17.684      14.800      12.766      11.542    
  10.915      10.677      10.687      10.849      11.064      11.240      11.306      11.240      11.064      10.849    
  10.687      10.677      10.915      11.542      12.766      14.800      17.684      21.191      26.745      36.389    
  48.536      58.853      29.868      28.624      25.594      22.273      19.555      17.034      14.800      13.117    
  12.062      11.575      11.542      11.856      12.419      13.111      13.783      14.272      14.452      14.272    
  13.783      13.111      12.419      11.856      11.542      11.575      12.062      13.117      14.800      17.034    
  19.555      22.273      25.594      28.624      19.360      19.038      18.131      16.806      15.306      13.889    
  12.766      12.062      11.825      12.062      12.766      13.889      15.306      16.806      18.131      19.038    
  19.360      19.038      18.131      16.806      15.306      13.889      12.766      12.062      11.825      12.062    
  12.766      13.889      15.306      16.806      18.131      19.038      14.452      14.272      13.783      13.111    
  12.419      11.856      11.542      11.575      12.062      13.117      14.800      17.034      19.555      22.273    
  25.594      28.624      29.868      28.624      25.594      22.273      19.555      17.034      14.800      13.117    
  12.062      11.575      11.542      11.856      12.419      13.111      13.783      14.272      11.306      11.240    
  11.064      10.849      10.687      10.677      10.915      11.542      12.766      14.800      17.684      21.191    
  26.745      36.389      48.536      58.853      62.909      58.853      48.536      36.389      26.745      21.191    
  17.684      14.800      12.766      11.542      10.915      10.677      10.687      10.849      11.064      11.240    
  9.4152      9.4259      9.4547      9.5171      9.6749      10.021      10.677      11.856      13.889      17.034    
  21.191      28.893      45.529      71.432      100.84      124.34      133.33      124.34      100.84      71.432    
  45.529      28.893      21.191      17.034      13.889      11.856      10.677      10.021      9.6749      9.5171    
  9.4547      9.4259      8.3415      8.4010      8.5471      8.7532      9.0855      9.6749      10.687      12.419    
  15.306      19.555      26.745      45.529      81.635      132.32      186.44      228.30      244.09      228.30    