unknown system                          
   1.00000000000000     
     3.635000    0.000000    0.000000
     0.000000    3.635000    0.000000
     0.000000    0.000000    3.635000
   Cu
     4
Direct
  0.000000  0.000000  0.000000
  0.500000  0.500000  0.000000
  0.500000  0.000000  0.500000
  0.000000  0.500000  0.500000
 
   32   32   32
 0.84505591686E+03 0.79642838663E+03 0.66595748196E+03 0.49187896042E+03 0.31752827662E+03
 0.17590399295E+03 0.82741169717E+02 0.36275759472E+02 0.20786294682E+02 0.15194373230E+02
 0.11568806578E+02 0.93472934842E+01 0.80736184429E+01 0.74327887928E+01 0.70311455599E+01
 0.66568356677E+01 0.64774821455E+01 0.66568356677E+01 0.70311455599E+01 0.74327887928E+01
 0.80736184429E+01 0.93472934842E+01 0.11568806578E+02 0.15194373230E+02 0.20786294682E+02
 0.36275759472E+02 0.82741169717E+02 0.17590399295E+03 0.31752827662E+03 0.49187896042E+03
 0.66595748196E+03 0.79642838663E+03 0.79642838663E+03 0.75040176287E+03 0.62690905873E+03
 0.46219994182E+03 0.29747698745E+03 0.16418132287E+03 0.77186622672E+02 0.34424911609E+02
 0.20389269345E+02 0.14996097178E+02 0.11497284227E+02 0.93670517760E+01 0.81527163143E+01
 0.75459876303E+01 0.71706183376E+01 0.68231990335E+01 0.66568356677E+01 0.68231990335E+01
 0.71706183376E+01 0.75459876303E+01 0.81527163143E+01 0.93670517760E+01 0.11497284227E+02
 0.14996097178E+02 0.20389269345E+02 0.34424911609E+02 0.77186622672E+02 0.16418132287E+03
 0.29747698745E+03 0.46219994182E+03 0.62690905873E+03 0.75040176287E+03 0.66595748196E+03
 0.62690905873E+03 0.52217797126E+03 0.38274831819E+03 0.24408657830E+03 0.13333481141E+03
 0.62908782809E+02 0.29867843994E+02 0.19360044423E+02 0.14451713134E+02 0.11306095559E+02
 0.94151924796E+01 0.83415088106E+01 0.77997404204E+01 0.74670893626E+01 0.71706183376E+01
 0.70311455599E+01 0.71706183376E+01 0.74670893626E+01 0.77997404204E+01 0.83415088106E+01
 0.94151924796E+01 0.11306095559E+02 0.14451713134E+02 0.19360044423E+02 0.29867843994E+02
 0.62908782809E+02 0.13333481141E+03 0.24408657830E+03 0.38274831819E+03 0.52217797126E+03
 0.62690905873E+03 0.49187896042E+03 0.46219994182E+03 0.38274831819E+03 0.27756846989E+03
 0.17435245933E+03 0.94142728702E+02 0.45702160193E+02 0.24837283672E+02 0.17909532257E+02
 0.13696640939E+02 0.11066232587E+02 0.94985379738E+01 0.85936989581E+01 0.81080305610E+01
 0.77997404204E+01 0.75459876303E+01 0.74327887928E+01 0.75459876303E+01 0.77997404204E+01
 0.81080305610E+01 0.85936989581E+01 0.94985379738E+01 0.11066232587E+02 0.13696640939E+02
 0.17909532257E+02 0.24837283672E+02 0.45702160193E+02 0.94142728702E+02 0.17435245933E+03
 0.27756846989E+03 0.38274831819E+03 0.46219994182E+03 0.31752827662E+03 0.29747698745E+03
 0.24408657830E+03 0.17435245933E+03 0.10777098192E+03 0.58624301383E+02 0.31517140614E+02
 0.21051968907E+02 0.16238209003E+02 0.12909522043E+02 0.10884967375E+02 0.96891102986E+01
 0.89889348578E+01 0.85936989581E+01 0.83415088106E+01 0.81527163143E+01 0.80736184429E+01
 0.81527163143E+01 0.83415088106E+01 0.85936989581E+01 0.89889348578E+01 0.96891102986E+01
 0.10884967375E+02 0.12909522043E+02 0.16238209003E+02 0.21051968907E+02 0.31517140614E+02
 0.58624301383E+02 0.10777098192E+03 0.17435245933E+03 0.24408657830E+03 0.29747698745E+03
 0.17590399295E+03 0.16418132287E+03 0.13333481141E+03 0.94142728702E+02 0.58624301383E+02
 0.34705426214E+02 0.23201056422E+02 0.18227763817E+02 0.14632393215E+02 0.12263974077E+02
 0.10877511325E+02 0.10101299222E+02 0.96891102986E+01 0.94985379738E+01 0.94151924796E+01
 0.93670517760E+01 0.93472934842E+01 0.93670517760E+01 0.94151924796E+01 0.94985379738E+01
 0.96891102986E+01 0.10101299222E+02 0.10877511325E+02 0.12263974077E+02 0.14632393215E+02
 0.18227763817E+02 0.23201056422E+02 0.34705426214E+02 0.58624301383E+02 0.94142728702E+02
 0.13333481141E+03 0.16418132287E+03 0.82741169717E+02 0.77186622672E+02 0.62908782809E+02
 0.45702160193E+02 0.31517140614E+02 0.23201056422E+02 0.18971952864E+02 0.15701000313E+02
 0.13340659911E+02 0.11902037504E+02 0.11161575082E+02 0.10877511325E+02 0.10884967375E+02
 0.11066232587E+02 0.11306095559E+02 0.11497284227E+02 0.11568806578E+02 0.11497284227E+02
 0.11306095559E+02 0.11066232587E+02 0.10884967375E+02 0.10877511325E+02 0.11161575082E+02
 0.11902037504E+02 0.13340659911E+02 0.15701000313E+02 0.18971952864E+02 0.23201056422E+02
 0.31517140614E+02 0.45702160193E+02 0.62908782809E+02 0.77186622672E+02 0.36275759472E+02
 0.34424911609E+02 0.29867843994E+02 0.24837283672E+02 0.21051968907E+02 0.18227763817E+02
 0.15701000313E+02 0.13756365008E+02 0.12521086544E+02 0.11945097560E+02 0.11902037504E+02
 0.12263974076E+02 0.12909522043E+02 0.13696640939E+02 0.14451713134E+02 0.14996097178E+02
 0.15194373230E+02 0.14996097178E+02 0.14451713134E+02 0.13696640939E+02 0.12909522043E+02
 0.12263974077E+02 0.11902037504E+02 0.11945097560E+02 0.12521086544E+02 0.13756365008E+02
 0.15701000313E+02 0.18227763817E+02 0.21051968907E+02 0.24837283672E+02 0.29867843994E+02
 0.34424911609E+02 0.20786294682E+02 0.20389269345E+02 0.19360044423E+02 0.17909532257E+02
 0.16238209003E+02 0.14632393215E+02 0.13340659911E+02 0.12521086544E+02 0.12242571897E+02
 0.12521086544E+02 0.13340659911E+02 0.14632393215E+02 0.16238209003E+02 0.17909532257E+02
 0.19360044423E+02 0.20389269345E+02 0.20786294682E+02 0.20389269345E+02 0.19360044423E+02
 0.17909532257E+02 0.16238209003E+02 0.14632393215E+02 0.13340659911E+02 0.12521086544E+02
 0.12242571897E+02 0.12521086544E+02 0.13340659911E+02 0.14632393215E+02 0.16238209003E+02
 0.17909532257E+02 0.19360044423E+02 0.20389269345E+02 0.15194373230E+02 0.14996097178E+02
 0.14451713134E+02 0.13696640939E+02 0.12909522043E+02 0.12263974077E+02 0.11902037504E+02
 0.11945097560E+02 0.12521086544E+02 0.13756365008E+02 0.15701000313E+02 0.18227763817E+02
 0.21051968907E+02 0.24837283672E+02 0.29867843994E+02 0.34424911609E+02 0.36275759472E+02
 0.34424911609E+02 0.29867843994E+02 0.24837283672E+02 0.21051968907E+02 0.18227763817E+02
 0.15701000313E+02 0.13756365008E+02 0.12521086544E+02 0.11945097560E+02 0.11902037504E+02
 0.12263974077E+02 0.12909522043E+02 0.13696640939E+02 0.14451713134E+02 0.14996097178E+02
 0.11568806578E+02 0.11497284227E+02 0.11306095559E+02 0.11066232587E+02 0.10884967375E+02
 0.10877511325E+02 0.11161575082E+02 0.11902037504E+02 0.13340659911E+02 0.15701000313E+02
 0.18971952864E+02 0.23201056422E+02 0.31517140614E+02 0.45702160193E+02 0.62908782809E+02
 0.77186622672E+02 0.82741169717E+02 0.77186622672E+02 0.62908782809E+02 0.45702160193E+02
 0.31517140614E+02 0.23201056422E+02 0.18971952864E+02 0.15701000313E+02 0.13340659911E+02
 0.11902037504E+02 0.11161575082E+02 0.10877511325E+02 0.10884967375E+02 0.11066232587E+02
 0.11306095559E+02 0.11497284227E+02 0.93472934842E+01 0.93670517760E+01 0.94151924796E+01
 0.94985379738E+01 0.96891102986E+01 0.10101299222E+02 0.10877511325E+02 0.12263974077E+02
 0.14632393215E+02 0.18227763817E+02 0.23201056422E+02 0.34705426214E+02 0.58624301383E+02
 0.94142728702E+02 0.13333481141E+03 0.16418132287E+03 0.17590399295E+03 0.16418132287E+03
 0.13333481141E+03 0.94142728702E+02 0.58624301383E+02 0.34705426214E+02 0.23201056422E+02
 0.18227763817E+02 0.14632393215E+02 0.12263974077E+02 0.10877511325E+02 0.10101299222E+02
 0.96891102986E+01 0.94985379738E+01 0.94151924796E+01 0.93670517760E+01 0.80736184429E+01
 0.81527163143E+01 0.83415088106E+01 0.85936989581E+01 0.89889348578E+01 0.96891102986E+01
 0.10884967375E+02 0.12909522043E+02 0.16238209003E+02 0.21051968907E+02 0.31517140614E+02
 0.58624301383E+02 0.10777098192E+03 0.17435245933E+03 0.24408657830E+03 0.29747698745E+03
 0.31752827662E+03 0.29747698745E+03 0.24408657830E+03 0.17435245933E+03 0.10777098192E+03
 0.58624301383E+02 0.31517140614E+02 0.21051968907E+02 0.16238209003E+02 0.12909522043E+02
 0.10884967375E+02 0.96891102986E+01 0.89889348578E+01 0.85936989581E+01 0.83415088106E+01
 0.81527163143E+01 0.74327887928E+01 0.75459876303E+01 0.77997404204E+01 0.81080305610E+01
 0.85936989581E+01 0.94985379738E+01 0.11066232587E+02 0.13696640939E+02 0.17909532257E+02
 0.24837283672E+02 0.45702160193E+02 0.94142728702E+02 0.17435245933E+03 0.27756846989E+03
 0.38274831819E+03 0.46219994182E+03 0.49187896042E+03 0.46219994182E+03 0.38274831819E+03
 0.27756846989E+03 0.17435245933E+03 0.94142728702E+02 0.45702160193E+02 0.24837283672E+02
 0.17909532257E+02 0.13696640939E+02 0.11066232587E+02 0.94985379738E+01 0.85936989581E+01
 0.81080305610E+01 0.77997404204E+01 0.75459876303E+01 0.70311455599E+01 0.71706183376E+01
 0.74670893626E+01 0.77997404204E+01 0.83415088106E+01 0.94151924796E+01 0.11306095559E+02
 0.14451713134E+02 0.19360044423E+02 0.29867843994E+02 0.62908782809E+02 0.13333481141E+03
 0.24408657830E+03 0.38274831819E+03 0.52217797126E+03 0.62690905873E+03 0.66595748196E+03
 0.62690905873E+03 0.52217797126E+03 0.38274831819E+03 0.24408657830E+03 0.13333481141E+03
 0.62908782809E+02 0.29867843994E+02 0.19360044423E+02 0.14451713134E+02 0.11306095559E+02
 0.94151924796E+01 0.83415088106E+01 0.77997404204E+01 0.74670893626E+01 0.71706183376E+01
 0.66568356677E+01 0.68231990335E+01 0.71706183376E+01 0.75459876303E+01 0.81527163143E+01
 0.93670517760E+01 0.11497284227E+02 0.14996097178E+02 0.20389269345E+02 0.34424911609E+02
 0.77186622672E+02 0.16418132287E+03 0.29747698745E+03 0.46219994182E+03 0.62690905873E+03
 0.75040176287E+03 0.79642838663E+03 0.75040176287E+03 0.62690905873E+03 0.46219994182E+03
 0.29747698745E+03 0.16418132287E+03 0.77186622672E+02 0.34424911609E+02 0.20389269345E+02
 0.14996097178E+02 0.11497284227E+02 0.93670517760E+01 0.81527163143E+01 0.75459876303E+01
 0.71706183376E+01 0.68231990335E+01 0.64774821455E+01 0.66568356677E+01 0.70311455599E+01
 0.74327887928E+01 0.80736184429E+01 0.93472934842E+01 0.11568806578E+02 0.15194373230E+02
 0.20786294682E+02 0.36275759472E+02 0.82741169717E+02 0.17590399295E+03 0.31752827662E+03
 0.49187896042E+03 0.66595748196E+03 0.79642838663E+03 0.84505591686E+03 0.79642838663E+03
 0.66595748196E+03 0.49187896042E+03 0.31752827662E+03 0.17590399295E+03 0.82741169717E+02
 0.36275759472E+02 0.20786294682E+02 0.15194373230E+02 0.11568806578E+02 0.93472934842E+01
 0.80736184429E+01 0.74327887928E+01 0.70311455599E+01 0.66568356677E+01 0.66568356677E+01
 0.68231990335E+01 0.71706183376E+01 0.75459876303E+01 0.81527163143E+01 0.93670517760E+01
 0.11497284227E+02 0.14996097178E+02 0.20389269345E+02 0.34424911609E+02 0.77186622672E+02
 0.16418132287E+03 0.29747698745E+03 0.46219994182E+03 0.62690905873E+03 0.75040176287E+03
 0.79642838663E+03 0.75040176287E+03 0.62690905873E+03 0.46219994182E+03 0.29747698745E+03
 0.16418132287E+03 0.77186622672E+02 0.34424911609E+02 0.20389269345E+02 0.14996097178E+02
 0.11497284227E+02 0.93670517760E+01 0.81527163143E+01 0.75459876303E+01 0.71706183376E+01
 0.68231990335E+01 0.70311455599E+01 0.71706183376E+01 0.74670893626E+01 0.77997404204E+01
 0.83415088106E+01 0.94151924796E+01 0.11306095559E+02 0.14451713134E+02 0.19360044423E+02
 0.29867843994E+02 0.62908782809E+02 0.13333481141E+03 0.24408657830E+03 0.38274831819E+03
 0.52217797126E+03 0.62690905873E+03 0.66595748196E+03 0.62690905873E+03 0.52217797126E+03
 0.38274831819E+03 0.24408657830E+03 0.13333481141E+03 0.62908782809E+02 0.29867843994E+02
 0.19360044423E+02 0.14451713134E+02 0.11306095559E+02 0.94151924796E+01 0.83415088106E+01
 0.77997404204E+01 0.74670893626E+01 0.71706183376E+01 0.74327887928E+01 0.75459876303E+01
 0.77997404204E+01 0.81080305610E+01 0.85936989581E+01 0.94985379738E+01 0.11066232587E+02
 0.13696640939E+02 0.17909532257E+02 0.24837283672E+02 0.45702160193E+02 0.94142728702E+02
 0.17435245933E+03 0.27756846989E+03 0.38274831819E+03 0.46219994182E+03 0.49187896042E+03
 0.46219994182E+03 0.38274831819E+03 0.27756846989E+03 0.17435245933E+03 0.94142728702E+02
 0.45702160193E+02 0.24837283672E+02 0.17909532257E+02 0.13696640939E+02 0.11066232587E+02
 0.94985379738E+01 0.85936989581E+01 0.81080305610E+01 0.77997404204E+01 0.75459876303E+01
 0.80736184429E+01 0.81527163143E+01 0.83415088106E+01 0.85936989581E+01 0.89889348578E+01
 0.96891102986E+01 0.10884967375E+02 0.12909522043E+02 0.16238209003E+02 0.21051968907E+02
 0.31517140614E+02 0.58624301383E+02 0.10777098192E+03 0.17435245933E+03 0.24408657830E+03
 0.29747698745E+03 0.31752827662E+03 0.29747698745E+03 0.24408657830E+03 0.17435245933E+03
 0.10777098192E+03 0.58624301383E+02 0.31517140614E+02 0.21051968907E+02 0.16238209003E+02
 0.12909522043E+02 0.10884967375E+02 0.96891102986E+01 0.89889348578E+01 0.85936989581E+01
 0.83415088106E+01 0.81527163143E+01 0.93472934842E+01 0.93670517760E+01 0.94151924796E+01
 0.94985379738E+01 0.96891102986E+01 0.10101299222E+02 0.10877511325E+02 0.12263974077E+02
 0.14632393215E+02 0.18227763817E+02 0.23201056422E+02 0.34705426214E+02 0.58624301383E+02
 0.94142728702E+02 0.13333481141E+03 0.16418132287E+03 0.17590399295E+03 0.16418132287E+03
 0.13333481141E+03 0.94142728702E+02 0.58624301383E+02 0.34705426214E+02 0.23201056422E+02
 0.18227763817E+02 0.14632393215E+02 0.12263974077E+02 0.10877511325E+02 0.10101299222E+02
 0.96891102986E+01 0.94985379738E+01 0.94151924796E+01 0.93670517760E+01 0.11568806578E+02
 0.11497284227E+02 0.11306095559E+02 0.11066232587E+02 0.10884967375E+02 0.10877511325E+02
 0.11161575082E+02 0.11902037504E+02 0.13340659911E+02 0.15701000313E+02 0.18971952864E+02
 0.23201056422E+02 0.31517140614E+02 0.45702160193E+02 0.62908782809E+02 0.77186622672E+02
 0.82741169717E+02 0.77186622672E+02 0.62908782809E+02 0.45702160193E+02 0.31517140614E+02
 0.23201056422E+02 0.18971952864E+02 0.15701000313E+02 0.13340659911E+02 0.11902037504E+02
 0.11161575082E+02 0.10877511325E+02 0.10884967375E+02 0.11066232587E+02 0.11306095559E+02
 0.11497284227E+02 0.15194373230E+02 0.14996097178E+02 0.14451713134E+02 0.13696640939E+02
 0.12909522043E+02 0.12263974077E+02 0.11902037504E+02 0.11945097560E+02 0.12521086544E+02
 0.13756365008E+02 0.15701000313E+02 0.18227763817E+02 0.21051968907E+02 0.24837283672E+02
 0.29867843994E+02 0.34424911609E+02 0.36275759472E+02 0.34424911609E+02 0.29867843994E+02
 0.24837283672E+02 0.21051968907E+02 0.18227763817E+02 0.15701000313E+02 0.13756365008E+02
 0.12521086544E+02 0.11945097560E+02 0.11902037504E+02 0.12263974076E+02 0.12909522043E+02
 0.13696640939E+02 0.14451713134E+02 0.14996097178E+02 0.20786294682E+02 0.20389269345E+02
 0.19360044423E+02 0.17909532257E+02 0.16238209003E+02 0.14632393215E+02 0.13340659911E+02
 0.12521086544E+02 0.12242571897E+02 0.12521086544E+02 0.13340659911E+02 0.14632393215E+02
 0.16238209003E+02 0.17909532257E+02 0.19360044423E+02 0.20389269345E+02 0.20786294682E+02
 0.20389269345E+02 0.19360044423E+02 0.17909532257E+02 0.16238209003E+02 0.14632393215E+02
 0.13340659911E+02 0.12521086544E+02 0.12242571897E+02 0.12521086544E+02 0.13340659911E+02
 0.14632393215E+02 0.16238209003E+02 0.17909532257E+02 0.19360044423E+02 0.20389269345E+02
 0.36275759472E+02 0.34424911609E+02 0.29867843994E+02 0.24837283672E+02 0.21051968907E+02
 0.18227763817E+02 0.15701000313E+02 0.13756365008E+02 0.12521086544E+02 0.11945097560E+02
 0.11902037504E+02 0.12263974077E+02 0.12909522043E+02 0.13696640939E+02 0.14451713134E+02
 0.14996097178E+02 0.15194373230E+02 0.14996097178E+02 0.14451713134E+02 0.13696640939E+02
 0.12909522043E+02 0.12263974077E+02 0.11902037504E+02 0.11945097560E+02 0.12521086544E+02
 0.13756365008E+02 0.15701000313E+02 0.18227763817E+02 0.21051968907E+02 0.24837283672E+02
 0.29867843994E+02 0.34424911609E+02 0.82741169717E+02 0.77186622672E+02 0.62908782809E+02
 0.45702160193E+02 0.31517140614E+02 0.23201056422E+02 0.18971952864E+02 0.15701000313E+02
 0.13340659911E+02 0.11902037504E+02 0.11161575082E+02 0.10877511325E+02 0.10884967375E+02
 0.11066232587E+02 0.11306095559E+02 0.11497284227E+02 0.11568806578E+02 0.11497284227E+02
 0.11306095559E+02 0.11066232587E+02 0.10884967375E+02 0.10877511325E+02 0.11161575082E+02
 0.11902037504E+02 0.13340659911E+02 0.15701000313E+02 0.18971952864E+02 0.23201056422E+02
 0.31517140614E+02 0.45702160193E+02 0.62908782809E+02 0.77186622672E+02 0.17590399295E+03
 0.16418132287E+03 0.13333481141E+03 0.94142728702E+02 0.58624301383E+02 0.34705426214E+02
 0.23201056422E+02 0.18227763817E+02 0.14632393215E+02 0.12263974077E+02 0.10877511325E+02
 0.10101299222E+02 0.96891102986E+01 0.94985379738E+01 0.94151924796E+01 0.93670517760E+01
 0.93472934842E+01 0.93670517760E+01 0.94151924796E+01 0.94985379738E+01 0.96891102986E+01
 0.10101299222E+02 0.10877511325E+02 0.12263974077E+02 0.14632393215E+02 0.18227763817E+02
 0.23201056422E+02 0.34705426214E+02 0.58624301383E+02 0.94142728702E+02 0.13333481141E+03
 0.16418132287E+03 0.31752827662E+03 0.29747698745E+03 0.24408657830E+03 0.17435245933E+03
 0.10777098192E+03 0.58624301383E+02 0.31517140614E+02 0.21051968907E+02 0.16238209003E+02
 0.12909522043E+02 0.10884967375E+02 0.96891102986E+01 0.89889348578E+01 0.85936989581E+01
 0.83415088106E+01 0.81527163143E+01 0.80736184429E+01 0.81527163143E+01 0.83415088106E+01
 0.85936989581E+01 0.89889348578E+01 0.96891102986E+01 0.10884967375E+02 0.12909522043E+02
 0.16238209003E+02 0.21051968907E+02 0.31517140614E+02 0.58624301383E+02 0.10777098192E+03
 0.17435245933E+03 0.24408657830E+03 0.29747698745E+03 0.49187896042E+03 0.46219994182E+03
 0.38274831819E+03 0.27756846989E+03 0.17435245933E+03 0.94142728702E+02 0.45702160193E+02
 0.24837283672E+02 0.17909532257E+02 0.13696640939E+02 0.11066232587E+02 0.94985379738E+01
 0.85936989581E+01 0.81080305610E+01 0.77997404204E+01 0.75459876303E+01 0.74327887928E+01
 0.75459876303E+01 0.77997404204E+01 0.81080305610E+01 0.85936989581E+01 0.94985379738E+01
 0.11066232587E+02 0.13696640939E+02 0.17909532257E+02 0.24837283672E+02 0.45702160193E+02
 0.94142728702E+02 0.17435245933E+03 0.27756846989E+03 0.38274831819E+03 0.46219994182E+03
 0.66595748196E+03 0.62690905873E+03 0.52217797126E+03 0.38274831819E+03 0.24408657830E+03
 0.13333481141E+03 0.62908782809E+02 0.29867843994E+02 0.19360044423E+02 0.14451713134E+02
 0.11306095559E+02 0.94151924796E+01 0.83415088106E+01 0.77997404204E+01 0.74670893626E+01
 0.71706183376E+01 0.70311455599E+01 0.71706183376E+01 0.74670893626E+01 0.77997404204E+01
 0.83415088106E+01 0.94151924796E+01 0.11306095559E+02 0.14451713134E+02 0.19360044423E+02
 0.29867843994E+02 0.62908782809E+02 0.13333481141E+03 0.24408657830E+03 0.38274831819E+03
 0.52217797126E+03 0.62690905873E+03 0.79642838663E+03 0.75040176287E+03 0.62690905873E+03
 0.46219994182E+03 0.29747698745E+03 0.16418132287E+03 0.77186622672E+02 0.34424911609E+02
 0.20389269345E+02 0.14996097178E+02 0.11497284227E+02 0.93670517760E+01 0.81527163143E+01
 0.75459876303E+01 0.71706183376E+01 0.68231990335E+01 0.66568356677E+01 0.68231990335E+01
 0.71706183376E+01 0.75459876303E+01 0.81527163143E+01 0.93670517760E+01 0.11497284227E+02
 0.14996097178E+02 0.20389269345E+02 0.34424911609E+02 0.77186622672E+02 0.16418132287E+03
 0.29747698745E+03 0.46219994182E+03 0.62690905873E+03 0.75040176287E+03 0.79642838663E+03
 0.75040176287E+03 0.62690905873E+03 0.46219994182E+03 0.29747698745E+03 0.16418132287E+03
 0.77186622672E+02 0.34424911609E+02 0.20389269345E+02 0.14996097178E+02 0.11497284227E+02
 0.93670517760E+01 0.81527163143E+01 0.75459876303E+01 0.71706183376E+01 0.68231990335E+01
 0.66568356677E+01 0.68231990335E+01 0.71706183376E+01 0.75459876303E+01 0.81527163143E+01
 0.93670517760E+01 0.11497284227E+02 0.14996097178E+02 0.20389269345E+02 0.34424911609E+02
 0.77186622672E+02 0.16418132287E+03 0.29747698745E+03 0.46219994182E+03 0.62690905873E+03
 0.75040176287E+03 0.75040176287E+03 0.70683805596E+03 0.58995989013E+03 0.43414648525E+03
 0.27857757186E+03 0.15319840807E+03 0.72042479366E+02 0.32745744381E+02 0.20019459027E+02
 0.14802676227E+02 0.11426885559E+02 0.93839431529E+01 0.82257085760E+01 0.76508183212E+01
 0.72998066995E+01 0.69774288392E+01 0.68231990335E+01 0.69774288392E+01 0.72998066995E+01
 0.76508183212E+01 0.82257085760E+01 0.93839431529E+01 0.11426885559E+02 0.14802676227E+02
 0.20019459027E+02 0.32745744381E+02 0.72042479366E+02 0.15319840807E+03 0.27857757186E+03
 0.43414648525E+03 0.58995989013E+03 0.70683805596E+03 0.62690905873E+03 0.58995989013E+03
 0.49088144095E+03 0.35908515111E+03 0.22830127347E+03 0.12434301791E+03 0.58852550251E+02
 0.28624130660E+02 0.19037708920E+02 0.14272492555E+02 0.11239510590E+02 0.94258682187E+01
 0.84009575062E+01 0.78866934037E+01 0.75749625520E+01 0.72998066995E+01 0.71706183376E+01
 0.72998066995E+01 0.75749625520E+01 0.78866934037E+01 0.84009575062E+01 0.94258682187E+01
 0.11239510590E+02 0.14272492555E+02 0.19037708920E+02 0.28624130660E+02 0.58852550251E+02
 0.12434301791E+03 0.22830127347E+03 0.35908515111E+03 0.49088144095E+03 0.58995989013E+03
 0.46219994182E+03 0.43414648525E+03 0.35908515111E+03 0.25985707438E+03 0.16278394584E+03
 0.87811538241E+02 0.43045362418E+02 0.24092992289E+02 0.17618889529E+02 0.13539144321E+02
 0.11005795732E+02 0.95024477426E+01 0.86382426316E+01 0.81764971385E+01 0.78866934037E+01
 0.76508183212E+01 0.75459876303E+01 0.76508183212E+01 0.78866934037E+01 0.81764971385E+01
 0.86382426316E+01 0.95024477426E+01 0.11005795732E+02 0.13539144321E+02 0.17618889529E+02
 0.24092992289E+02 0.43045362418E+02 0.87811538241E+02 0.16278394584E+03 0.25985707438E+03
 0.35908515111E+03 0.43414648525E+03 0.29747698745E+03 0.27857757186E+03 0.22830127347E+03
 0.16278394584E+03 0.10051054101E+03 0.54925236814E+02 0.30136106944E+02 0.20645885367E+02
 0.15991177418E+02 0.12777057111E+02 0.10829808120E+02 0.96833776820E+01 0.90143444968E+01
 0.86382426316E+01 0.84009575062E+01 0.82257085760E+01 0.81527163143E+01 0.82257085760E+01
 0.84009575062E+01 0.86382426316E+01 0.90143444968E+01 0.96833776820E+01 0.10829808120E+02
 0.12777057111E+02 0.15991177418E+02 0.20645885367E+02 0.30136106944E+02 0.54925236814E+02
 0.10051054101E+03 0.16278394584E+03 0.22830127347E+03 0.27857757186E+03 0.16418132287E+03
 0.15319840807E+03 0.12434301791E+03 0.87811538241E+02 0.54925236814E+02 0.33030742409E+02
 0.22630271845E+02 0.17914425416E+02 0.14434626886E+02 0.12153804664E+02 0.10821753816E+02
 0.10077510651E+02 0.96833776820E+01 0.95024477426E+01 0.94258682187E+01 0.93839431529E+01
 0.93670517760E+01 0.93839431529E+01 0.94258682187E+01 0.95024477426E+01 0.96833776820E+01
 0.10077510651E+02 0.10821753816E+02 0.12153804664E+02 0.14434626886E+02 0.17914425416E+02
 0.22630271845E+02 0.33030742409E+02 0.54925236814E+02 0.87811538241E+02 0.12434301791E+03
 0.15319840807E+03 0.77186622672E+02 0.72042479366E+02 0.58852550251E+02 0.43045362418E+02
 0.30136106944E+02 0.22630271845E+02 0.18634891130E+02 0.15462767598E+02 0.13187606823E+02
 0.11805036304E+02 0.11094131854E+02 0.10821753816E+02 0.10829808120E+02 0.11005795732E+02
 0.11239510590E+02 0.11426885559E+02 0.11497284227E+02 0.11426885559E+02 0.11239510590E+02
 0.11005795732E+02 0.10829808120E+02 0.10821753816E+02 0.11094131854E+02 0.11805036304E+02
 0.13187606823E+02 0.15462767598E+02 0.18634891130E+02 0.22630271845E+02 0.30136106944E+02
 0.43045362418E+02 0.58852550251E+02 0.72042479366E+02 0.34424911609E+02 0.32745744381E+02
 0.28624130660E+02 0.24092992289E+02 0.20645885367E+02 0.17914425416E+02 0.15462767598E+02
 0.13586411355E+02 0.12398775815E+02 0.11845989895E+02 0.11805036304E+02 0.12153804664E+02
 0.12777057111E+02 0.13539144321E+02 0.14272492555E+02 0.14802676227E+02 0.14996097178E+02
 0.14802676227E+02 0.14272492555E+02 0.13539144321E+02 0.12777057111E+02 0.12153804664E+02
 0.11805036304E+02 0.11845989895E+02 0.12398775815E+02 0.13586411355E+02 0.15462767598E+02
 0.17914425416E+02 0.20645885367E+02 0.24092992289E+02 0.28624130660E+02 0.32745744381E+02
 0.20389269345E+02 0.20019459027E+02 0.19037708920E+02 0.17618889529E+02 0.15991177418E+02
 0.14434626886E+02 0.13187606823E+02 0.12398775815E+02 0.12131139521E+02 0.12398775815E+02
 0.13187606823E+02 0.14434626886E+02 0.15991177418E+02 0.17618889529E+02 0.19037708920E+02
 0.20019459027E+02 0.20389269345E+02 0.20019459027E+02 0.19037708920E+02 0.17618889529E+02
 0.15991177418E+02 0.14434626886E+02 0.13187606823E+02 0.12398775815E+02 0.12131139521E+02
 0.12398775815E+02 0.13187606823E+02 0.14434626886E+02 0.15991177418E+02 0.17618889529E+02
 0.19037708920E+02 0.20019459027E+02 0.14996097178E+02 0.14802676227E+02 0.14272492555E+02
 0.13539144321E+02 0.12777057111E+02 0.12153804664E+02 0.11805036304E+02 0.11845989895E+02
 0.12398775815E+02 0.13586411355E+02 0.15462767598E+02 0.17914425416E+02 0.20645885367E+02
 0.24092992289E+02 0.28624130660E+02 0.32745744381E+02 0.34424911609E+02 0.32745744381E+02
 0.28624130660E+02 0.24092992289E+02 0.20645885367E+02 0.17914425416E+02 0.15462767598E+02
 0.13586411355E+02 0.12398775815E+02 0.11845989895E+02 0.11805036304E+02 0.12153804664E+02
 0.12777057111E+02 0.13539144321E+02 0.14272492555E+02 0.14802676227E+02 0.11497284227E+02
 0.11426885559E+02 0.11239510590E+02 0.11005795732E+02 0.10829808120E+02 0.10821753816E+02
 0.11094131854E+02 0.11805036304E+02 0.13187606823E+02 0.15462767598E+02 0.18634891130E+02
 0.22630271845E+02 0.30136106944E+02 0.43045362418E+02 0.58852550251E+02 0.72042479366E+02
 0.77186622672E+02 0.72042479366E+02 0.58852550251E+02 0.43045362418E+02 0.30136106944E+02
 0.22630271845E+02 0.18634891130E+02 0.15462767598E+02 0.13187606823E+02 0.11805036304E+02
 0.11094131854E+02 0.10821753816E+02 0.10829808120E+02 0.11005795732E+02 0.11239510590E+02
 0.11426885559E+02 0.93670517760E+01 0.93839431529E+01 0.94258682187E+01 0.95024477426E+01
 0.96833776820E+01 0.10077510651E+02 0.10821753816E+02 0.12153804664E+02 0.14434626886E+02
 0.17914425416E+02 0.22630271845E+02 0.33030742409E+02 0.54925236814E+02 0.87811538241E+02
 0.12434301791E+03 0.15319840807E+03 0.16418132287E+03 0.15319840807E+03 0.12434301791E+03
 0.87811538241E+02 0.54925236814E+02 0.33030742409E+02 0.22630271845E+02 0.17914425416E+02
 0.14434626886E+02 0.12153804664E+02 0.10821753816E+02 0.10077510651E+02 0.96833776820E+01
 0.95024477426E+01 0.94258682187E+01 0.93839431529E+01 0.81527163143E+01 0.82257085760E+01
 0.84009575062E+01 0.86382426316E+01 0.90143444968E+01 0.96833776820E+01 0.10829808120E+02
 0.12777057111E+02 0.15991177418E+02 0.20645885367E+02 0.30136106944E+02 0.54925236814E+02
 0.10051054101E+03 0.16278394584E+03 0.22830127347E+03 0.27857757186E+03 0.29747698745E+03
 0.27857757186E+03 0.22830127347E+03 0.16278394584E+03 0.10051054101E+03 0.54925236814E+02
 0.30136106944E+02 0.20645885367E+02 0.15991177418E+02 0.12777057111E+02 0.10829808120E+02
 0.96833776820E+01 0.90143444968E+01 0.86382426316E+01 0.84009575062E+01 0.82257085760E+01
 0.75459876303E+01 0.76508183212E+01 0.78866934037E+01 0.81764971385E+01 0.86382426316E+01
 0.95024477426E+01 0.11005795732E+02 0.13539144321E+02 0.17618889529E+02 0.24092992289E+02
 0.43045362418E+02 0.87811538241E+02 0.16278394584E+03 0.25985707438E+03 0.35908515111E+03
 0.43414648525E+03 0.46219994182E+03 0.43414648525E+03 0.35908515111E+03 0.25985707438E+03
 0.16278394584E+03 0.87811538241E+02 0.43045362418E+02 0.24092992289E+02 0.17618889529E+02
 0.13539144321E+02 0.11005795732E+02 0.95024477426E+01 0.86382426316E+01 0.81764971385E+01
 0.78866934037E+01 0.76508183212E+01 0.71706183376E+01 0.72998066995E+01 0.75749625520E+01
 0.78866934037E+01 0.84009575062E+01 0.94258682187E+01 0.11239510590E+02 0.14272492555E+02
 0.19037708920E+02 0.28624130660E+02 0.58852550251E+02 0.12434301791E+03 0.22830127347E+03
 0.35908515111E+03 0.49088144095E+03 0.58995989013E+03 0.62690905873E+03 0.58995989013E+03
 0.49088144095E+03 0.35908515111E+03 0.22830127347E+03 0.12434301791E+03 0.58852550251E+02
 0.28624130660E+02 0.19037708920E+02 0.14272492555E+02 0.11239510590E+02 0.94258682187E+01
 0.84009575062E+01 0.78866934037E+01 0.75749625520E+01 0.72998066995E+01 0.68231990335E+01
 0.69774288392E+01 0.72998066995E+01 0.76508183212E+01 0.82257085760E+01 0.93839431529E+01
 0.11426885559E+02 0.14802676227E+02 0.20019459027E+02 0.32745744381E+02 0.72042479366E+02
 0.15319840807E+03 0.27857757186E+03 0.43414648525E+03 0.58995989013E+03 0.70683805596E+03
 0.75040176287E+03 0.70683805596E+03 0.58995989013E+03 0.43414648525E+03 0.27857757186E+03
 0.15319840807E+03 0.72042479366E+02 0.32745744381E+02 0.20019459027E+02 0.14802676227E+02
 0.11426885559E+02 0.93839431529E+01 0.82257085760E+01 0.76508183212E+01 0.72998066995E+01
 0.69774288392E+01 0.66568356677E+01 0.68231990335E+01 0.71706183376E+01 0.75459876303E+01
 0.81527163143E+01 0.93670517760E+01 0.11497284227E+02 0.14996097178E+02 0.20389269345E+02
 0.34424911609E+02 0.77186622672E+02 0.16418132287E+03 0.29747698745E+03 0.46219994182E+03
 0.62690905873E+03 0.75040176287E+03 0.79642838663E+03 0.75040176287E+03 0.62690905873E+03
 0.46219994182E+03 0.29747698745E+03 0.16418132287E+03 0.77186622672E+02 0.34424911609E+02
 0.20389269345E+02 0.14996097178E+02 0.11497284227E+02 0.93670517760E+01 0.81527163143E+01
 0.75459876303E+01 0.71706183376E+01 0.68231990335E+01 0.68231990335E+01 0.69774288392E+01
 0.72998066995E+01 0.76508183212E+01 0.82257085760E+01 0.93839431529E+01 0.11426885559E+02
 0.14802676227E+02 0.20019459027E+02 0.32745744381E+02 0.72042479366E+02 0.15319840807E+03
 0.27857757186E+03 0.43414648525E+03 0.58995989013E+03 0.70683805596E+03 0.75040176287E+03
 0.70683805596E+03 0.58995989013E+03 0.43414648525E+03 0.27857757186E+03 0.15319840807E+03
 0.72042479366E+02 0.32745744381E+02 0.20019459027E+02 0.14802676227E+02 0.11426885559E+02
 0.93839431529E+01 0.82257085760E+01 0.76508183212E+01 0.72998066995E+01 0.69774288392E+01
 0.71706183376E+01 0.72998066995E+01 0.75749625520E+01 0.78866934037E+01 0.84009575062E+01
 0.94258682187E+01 0.11239510590E+02 0.14272492555E+02 0.19037708920E+02 0.28624130660E+02
 0.58852550251E+02 0.12434301791E+03 0.22830127347E+03 0.35908515111E+03 0.49088144095E+03
 0.58995989013E+03 0.62690905873E+03 0.58995989013E+03 0.49088144095E+03 0.35908515111E+03
 0.22830127347E+03 0.12434301791E+03 0.58852550251E+02 0.28624130660E+02 0.19037708920E+02