unknown system                          
   1.00000000000000     
     3.445083    0.000000    0.000000
     0.000000    3.445083    0.000000
     0.000000    0.000000    3.445083
   Fe
     4
Direct
  0.000000  0.000000  0.000000
  0.500000  0.500000  0.000000
  0.500000  0.000000  0.500000
  0.000000  0.500000  0.500000
 
   32   32   32
  343.49      327.99      285.76      227.46      165.36      109.43      65.874      37.113      21.995      16.125    
  13.567      11.788      10.663      9.9876      9.5757      9.3295      9.2426      9.3295      9.5757      9.9876    
  10.663      11.788      13.567      16.125      21.995      37.113      65.874      109.43      165.36      227.46    
  285.76      327.99      327.99      313.19      272.84      217.10      157.72      104.31      62.848      35.642    
  21.491      16.039      13.557      11.822      10.724      10.063      9.6579      9.4151      9.3295      9.4151    
  9.6579      10.063      10.724      11.822      13.557      16.039      21.491      35.642      62.848      104.31    
  157.72      217.10      272.84      313.19      285.76      272.84      237.58      188.82      136.91      90.422    
  54.717      31.768      20.213      15.820      13.527      11.920      10.900      10.278      9.8911      9.6579    
  9.5757      9.6579      9.8911      10.278      10.900      11.920      13.527      15.820      20.213      31.768    
  54.717      90.422      136.91      188.82      237.58      272.84      227.46      217.10      188.82      149.73    
  108.26      71.504      43.897      26.833      18.712      15.531      13.495      12.085      11.188      10.631    
  10.278      10.063      9.9876      10.063      10.278      10.631      11.188      12.085      13.495      15.531    
  18.712      26.833      43.897      71.504      108.26      149.73      188.82      217.10      165.36      157.72    
  136.91      108.26      78.169      52.078      33.246      22.333      17.495      15.201      13.508      12.363    
  11.639      11.188      10.900      10.724      10.663      10.724      10.900      11.188      11.639      12.363    
  13.508      15.201      17.495      22.333      33.246      52.078      78.169      108.26      136.91      157.72    
  109.43      104.31      90.422      71.504      52.078      35.899      24.977      19.225      16.663      14.914    
  13.652      12.844      12.363      12.085      11.920      11.822      11.788      11.822      11.920      12.085    
  12.363      12.844      13.652      14.914      16.663      19.225      24.977      35.899      52.078      71.504    
  90.422      104.31      65.874      62.848      54.717      43.897      33.246      24.977      19.958      17.513    
  15.964      14.786      14.039      13.652      13.508      13.495      13.527      13.557      13.567      13.557    
  13.527      13.495      13.508      13.652      14.039      14.786      15.964      17.513      19.958      24.977    
  33.246      43.897      54.717      62.848      37.113      35.642      31.768      26.833      22.333      19.225    
  17.513      16.356      15.460      14.939      14.786      14.914      15.201      15.531      15.820      16.039    
  16.125      16.039      15.820      15.531      15.201      14.914      14.786      14.939      15.460      16.356    
  17.513      19.225      22.333      26.833      31.768      35.642      21.995      21.491      20.213      18.712    
  17.495      16.663      15.964      15.460      15.277      15.460      15.964      16.663      17.495      18.712    
  20.213      21.491      21.995      21.491      20.213      18.712      17.495      16.663      15.964      15.460    
  15.277      15.460      15.964      16.663      17.495      18.712      20.213      21.491      16.125      16.039    
  15.820      15.531      15.201      14.914      14.786      14.939      15.460      16.356      17.513      19.225    
  22.333      26.833      31.768      35.642      37.113      35.642      31.768      26.833      22.333      19.225    
  17.513      16.356      15.460      14.939      14.786      14.914      15.201      15.531      15.820      16.039    
  13.567      13.557      13.527      13.495      13.508      13.652      14.039      14.786      15.964      17.513    
  19.958      24.977      33.246      43.897      54.717      62.848      65.874      62.848      54.717      43.897    
  33.246      24.977      19.958      17.513      15.964      14.786      14.039      13.652      13.508      13.495    
  13.527      13.557      11.788      11.822      11.920      12.085      12.363      12.844      13.652      14.914    
  16.663      19.225      24.977      35.899      52.078      71.504      90.422      104.31      109.43      104.31    
  90.422      71.504      52.078      35.899      24.977      19.225      16.663      14.914      13.652      12.844    
  12.363      12.085      11.920      11.822      10.663      10.724      10.900      11.188      11.639      12.363    
  13.508      15.201      17.495      22.333      33.246      52.078      78.169      108.26      136.91      157.72    
  165.36      157.72      136.91      108.26      78.169      52.078      33.246      22.333      17.495      15.201    
  13.508      12.363      11.639      11.188      10.900      10.724      9.9876      10.063      10.278      10.631    
  11.188      12.085      13.495      15.531      18.712      26.833      43.897      71.504      108.26      149.73    
  188.82      217.10      227.46      217.10      188.82      149.73      108.26      71.504      43.897      26.833    
  18.712      15.531      13.495      12.085      11.188      10.631      10.278      10.063      9.5757      9.6579    
  9.8911      10.278      10.900      11.920      13.527      15.820      20.213      31.768      54.717      90.422    
  136.91      188.82      237.58      272.84      285.76      272.84      237.58      188.82      136.91      90.422    
  54.717      31.768      20.213      15.820      13.527      11.920      10.900      10.278      9.8911      9.6579    
  9.3295      9.4151      9.6579      10.063      10.724      11.822      13.557      16.039      21.491      35.642    
  62.848      104.31      157.72      217.10      272.84      313.19      327.99      313.19      272.84      217.10    
  157.72      104.31      62.848      35.642      21.491      16.039      13.557      11.822      10.724      10.063    
  9.6579      9.4151      9.2426      9.3295      9.5757      9.9876      10.663      11.788      13.567      16.125    
  21.995      37.113      65.874      109.43      165.36      227.46      285.76      327.99      343.49      327.99    
  285.76      227.46      165.36      109.43      65.874      37.113      21.995      16.125      13.567      11.788    
  10.663      9.9876      9.5757      9.3295      9.3295      9.4151      9.6579      10.063      10.724      11.822    
  13.557      16.039      21.491      35.642      62.848      104.31      157.72      217.10      272.84      313.19    
  327.99      313.19      272.84      217.10      157.72      104.31      62.848      35.642      21.491      16.039    
  13.557      11.822      10.724      10.063      9.6579      9.4151      9.5757      9.6579      9.8911      10.278    
  10.900      11.920      13.527      15.820      20.213      31.768      54.717      90.422      136.91      188.82    
  237.58      272.84      285.76      272.84      237.58      188.82      136.91      90.422      54.717      31.768    
  20.213      15.820      13.527      11.920      10.900      10.278      9.8911      9.6579      9.9876      10.063    
  10.278      10.631      11.188      12.085      13.495      15.531      18.712      26.833      43.897      71.504    
  108.26      149.73      188.82      217.10      227.46      217.10      188.82      149.73      108.26      71.504    
  43.897      26.833      18.712      15.531      13.495      12.085      11.188      10.631      10.278      10.063    
  10.663      10.724      10.900      11.188      11.639      12.363      13.508      15.201      17.495      22.333    
  33.246      52.078      78.169      108.26      136.91      157.72      165.36      157.72      136.91      108.26    
  78.169      52.078      33.246      22.333      17.495      15.201      13.508      12.363      11.639      11.188    
  10.900      10.724      11.788      11.822      11.920      12.085      12.363      12.844      13.652      14.914    
  16.663      19.225      24.977      35.899      52.078      71.504      90.422      104.31      109.43      104.31    
  90.422      71.504      52.078      35.899      24.977      19.225      16.663      14.914      13.652      12.844    
  12.363      12.085      11.920      11.822      13.567      13.557      13.527      13.495      13.508      13.652    
  14.039      14.786      15.964      17.513      19.958      24.977      33.246      43.897      54.717      62.848    
  65.874      62.848      54.717      43.897      33.246      24.977      19.958      17.513      15.964      14.786    
  14.039      13.652      13.508      13.495      13.527      13.557      16.125      16.039      15.820      15.531    
  15.201      14.914      14.786      14.939      15.460      16.356      17.513      19.225      22.333      26.833    
  31.768      35.642      37.113      35.642      31.768      26.833      22.333      19.225      17.513      16.356    
  15.460      14.939      14.786      14.914      15.201      15.531      15.820      16.039      21.995      21.491    
  20.213      18.712      17.495      16.663      15.964      15.460      15.277      15.460      15.964      16.663    
  17.495      18.712      20.213      21.491      21.995      21.491      20.213      18.712      17.495      16.663    
  15.964      15.460      15.277      15.460      15.964      16.663      17.495      18.712      20.213      21.491    
  37.113      35.642      31.768      26.833      22.333      19.225      17.513      16.356      15.460      14.939    
  14.786      14.914      15.201      15.531      15.820      16.039      16.125      16.039      15.820      15.531    
  15.201      14.914      14.786      14.939      15.460      16.356      17.513      19.225      22.333      26.833    
  31.768      35.642      65.874      62.848      54.717      43.897      33.246      24.977      19.958      17.513    
  15.964      14.786      14.039      13.652      13.508      13.495      13.527      13.557      13.567      13.557    
  13.527      13.495      13.508      13.652      14.039      14.786      15.964      17.513      19.958      24.977    
  33.246      43.897      54.717      62.848      109.43      104.31      90.422      71.504      52.078      35.899    
  24.977      19.225      16.663      14.914      13.652      12.844      12.363      12.085      11.920      11.822    
  11.788      11.822      11.920      12.085      12.363      12.844      13.652      14.914      16.663      19.225    
  24.977      35.899      52.078      71.504      90.422      104.31      165.36      157.72      136.91      108.26    
  78.169      52.078      33.246      22.333      17.495      15.201      13.508      12.363      11.639      11.188    
  10.900      10.724      10.663      10.724      10.900      11.188      11.639      12.363      13.508      15.201    
  17.495      22.333      33.246      52.078      78.169      108.26      136.91      157.72      227.46      217.10    
  188.82      149.73      108.26      71.504      43.897      26.833      18.712      15.531      13.495      12.085    
  11.188      10.631      10.278      10.063      9.9876      10.063      10.278      10.631      11.188      12.085    
  13.495      15.531      18.712      26.833      43.897      71.504      108.26      149.73      188.82      217.10    
  285.76      272.84      237.58      188.82      136.91      90.422      54.717      31.768      20.213      15.820    
  13.527      11.920      10.900      10.278      9.8911      9.6579      9.5757      9.6579      9.8911      10.278    
  10.900      11.920      13.527      15.820      20.213      31.768      54.717      90.422      136.91      188.82    
  237.58      272.84      327.99      313.19      272.84      217.10      157.72      104.31      62.848      35.642    
  21.491      16.039      13.557      11.822      10.724      10.063      9.6579      9.4151      9.3295      9.4151    
  9.6579      10.063      10.724      11.822      13.557      16.039      21.491      35.642      62.848      104.31    
  157.72      217.10      272.84      313.19      327.99      313.19      272.84      217.10      157.72      104.31    
  62.848      35.642      21.491      16.039      13.557      11.822      10.724      10.063      9.6579      9.4151    
  9.3295      9.4151      9.6579      10.063      10.724      11.822      13.557      16.039      21.491      35.642    
  62.848      104.31      157.72      217.10      272.84      313.19      313.19      299.04      260.48      207.19    
  150.43      99.436      59.977      34.259      21.024      15.958      13.545      11.855      10.784      10.137    
  9.7387      9.4994      9.4151      9.4994      9.7387      10.137      10.784      11.855      13.545      15.958    
  21.024      34.259      59.977      99.436      150.43      207.19      260.48      299.04      272.84      260.48    
  226.78      180.17      130.56      86.202      52.271      30.622      19.843      15.748      13.513      11.949    
  10.955      10.348      9.9679      9.7387      9.6579      9.7387      9.9679      10.348      10.955      11.949    
  13.513      15.748      19.843      30.622      52.271      86.202      130.56      180.17      226.78      260.48    
  217.10      207.19      180.17      142.81      103.21      68.206      42.041      26.005      18.460      15.458    
  13.476      12.108      11.236      10.693      10.348      10.137      10.063      10.137      10.348      10.693    
  11.236      12.108      13.476      15.458      18.460      26.005      42.041      68.206      103.21      142.81    
  180.17      207.19      157.72      150.43      130.56      103.21      74.547      49.778      32.012      21.819    
  17.335      15.125      13.483      12.375      11.674      11.236      10.955      10.784      10.724      10.784    
  10.955      11.236      11.674      12.375      13.483      15.125      17.335      21.819      32.012      49.778    
  74.547      103.21      130.56      150.43      104.31      99.436      86.202      68.206      49.778      34.505    
  24.279      18.948      16.535      14.836      13.616      12.837      12.375      12.108      11.949      11.855    
  11.822      11.855      11.949      12.108      12.375      12.837      13.616      14.836      16.535      18.948    
  24.279      34.505      49.778      68.206      86.202      99.436      62.848      59.977      52.271      42.041    
  32.012      24.279      19.628      17.350      15.843      14.703      13.985      13.616      13.483      13.476    
  13.513      13.545      13.557      13.545      13.513      13.476      13.483      13.616      13.985      14.703    
  15.843      17.350      19.628      24.279      32.012      42.041      52.271      59.977      35.642      34.259    
  30.622      26.005      21.819      18.948      17.350      16.218      15.348      14.845      14.703      14.836    
  15.125      15.458      15.748      15.958      16.039      15.958      15.748      15.458      15.125      14.836    
  14.703      14.845      15.348      16.218      17.350      18.948      21.819      26.005      30.622      34.259    
  21.491      21.024      19.843      18.460      17.335      16.535      15.843      15.348      15.167      15.348    
  15.843      16.535      17.335      18.460      19.843      21.024      21.491      21.024      19.843      18.460    
  17.335      16.535      15.843      15.348      15.167      15.348      15.843      16.535      17.335      18.460    
  19.843      21.024      16.039      15.958      15.748      15.458      15.125      14.836      14.703      14.845    
  15.348      16.218      17.350      18.948      21.819      26.005      30.622      34.259      35.642      34.259    
  30.622      26.005      21.819      18.948      17.350      16.218      15.348      14.845      14.703      14.836    
  15.125      15.458      15.748      15.958      13.557      13.545      13.513      13.476      13.483      13.616    
  13.985      14.703      15.843      17.350      19.628      24.279      32.012      42.041      52.271      59.977    
  62.848      59.977      52.271      42.041      32.012      24.279      19.628      17.350      15.843      14.703    
  13.985      13.616      13.483      13.476      13.513      13.545      11.822      11.855      11.949      12.108    
  12.375      12.837      13.616      14.836      16.535      18.948      24.279      34.505      49.778      68.206    
  86.202      99.436      104.31      99.436      86.202      68.206      49.778      34.505      24.279      18.948    
  16.535      14.836      13.616      12.837      12.375      12.108      11.949      11.855      10.724      10.784    
  10.955      11.236      11.674      12.375      13.483      15.125      17.335      21.819      32.012      49.778    
  74.547      103.21      130.56      150.43      157.72      150.43      130.56      103.21      74.547      49.778    
  32.012      21.819      17.335      15.125      13.483      12.375      11.674      11.236      10.955      10.784    
  10.063      10.137      10.348      10.693      11.236      12.108      13.476      15.458      18.460      26.005    
  42.041      68.206      103.21      142.81      180.17      207.19      217.10      207.19      180.17      142.81    
  103.21      68.206      42.041      26.005      18.460      15.458      13.476      12.108      11.236      10.693    
  10.348      10.137      9.6579      9.7387      9.9679      10.348      10.955      11.949      13.513      15.748    
  19.843      30.622      52.271      86.202      130.56      180.17      226.78      260.48      272.84      260.48    
  226.78      180.17      130.56      86.202      52.271      30.622      19.843      15.748      13.513      11.949    
  10.955      10.348      9.9679      9.7387      9.4151      9.4994      9.7387      10.137      10.784      11.855    
  13.545      15.958      21.024      34.259      59.977      99.436      150.43      207.19      260.48      299.04    
  313.19      299.04      260.48      207.19      150.43      99.436      59.977      34.259      21.024      15.958    
  13.545      11.855      10.784      10.137      9.7387      9.4994      9.3295      9.4151      9.6579      10.063    
  10.724      11.822      13.557      16.039      21.491      35.642      62.848      104.31      157.72      217.10    
  272.84      313.19      327.99      313.19      272.84      217.10      157.72      104.31      62.848      35.642    
  21.491      16.039      13.557      11.822      10.724      10.063      9.6579      9.4151      9.4151      9.4994    
  9.7387      10.137      10.784      11.855      13.545      15.958      21.024      34.259      59.977      99.436    
  150.43      207.19      260.48      299.04      313.19      299.04      260.48      207.19      150.43      99.436    
  59.977      34.259      21.024      15.958      13.545      11.855      10.784      10.137      9.7387      9.4994    
  9.6579      9.7387      9.9679      10.348      10.955      11.949      13.513      15.748      19.843      30.622    
  52.271      86.202      130.56      180.17      226.78      260.48      272.84      260.48      226.78      180.17    
  130.56      86.202      52.271      30.622      19.843      15.748      13.513      11.949      10.955      10.348    
  9.9679      9.7387      10.063      10.137      10.348      10.693      11.236      12.108      13.476      15.458    
  18.460      26.005      42.041      68.206      103.21      142.81      180.17      207.19      217.10      207.19    
  180.17      142.81      103.21      68.206      42.041      26.005      18.460      15.458      13.476      12.108    
  11.236      10.693      10.348      10.137      10.724      10.784      10.955      11.236      11.674      12.375    
  13.483      15.125      17.335      21.819      32.012      49.778      74.547      103.21      130.56      150.43    
  157.72      150.43      130.56      103.21      74.547      49.778      32.012      21.819      17.335      15.125    
  13.483      12.375      11.674      11.236      10.955      10.784      11.822      11.855      11.949      12.108    
  12.375      12.837      13.616      14.836      16.535      18.948      24.279      34.505      49.778      68.206    
  86.202      99.436      104.31      99.436      86.202      68.206      49.778      34.505      24.279      18.948    
  16.535      14.836      13.616      12.837      12.375      12.108      11.949      11.855      13.557      13.545    
  13.513      13.476      13.483      13.616      13.985      14.703      15.843      17.350      19.628      24.279    
  32.012      42.041      52.271      59.977      62.848      59.977      52.271      42.041      32.012      24.279    
  19.628      17.350      15.843      14.703      13.985      13.616      13.483      13.476      13.513      13.545    
  16.039      15.958      15.748      15.458      15.125      14.836      14.703      14.845      15.348      16.218    
  17.350      18.948      21.819      26.005      30.622      34.259      35.642      34.259      30.622      26.005    
  21.819      18.948      17.350      16.218      15.348      14.845      14.703      14.836      15.125      15.458    
  15.748      15.958      21.491      21.024      19.843      18.460      17.335      16.535      15.843      15.348    
  15.167      15.348      15.843      16.535      17.335      18.460      19.843      21.024      21.491      21.024    
  19.843      18.460      17.335      16.535      15.843      15.348      15.167      15.348      15.843      16.535    
  17.335      18.460      19.843      21.024      35.642      34.259      30.622      26.005      21.819      18.948    
  17.350      16.218      15.348      14.845      14.703      14.836      15.125      15.458      15.748      15.958    
  16.039      15.958      15.748      15.458      15.125      14.836      14.703      14.845      15.348      16.218    
  17.350      18.948      21.819      26.005      30.622      34.259      62.848      59.977      52.271      42.041    
  32.012      24.279      19.628      17.350      15.843      14.703      13.985      13.616      13.483      13.476    
  13.513      13.545      13.557      13.545      13.513      13.476      13.483      13.616      13.985      14.703    
  15.843      17.350      19.628      24.279      32.012      42.041      52.271      59.977      104.31      99.436    
  86.202      68.206      49.778      34.505      24.279      18.948      16.535      14.836      13.616      12.837    
  12.375      12.108      11.949      11.855      11.822      11.855      11.949      12.108      12.375      12.837    
  13.616      14.836      16.535      18.948      24.279      34.505      49.778      68.206      86.202      99.436    
  157.72      150.43      130.56      103.21      74.547      49.778      32.012      21.819      17.335      15.125    
  13.483      12.375      11.674      11.236      10.955      10.784      10.724      10.784      10.955      11.236    
  11.674      12.375      13.483      15.125      17.335      21.819      32.012      49.778      74.547      103.21    
  130.56      150.43      217.10      207.19      180.17      142.81      103.21      68.206      42.041      26.005    
  18.460      15.458      13.476      12.108      11.236      10.693      10.348      10.137      10.063      10.137    
  10.348      10.693      11.236      12.108      13.476      15.458      18.460      26.005      42.041      68.206    
  103.21      142.81      180.17      207.19      272.84      260.48      226.78      180.17      130.56      86.202    
  52.271      30.622      19.843      15.748      13.513      11.949      10.955      10.348      9.9679      9.7387    
  9.6579      9.7387      9.9679      10.348      10.955      11.949      13.513      15.748      19.843      30.622    
  52.271      86.202      130.56      180.17      226.78      260.48      313.19      299.04      260.48      207.19    
  150.43      99.436      59.977      34.259      21.024      15.958      13.545      11.855      10.784      10.137    
  9.7387      9.4994      9.4151      9.4994      9.7387      10.137      10.784      11.855      13.545      15.958    
  21.024      34.259      59.977      99.436      150.43      207.19      260.48      299.04      285.76      272.84    
  237.58      188.82      136.91      90.422      54.717      31.768      20.213      15.820      13.527      11.920    
  10.900      10.278      9.8911      9.6579      9.5757      9.6579      9.8911      10.278      10.900      11.920    
  13.527      15.820      20.213      31.768      54.717      90.422      136.91      188.82      237.58      272.84    
  272.84      260.48      226.78      180.17      130.56      86.202      52.271      30.622      19.843      15.748    
  13.513      11.949      10.955      10.348      9.9679      9.7387      9.6579      9.7387      9.9679      10.348    
  10.955      11.949      13.513      15.748      19.843      30.622      52.271      86.202      130.56      180.17    
  226.78      260.48      237.58      226.78      197.31      156.55      113.25      74.778      45.729      27.623    
  18.912      15.549      13.472      12.031      11.114      10.546      10.186      9.9679      9.8911      9.9679    
  10.186      10.546      11.114      12.031      13.472      15.549      18.912      27.623      45.729      74.778    
  113.25      156.55      197.31      226.78      188.82      180.17      156.55      123.94      89.507      59.316    
  37.108      23.858      17.826      15.252      13.424      12.173      11.373      10.870      10.546      10.348    
  10.278      10.348      10.546      10.870      11.373      12.173      13.424      15.252      17.826      23.858    
  37.108      59.316      89.507      123.94      156.55      180.17      136.91      130.56      113.25      89.507    
  64.762      43.625      28.767      20.504      16.921      14.914      13.415      12.411      11.774      11.373    
  11.114      10.955      10.900      10.955      11.114      11.373      11.774      12.411      13.415      14.914    
  16.921      20.504      28.767      43.625      64.762      89.507      113.25      130.56      90.422      86.202    
  74.778      59.316      43.625      30.825      22.472      18.240      16.178      14.621      13.520      12.823    
  12.411      12.173      12.031      11.949      11.920      11.949      12.031      12.173      12.411      12.823    
  13.520      14.621      16.178      18.240      22.472      30.825      43.625      59.316      74.778      86.202    
  54.717      52.271      45.729      37.108      28.767      22.472      18.784      16.903      15.510      14.478    
  13.839      13.520      13.415      13.424      13.472      13.513      13.527      13.513      13.472      13.424    
  13.415      13.520      13.839      14.478      15.510      16.903      18.784      22.472      28.767      37.108    
  45.729      52.271      31.768      30.622      27.623      23.858      20.504      18.240      16.903      15.839    
  15.040      14.591      14.478      14.621      14.914      15.252      15.549      15.748      15.820      15.748    
  15.549      15.252      14.914      14.621      14.478      14.591      15.040      15.839      16.903      18.240    
  20.504      23.858      27.623      30.622      20.213      19.843      18.912      17.826      16.921      16.178    
  15.510      15.040      14.870      15.040      15.510      16.178      16.921      17.826      18.912      19.843    
  20.213      19.843      18.912      17.826      16.921      16.178      15.510      15.040      14.870      15.040    
  15.510      16.178      16.921      17.826      18.912      19.843      15.820      15.748      15.549      15.252    
  14.914      14.621      14.478      14.591      15.040      15.839      16.903      18.240      20.504      23.858    
  27.623      30.622      31.768      30.622      27.623      23.858      20.504      18.240      16.903      15.839    
  15.040      14.591      14.478      14.621      14.914      15.252      15.549      15.748      13.527      13.513    
  13.472      13.424      13.415      13.520      13.839      14.478      15.510      16.903      18.784      22.472    
  28.767      37.108      45.729      52.271      54.717      52.271      45.729      37.108      28.767      22.472    
  18.784      16.903      15.510      14.478      13.839      13.520      13.415      13.424      13.472      13.513    
  11.920      11.949      12.031      12.173      12.411      12.823      13.520      14.621      16.178      18.240    
  22.472      30.825      43.625      59.316      74.778      86.202      90.422      86.202      74.778      59.316    
  43.625      30.825      22.472      18.240      16.178      14.621      13.520      12.823      12.411      12.173    
  12.031      11.949      10.900      10.955      11.114      11.373      11.774      12.411      13.415      14.914    
  16.921      20.504      28.767      43.625      64.762      89.507      113.25      130.56      136.91      130.56    