unknown system                          
   1.00000000000000     
     3.866000    0.000000    0.000000
     0.000000    3.866000    0.000000
     0.000000    0.000000    3.866000
   Pd   Ir   Pt   Cu
     1     1     1     1
Direct
  0.000000  0.000000  0.000000
  0.500000  0.500000  0.000000
  0.500000  0.000000  0.500000
  0.000000  0.500000  0.500000
 
   24   24   24
  307.91      284.06      227.08      165.09      114.80      77.429      49.929      29.860      15.894      10.360    
  9.0321      7.5708      6.5956      7.5708      9.0321      10.360      15.894      29.860      49.929      77.429    
  114.80      165.09      227.08      284.06      283.96      262.00      209.66      152.95      107.12      73.026    
  47.696      28.769      15.576      10.508      9.4374      8.2328      7.3912      8.2328      9.4374      10.508    
  15.576      28.769      47.696      73.026      107.12      152.95      209.66      262.00      225.87      208.64    
  167.78      123.87      88.591      62.198      42.019      25.897      14.807      10.845      10.276      9.6121    
  9.0729      9.6121      10.276      10.845      14.807      25.897      42.019      62.198      88.591      123.87    
  167.78      208.64      161.67      149.94      122.15      92.277      68.090      49.674      34.990      22.392    
  14.378      11.875      11.890      11.864      11.690      11.864      11.890      11.875      14.378      22.392    
  34.990      49.674      68.090      92.277      122.15      149.94      110.44      103.26      86.079      67.120    
  51.176      38.658      28.219      19.880      15.756      15.433      16.696      17.738      18.068      17.738    
  16.696      15.433      15.756      19.880      28.219      38.658      51.176      67.120      86.079      103.26    
  74.680      70.571      60.491      48.804      38.377      29.801      23.141      19.819      20.150      22.994    
  26.704      29.696      30.830      29.696      26.704      22.994      20.150      19.819      23.141      29.801    
  38.377      48.804      60.491      70.571      49.259      47.022      41.380      34.501      27.984      23.096    
  21.194      22.765      27.418      34.283      41.695      47.481      49.679      47.481      41.695      34.283    
  27.418      22.765      21.194      23.096      27.984      34.501      41.380      47.022      29.878      28.707    
  25.707      22.200      19.788      19.773      22.690      28.477      37.037      47.441      57.877      65.816    
  68.810      65.816      57.877      47.441      37.037      28.477      22.690      19.773      19.788      22.200    
  25.707      28.707      15.659      15.334      14.586      14.234      15.658      19.967      27.079      36.655    
  47.876      59.806      71.270      80.061      83.428      80.061      71.270      59.806      47.876      36.655    
  27.079      19.967      15.658      14.234      14.586      15.334      9.3189      9.5507      10.128      11.464    
  15.189      22.646      33.569      46.382      58.965      70.932      82.627      92.290      96.184      92.290    
  82.627      70.932      58.965      46.382      33.569      22.646      15.189      11.464      10.128      9.5507    
  7.2608      7.7824      8.9894      11.149      16.376      26.372      40.727      56.140      69.524      81.732    
  94.898      107.02      112.16      107.02      94.898      81.732      69.524      56.140      40.727      26.372    
  16.376      11.149      8.9894      7.7824      5.5066      6.2565      8.0021      10.942      17.487      29.553    
  46.470      63.665      77.741      90.922      106.67      122.13      128.85      122.13      106.67      90.922    
  77.741      63.665      46.470      29.553      17.487      10.942      8.0021      6.2565      4.4976      5.3577    
  7.3800      10.727      17.878      30.801      48.692      66.536      80.933      94.708      111.79      128.86    
  136.33      128.86      111.79      94.708      80.933      66.536      48.692      30.801      17.878      10.727    
  7.3800      5.3577      5.5066      6.2565      8.0021      10.942      17.487      29.553      46.470      63.665    
  77.741      90.922      106.67      122.13      128.85      122.13      106.67      90.922      77.741      63.665    
  46.470      29.553      17.487      10.942      8.0021      6.2565      7.2608      7.7824      8.9894      11.149    
  16.376      26.372      40.727      56.140      69.524      81.732      94.898      107.02      112.16      107.02    
  94.898      81.732      69.524      56.140      40.727      26.372      16.376      11.149      8.9894      7.7824    
  9.3189      9.5507      10.128      11.464      15.189      22.646      33.569      46.382      58.965      70.932    
  82.627      92.290      96.184      92.290      82.627      70.932      58.965      46.382      33.569      22.646    
  15.189      11.464      10.128      9.5507      15.659      15.334      14.586      14.234      15.658      19.967    
  27.079      36.655      47.876      59.806      71.270      80.061      83.428      80.061      71.270      59.806    
  47.876      36.655      27.079      19.967      15.658      14.234      14.586      15.334      29.878      28.707    
  25.707      22.200      19.788      19.773      22.690      28.477      37.037      47.441      57.877      65.816    
  68.810      65.816      57.877      47.441      37.037      28.477      22.690      19.773      19.788      22.200    
  25.707      28.707      49.259      47.022      41.380      34.501      27.984      23.096      21.194      22.765    
  27.418      34.283      41.695      47.481      49.679      47.481      41.695      34.283      27.418      22.765    
  21.194      23.096      27.984      34.501      41.380      47.022      74.680      70.571      60.491      48.804    
  38.377      29.801      23.141      19.819      20.150      22.994      26.704      29.696      30.830      29.696    
  26.704      22.994      20.150      19.819      23.141      29.801      38.377      48.804      60.491      70.571    
  110.44      103.26      86.079      67.120      51.176      38.658      28.219      19.880      15.756      15.433    
  16.696      17.738      18.068      17.738      16.696      15.433      15.756      19.880      28.219      38.658    
  51.176      67.120      86.079      103.26      161.67      149.94      122.15      92.277      68.090      49.674    
  34.990      22.392      14.378      11.875      11.890      11.864      11.690      11.864      11.890      11.875    
  14.378      22.392      34.990      49.674      68.090      92.277      122.15      149.94      225.87      208.64    
  167.78      123.87      88.591      62.198      42.019      25.897      14.807      10.845      10.276      9.6121    
  9.0729      9.6121      10.276      10.845      14.807      25.897      42.019      62.198      88.591      123.87    
  167.78      208.64      283.96      262.00      209.66      152.95      107.12      73.026      47.696      28.769    
  15.576      10.508      9.4374      8.2328      7.3912      8.2328      9.4374      10.508      15.576      28.769    
  47.696      73.026      107.12      152.95      209.66      262.00      284.29      262.44      210.28      153.58    
  107.55      73.201      47.729      28.769      15.592      10.563      9.5374      8.3677      7.5396      8.3677    
  9.5374      10.563      15.592      28.769      47.729      73.201      107.55      153.58      210.28      262.44    
  263.02      242.86      194.85      142.82      100.69      69.200      45.627      27.695      15.285      10.706    
  9.8991      8.9330      8.2116      8.9330      9.8991      10.706      15.285      27.695      45.627      69.200    
  100.69      142.82      194.85      242.86      211.15      195.25      157.53      116.89      84.055      59.314    
  40.268      24.883      14.530      11.006      10.625      10.093      9.6188      10.093      10.625      11.006    
  14.530      24.883      40.268      59.314      84.055      116.89      157.53      195.25      153.07      142.17    
  116.29      88.293      65.384      47.757      33.595      21.493      14.064      11.897      12.031      12.058    
  11.909      12.058      12.031      11.897      14.064      21.493      33.595      47.757      65.384      88.293    
  116.29      142.17      105.67      98.957      82.830      64.884      49.588      37.407      27.132      19.116    
  15.300      15.123      16.423      17.479      17.817      17.479      16.423      15.123      15.300      19.116    
  27.132      37.407      49.588      64.884      82.830      98.957      71.697      67.842      58.350      47.259    
  37.242      28.851      22.355      19.149      19.466      22.202      25.775      28.676      29.781      28.676    
  25.775      22.202      19.466      19.149      22.355      28.851      37.242      47.259      58.350      67.842    
  47.210      45.094      39.740      33.173      26.917      22.304      20.577      22.115      26.490      32.926    
  39.918      45.418      47.517      45.418      39.918      32.926      26.490      22.115      20.577      22.304    
  26.917      33.173      39.740      45.094      28.512      27.364      24.440      21.069      18.846      19.022    
  22.047      27.713      35.862      45.660      55.463      62.925      65.743      62.925      55.463      45.660    
  35.862      27.713      22.047      19.022      18.846      21.069      24.440      27.364      15.189      14.828    
  13.988      13.527      14.862      19.130      26.213      35.635      46.516      57.878      68.616      76.762    
  79.867      76.762      68.616      57.878      46.516      35.635      26.213      19.130      14.862      13.527    
  13.988      14.828      9.7911      9.9120      10.201      11.160      14.497      21.653      32.349      45.021    
  57.442      68.957      79.804      88.550      92.041      88.550      79.804      68.957      57.442      45.021    
  32.349      21.653      14.497      11.160      10.201      9.9120      8.5185      8.8691      9.6306      11.193    
  15.777      25.203      39.127      54.412      67.786      79.558      91.565      102.30      106.81      102.30    
  91.565      79.558      67.786      54.412      39.127      25.203      15.777      11.193      9.6306      8.8691    
  7.3732      7.9093      9.0952      11.275      16.979      28.249      44.575      61.638      75.773      88.418    
  102.60      116.16      122.02      116.16      102.60      88.418      75.773      61.638      44.575      28.249    
  16.979      11.275      9.0952      7.9093      6.6129      7.2424      8.6597      11.180      17.411      29.448    
  46.684      64.393      78.862      92.036      107.37      122.31      128.80      122.31      107.37      92.036    
  78.862      64.393      46.684      29.448      17.411      11.180      8.6597      7.2424      7.3732      7.9093    
  9.0952      11.275      16.979      28.249      44.575      61.638      75.773      88.418      102.60      116.16    
  122.02      116.16      102.60      88.418      75.773      61.638      44.575      28.249      16.979      11.275    
  9.0952      7.9093      8.5185      8.8691      9.6306      11.193      15.777      25.203      39.127      54.412    
  67.786      79.558      91.565      102.30      106.81      102.30      91.565      79.558      67.786      54.412    
  39.127      25.203      15.777      11.193      9.6306      8.8691      9.7911      9.9120      10.201      11.160    
  14.497      21.653      32.349      45.021      57.442      68.957      79.804      88.550      92.041      88.550    
  79.804      68.957      57.442      45.021      32.349      21.653      14.497      11.160      10.201      9.9120    
  15.189      14.828      13.988      13.527      14.862      19.130      26.213      35.635      46.516      57.878    
  68.616      76.762      79.867      76.762      68.616      57.878      46.516      35.635      26.213      19.130    
  14.862      13.527      13.988      14.828      28.512      27.364      24.440      21.069      18.846      19.022    
  22.047      27.713      35.862      45.660      55.463      62.925      65.743      62.925      55.463      45.660    
  35.862      27.713      22.047      19.022      18.846      21.069      24.440      27.364      47.210      45.094    
  39.740      33.173      26.917      22.304      20.577      22.115      26.490      32.926      39.918      45.418    
  47.517      45.418      39.918      32.926      26.490      22.115      20.577      22.304      26.917      33.173    
  39.740      45.094      71.697      67.842      58.350      47.259      37.242      28.851      22.355      19.149    
  19.466      22.202      25.775      28.676      29.781      28.676      25.775      22.202      19.466      19.149    
  22.355      28.851      37.242      47.259      58.350      67.842      105.67      98.957      82.830      64.884    
  49.588      37.407      27.132      19.116      15.300      15.123      16.423      17.479      17.817      17.479    
  16.423      15.123      15.300      19.116      27.132      37.407      49.588      64.884      82.830      98.957    
  153.07      142.17      116.29      88.293      65.384      47.757      33.595      21.493      14.064      11.897    
  12.031      12.058      11.909      12.058      12.031      11.897      14.064      21.493      33.595      47.757    
  65.384      88.293      116.29      142.17      211.15      195.25      157.53      116.89      84.055      59.314    
  40.268      24.883      14.530      11.006      10.625      10.093      9.6188      10.093      10.625      11.006    
  14.530      24.883      40.268      59.314      84.055      116.89      157.53      195.25      263.02      242.86    
  194.85      142.82      100.69      69.200      45.627      27.695      15.285      10.706      9.8991      8.9330    
  8.2116      8.9330      9.8991      10.706      15.285      27.695      45.627      69.200      100.69      142.82    
  194.85      242.86      226.62      209.72      169.41      125.54      89.685      62.597      42.045      25.835    
  14.782      10.917      10.457      9.8801      9.3743      9.8801      10.457      10.917      14.782      25.835    
  42.045      62.597      89.685      125.54      169.41      209.72      211.61      195.94      158.59      117.98    
  84.759      59.560      40.272      24.828      14.498      11.034      10.719      10.240      9.7861      10.240    
  10.719      11.034      14.498      24.828      40.272      59.560      84.759      117.98      158.59      195.94    
  174.26      161.72      131.86      99.341      72.545      51.921      35.704      22.243      13.787      11.245    
  11.213      10.961      10.644      10.961      11.213      11.245      13.787      22.243      35.704      51.921    
  72.545      99.341      131.86      161.72      130.56      121.80      100.83      77.686      58.142      42.656    
  29.889      19.229      13.280      11.851      12.207      12.365      12.288      12.365      12.207      11.851    
  13.280      19.229      29.889      42.656      58.142      77.686      100.83      121.80      92.463      86.983    
  73.662      58.453      45.000      33.859      24.227      17.234      14.215      14.337      15.671      16.753    
  17.117      16.753      15.671      14.337      14.215      17.234      24.227      33.859      45.000      58.453    
  73.662      86.983      63.372      60.190      52.258      42.751      33.837      26.039      20.198      17.446    
  17.781      20.232      23.432      26.073      27.094      26.073      23.432      20.232      17.781      17.446    
  20.198      26.039      33.837      42.751      52.258      60.190      41.803      40.000      35.376      29.548    
  23.960      20.060      18.794      20.301      24.070      29.465      35.378      40.098      41.917      40.098    
  35.378      29.465      24.070      20.301      18.794      20.060      23.960      29.548      35.376      40.000    
  25.080      24.037      21.398      18.423      16.606      17.077      20.169      25.455      32.599      40.940    
  49.172      55.405      57.755      55.405      49.172      40.940      32.599      25.455      20.169      17.077    
  16.606      18.423      21.398      24.037      13.933      13.559      12.675      12.107      13.210      17.129    
  23.810      32.586      42.550      52.600      61.666      68.284      70.756      68.284      61.666      52.600    
  42.550      32.586      23.810      17.129      13.210      12.107      12.675      13.559      10.166      10.152    
  10.088      10.517      13.091      19.344      29.079      40.997      52.893      63.496      72.584      79.328    
  81.916      79.328      72.584      63.496      52.893      40.997      29.079      19.344      13.091      10.517    
  10.088      10.152      9.8894      10.024      10.236      10.996      14.430      22.446      34.890      49.374    
  62.602      73.647      83.375      91.168      94.310      91.168      83.375      73.647      62.602      49.374    
  34.890      22.446      14.430      10.996      10.236      10.024      9.5156      9.7779      10.269      11.430    
  15.678      25.103      39.555      55.783      69.966      81.767      92.875      102.41      106.37      102.41    
  92.875      81.767      69.966      55.783      39.555      25.103      15.678      11.430      10.269      9.7779    
  9.1043      9.4352      10.093      11.498      16.140      26.149      41.360      58.215      72.781      85.001    
  96.864      107.28      111.65      107.28      96.864      85.001      72.781      58.215      41.360      26.149    
  16.140      11.498      10.093      9.4352      9.5156      9.7779      10.269      11.430      15.678      25.103    
  39.555      55.783      69.966      81.767      92.875      102.41      106.37      102.41      92.875      81.767    
  69.966      55.783      39.555      25.103      15.678      11.430      10.269      9.7779      9.8894      10.024    
  10.236      10.996      14.430      22.446      34.890      49.374      62.602      73.647      83.375      91.168    
  94.310      91.168      83.375      73.647      62.602      49.374      34.890      22.446      14.430      10.996    
  10.236      10.024      10.166      10.152      10.088      10.517      13.091      19.344      29.079      40.997    
  52.893      63.496      72.584      79.328      81.916      79.328      72.584      63.496      52.893      40.997    
  29.079      19.344      13.091      10.517      10.088      10.152      13.933      13.559      12.675      12.107    
  13.210      17.129      23.810      32.586      42.550      52.600      61.666      68.284      70.756      68.284    
  61.666      52.600      42.550      32.586      23.810      17.129      13.210      12.107      12.675      13.559    
  25.080      24.037      21.398      18.423      16.606      17.077      20.169      25.455      32.599      40.940    
  49.172      55.405      57.755      55.405      49.172      40.940      32.599      25.455      20.169      17.077    
  16.606      18.423      21.398      24.037      41.803      40.000      35.376      29.548      23.960      20.060    
  18.794      20.301      24.070      29.465      35.378      40.098      41.917      40.098      35.378      29.465    
  24.070      20.301      18.794      20.060      23.960      29.548      35.376      40.000      63.372      60.190    
  52.258      42.751      33.837      26.039      20.198      17.446      17.781      20.232      23.432      26.073    
  27.094      26.073      23.432      20.232      17.781      17.446      20.198      26.039      33.837      42.751    
  52.258      60.190      92.463      86.983      73.662      58.453      45.000      33.859      24.227      17.234    
  14.215      14.337      15.671      16.753      17.117      16.753      15.671      14.337      14.215      17.234    
  24.227      33.859      45.000      58.453      73.662      86.983      130.56      121.80      100.83      77.686    
  58.142      42.656      29.889      19.229      13.280      11.851      12.207      12.365      12.288      12.365    
  12.207      11.851      13.280      19.229      29.889      42.656      58.142      77.686      100.83      121.80    
  174.26      161.72      131.86      99.341      72.545      51.921      35.704      22.243      13.787      11.245    
  11.213      10.961      10.644      10.961      11.213      11.245      13.787      22.243      35.704      51.921    
  72.545      99.341      131.86      161.72      211.61      195.94      158.59      117.98      84.759      59.560    
  40.272      24.828      14.498      11.034      10.719      10.240      9.7861      10.240      10.719      11.034    
  14.498      24.828      40.272      59.560      84.759      117.98      158.59      195.94      162.20      150.91    
  123.86      94.054      69.143      49.919      34.834      22.148      14.214      11.867      12.047      12.148    
  12.024      12.148      12.047      11.867      14.214      22.148      34.834      49.919      69.143      94.054    
  123.86      150.91      153.42      142.88      117.59      89.650      66.171      47.914      33.444      21.275    
  13.911      11.864      12.122      12.245      12.133      12.245      12.122      11.864      13.911      21.275    
  33.444      47.914      66.171      89.650      117.59      142.88      130.62      122.02      101.33      78.211    
  58.421      42.671      29.778      19.093      13.182      11.811      12.222      12.422      12.362      12.422    
  12.222      11.811      13.182      19.093      29.778      42.671      58.421      78.211      101.33      122.02    
  101.73      95.582      80.634      63.536      48.364      35.801      24.973      16.668      12.625      12.017    
  12.679      13.144      13.242      13.144      12.679      12.017      12.625      16.668      24.973      35.801    
  48.364      63.536      80.634      95.582      74.103      70.189      60.472      48.896      38.068      28.536    
  20.400      15.157      13.221      13.655      15.022      16.199      16.637      16.199      15.022      13.655    
  13.221      15.157      20.400      28.536      38.068      48.896      60.472      70.189      51.674      49.348    
  43.399      35.911      28.393      21.746      17.236      15.397      15.922      18.046      20.794      23.100    
  24.007      23.100      20.794      18.046      15.922      15.397      17.236      21.746      28.393      35.911    
  43.399      49.348      34.581      33.166      29.410      24.474      19.857      16.869      16.180      17.730    
  20.978      25.278      29.885      33.559      34.978      33.559      29.885      25.278      20.978      17.730    
  16.180      16.869      19.857      24.474      29.410      33.166      20.781      19.970      17.918      15.604    
  14.208      14.673      17.373      21.989      27.971      34.713      41.132      45.846      47.593      45.846    
  41.132      34.713      27.971      21.989      17.373      14.673      14.208      15.604      17.918      19.970    
  12.138      11.892      11.324      11.004      11.894      14.953      20.442      27.845      36.480      45.126    
  52.512      57.534      59.326      57.534      52.512      45.126      36.480      27.845      20.442      14.953    
  11.894      11.004      11.324      11.892      9.0692      9.1194      9.2584      9.8299      11.950      16.877    
  24.712      34.805      45.636      55.460      63.220      68.292      70.081      68.292      63.220      55.460    
  45.636      34.805      24.712      16.877      11.950      9.8299      9.2584      9.1194      8.4529      8.6381    
  9.0724      10.047      12.981      19.385      29.299      41.721      54.271      65.034      73.387      78.972    
  80.995      78.972      73.387      65.034      54.271      41.721      29.299      19.385      12.981      10.047    
  9.0724      8.6381      7.9234      8.2200      8.9200      10.290      13.934      21.449      32.913      46.956    
  60.722      72.379      81.655      88.153      90.582      88.153      81.655      72.379      60.722      46.956    
  32.913      21.449      13.934      10.290      8.9200      8.2200      7.5629      7.9156      8.7561      10.333    
  14.297      22.250      34.296      48.927      63.155      75.219      84.974      91.946      94.583      91.946    
  84.974      75.219      63.155      48.927      34.296      22.250      14.297      10.333      8.7561      7.9156    
  7.9234      8.2200      8.9200      10.290      13.934      21.449      32.913      46.956      60.722      72.379    
  81.655      88.153      90.582      88.153      81.655      72.379      60.722      46.956      32.913      21.449    
  13.934      10.290      8.9200      8.2200      8.4529      8.6381      9.0724      10.047      12.981      19.385    
  29.299      41.721      54.271      65.034      73.387      78.972      80.995      78.972      73.387      65.034    
  54.271      41.721      29.299      19.385      12.981      10.047      9.0724      8.6381      9.0692      9.1194    
  9.2584      9.8299      11.950      16.877      24.712      34.805      45.636      55.460      63.220      68.292    
  70.081      68.292      63.220      55.460      45.636      34.805      24.712      16.877      11.950      9.8299    
  9.2584      9.1194      12.138      11.892      11.324      11.004      11.894      14.953      20.442      27.845    
  36.480      45.126      52.512      57.534      59.326      57.534      52.512      45.126      36.480      27.845    
  20.442      14.953      11.894      11.004      11.324      11.892      20.781      19.970      17.918      15.604    
  14.208      14.673      17.373      21.989      27.971      34.713      41.132      45.846      47.593      45.846    
  41.132      34.713      27.971      21.989      17.373      14.673      14.208      15.604      17.918      19.970    
  34.581      33.166      29.410      24.474      19.857      16.869      16.180      17.730      20.978      25.278    
  29.885      33.559      34.978      33.559      29.885      25.278      20.978      17.730      16.180      16.869    
  19.857      24.474      29.410      33.166      51.674      49.348      43.399      35.911      28.393      21.746    
  17.236      15.397      15.922      18.046      20.794      23.100      24.007      23.100      20.794      18.046    
  15.922      15.397      17.236      21.746      28.393      35.911      43.399      49.348      74.103      70.189    
  60.472      48.896      38.068      28.536      20.400      15.157      13.221      13.655      15.022      16.199    
  16.637      16.199      15.022      13.655      13.221      15.157      20.400      28.536      38.068      48.896    
  60.472      70.189      101.73      95.582      80.634      63.536      48.364      35.801      24.973      16.668    
  12.625      12.017      12.679      13.144      13.242      13.144      12.679      12.017      12.625      16.668    
  24.973      35.801      48.364      63.536      80.634      95.582      130.62      122.02      101.33      78.211    
  58.421      42.671      29.778      19.093      13.182      11.811      12.222      12.422      12.362      12.422    
  12.222      11.811      13.182      19.093      29.778      42.671      58.421      78.211      101.33      122.02    
  153.42      142.88      117.59      89.650      66.171      47.914      33.444      21.275      13.911      11.864    
  12.122      12.245      12.133      12.245      12.122      11.864      13.911      21.275      33.444      47.914    
  66.171      89.650      117.59      142.88      110.31      103.49      86.890      67.971      51.495      38.442    
  27.783      19.517      15.704      15.794      17.447      18.769      19.201      18.769      17.447      15.794    
  15.704      19.517      27.783      38.442      51.495      67.971      86.890      103.49      105.49      99.080    
  83.450      65.541      49.806      37.185      26.729      18.788      15.255      15.446      17.090      18.392    
  18.820      18.392      17.090      15.446      15.255      18.788      26.729      37.185      49.806      65.541    
  83.450      99.080      92.228      86.928      73.903      58.725      45.033      33.650      23.918      17.000    
  14.196      14.586      16.168      17.427      17.857      17.427      16.168      14.586      14.196      17.000    
  23.918      33.650      45.033      58.725      73.903      86.928      73.934      70.084      60.474      48.917    
  38.015      28.400      20.234      15.049      13.241      13.834      15.353      16.640      17.119      16.640    
  15.353      13.834      13.241      15.049      20.234      28.400      38.015      48.917      60.474      70.084    
  55.167      52.667      46.251      38.124      29.910      22.348      16.726      13.768      13.195      14.221    
  15.954      17.506      18.126      17.506      15.954      14.221      13.195      13.768      16.726      22.348    
  29.910      38.124      46.251      52.667      39.360      37.798      33.615      27.893      21.865      17.020    
  14.278      13.670      14.685      16.737      19.212      21.294      22.118      21.294      19.212      16.737    