unknown system                          
   1.00000000000000     
     3.866000    0.000000    0.000000
     0.000000    3.866000    0.000000
     0.000000    0.000000    3.866000
   Pd   Ir   Pt   Cu
     1     1     1     1
Direct
  0.000000  0.000000  0.000000
  0.500000  0.500000  0.000000
  0.500000  0.000000  0.500000
  0.000000  0.500000  0.500000
 
   24   24   24
 0.30791232118E+03 0.28405635119E+03 0.22707652301E+03 0.16508944903E+03 0.11479983405E+03
 0.77428830333E+02 0.49928734431E+02 0.29859915746E+02 0.15894144654E+02 0.10359510152E+02
 0.90321378376E+01 0.75707926276E+01 0.65956107357E+01 0.75707926276E+01 0.90321378376E+01
 0.10359510152E+02 0.15894144654E+02 0.29859915746E+02 0.49928734431E+02 0.77428830333E+02
 0.11479983405E+03 0.16508944903E+03 0.22707652301E+03 0.28405635119E+03 0.28396291084E+03
 0.26199947372E+03 0.20965802644E+03 0.15294908192E+03 0.10711666853E+03 0.73025618039E+02
 0.47695744476E+02 0.28769229788E+02 0.15576249866E+02 0.10507679747E+02 0.94373848858E+01
 0.82327990078E+01 0.73912451221E+01 0.82327990078E+01 0.94373848858E+01 0.10507679747E+02
 0.15576249866E+02 0.28769229788E+02 0.47695744476E+02 0.73025618039E+02 0.10711666853E+03
 0.15294908192E+03 0.20965802644E+03 0.26199947372E+03 0.22587153759E+03 0.20864051522E+03
 0.16777642299E+03 0.12386513830E+03 0.88590977616E+02 0.62197624372E+02 0.42019009690E+02
 0.25896744571E+02 0.14807222280E+02 0.10844645279E+02 0.10275807195E+02 0.96120938893E+01
 0.90728960459E+01 0.96120938893E+01 0.10275807195E+02 0.10844645279E+02 0.14807222280E+02
 0.25896744571E+02 0.42019009690E+02 0.62197624372E+02 0.88590977616E+02 0.12386513830E+03
 0.16777642299E+03 0.20864051522E+03 0.16166964213E+03 0.14993657454E+03 0.12215026096E+03
 0.92276699165E+02 0.68090080937E+02 0.49674252798E+02 0.34989598255E+02 0.22392474548E+02
 0.14378131747E+02 0.11875293199E+02 0.11890446605E+02 0.11863636369E+02 0.11689811755E+02
 0.11863636369E+02 0.11890446605E+02 0.11875293199E+02 0.14378131747E+02 0.22392474548E+02
 0.34989598255E+02 0.49674252798E+02 0.68090080937E+02 0.92276699165E+02 0.12215026096E+03
 0.14993657454E+03 0.11044261767E+03 0.10326366944E+03 0.86079213118E+02 0.67120442135E+02
 0.51176373130E+02 0.38657992206E+02 0.28219213336E+02 0.19879942917E+02 0.15755977828E+02
 0.15432858492E+02 0.16695789435E+02 0.17737894711E+02 0.18067528624E+02 0.17737894711E+02
 0.16695789435E+02 0.15432858492E+02 0.15755977828E+02 0.19879942917E+02 0.28219213336E+02
 0.38657992206E+02 0.51176373130E+02 0.67120442135E+02 0.86079213118E+02 0.10326366944E+03
 0.74679817751E+02 0.70571216441E+02 0.60490840673E+02 0.48804262609E+02 0.38377269537E+02
 0.29800549320E+02 0.23140530846E+02 0.19819035744E+02 0.20149846474E+02 0.22994324078E+02
 0.26703803149E+02 0.29695762711E+02 0.30830402500E+02 0.29695762711E+02 0.26703803149E+02
 0.22994324078E+02 0.20149846474E+02 0.19819035744E+02 0.23140530846E+02 0.29800549320E+02
 0.38377269537E+02 0.48804262609E+02 0.60490840673E+02 0.70571216441E+02 0.49258851240E+02
 0.47021897802E+02 0.41380457935E+02 0.34500739114E+02 0.27983904974E+02 0.23095680285E+02
 0.21194257299E+02 0.22765374962E+02 0.27417859541E+02 0.34283427871E+02 0.41695014441E+02
 0.47480964232E+02 0.49679333794E+02 0.47480964232E+02 0.41695014441E+02 0.34283427871E+02
 0.27417859541E+02 0.22765374962E+02 0.21194257299E+02 0.23095680285E+02 0.27983904974E+02
 0.34500739114E+02 0.41380457935E+02 0.47021897802E+02 0.29878106868E+02 0.28706832455E+02
 0.25706758887E+02 0.22199700210E+02 0.19788113422E+02 0.19773065586E+02 0.22689888068E+02
 0.28477255216E+02 0.37036860911E+02 0.47441215546E+02 0.57877417501E+02 0.65815599135E+02
 0.68809527492E+02 0.65815599135E+02 0.57877417501E+02 0.47441215546E+02 0.37036860911E+02
 0.28477255216E+02 0.22689888068E+02 0.19773065586E+02 0.19788113422E+02 0.22199700210E+02
 0.25706758887E+02 0.28706832455E+02 0.15658610840E+02 0.15334311508E+02 0.14586127452E+02
 0.14234217536E+02 0.15658429950E+02 0.19967418024E+02 0.27078558242E+02 0.36655011826E+02
 0.47876102792E+02 0.59806165226E+02 0.71270426827E+02 0.80061302039E+02 0.83427771183E+02
 0.80061302039E+02 0.71270426827E+02 0.59806165226E+02 0.47876102792E+02 0.36655011826E+02
 0.27078558242E+02 0.19967418024E+02 0.15658429950E+02 0.14234217536E+02 0.14586127452E+02
 0.15334311508E+02 0.93188912785E+01 0.95506980747E+01 0.10128053864E+02 0.11463801796E+02
 0.15189296084E+02 0.22645944901E+02 0.33569487909E+02 0.46382478037E+02 0.58965252853E+02
 0.70931504937E+02 0.82627157322E+02 0.92290372236E+02 0.96184403231E+02 0.92290372236E+02
 0.82627157322E+02 0.70931504937E+02 0.58965252853E+02 0.46382478037E+02 0.33569487909E+02
 0.22645944901E+02 0.15189296084E+02 0.11463801796E+02 0.10128053864E+02 0.95506980747E+01
 0.72607511854E+01 0.77823838817E+01 0.89894104036E+01 0.11148531423E+02 0.16376330685E+02
 0.26372200698E+02 0.40727390817E+02 0.56139965155E+02 0.69524166797E+02 0.81731850138E+02
 0.94898214418E+02 0.10701514676E+03 0.11216221714E+03 0.10701514676E+03 0.94898214418E+02
 0.81731850138E+02 0.69524166797E+02 0.56139965155E+02 0.40727390817E+02 0.26372200698E+02
 0.16376330685E+02 0.11148531423E+02 0.89894104036E+01 0.77823838817E+01 0.55065796382E+01
 0.62564927613E+01 0.80020851073E+01 0.10942219000E+02 0.17487178773E+02 0.29552618340E+02
 0.46470151095E+02 0.63664664344E+02 0.77740870936E+02 0.90921655595E+02 0.10666748872E+03
 0.12212671773E+03 0.12885179492E+03 0.12212671773E+03 0.10666748872E+03 0.90921655595E+02
 0.77740870936E+02 0.63664664344E+02 0.46470151095E+02 0.29552618340E+02 0.17487178773E+02
 0.10942219000E+02 0.80020851073E+01 0.62564927613E+01 0.44976000986E+01 0.53577153516E+01
 0.73800307624E+01 0.10727432472E+02 0.17877600015E+02 0.30801162187E+02 0.48691703786E+02
 0.66536387016E+02 0.80933015552E+02 0.94708226119E+02 0.11179343688E+03 0.12886243876E+03
 0.13632692088E+03 0.12886243876E+03 0.11179343688E+03 0.94708226119E+02 0.80933015552E+02
 0.66536387016E+02 0.48691703786E+02 0.30801162187E+02 0.17877600015E+02 0.10727432472E+02
 0.73800307624E+01 0.53577153516E+01 0.55065796382E+01 0.62564927613E+01 0.80020851073E+01
 0.10942219000E+02 0.17487178773E+02 0.29552618340E+02 0.46470151095E+02 0.63664664344E+02
 0.77740870936E+02 0.90921655595E+02 0.10666748872E+03 0.12212671773E+03 0.12885179492E+03
 0.12212671773E+03 0.10666748872E+03 0.90921655595E+02 0.77740870936E+02 0.63664664344E+02
 0.46470151095E+02 0.29552618340E+02 0.17487178773E+02 0.10942219000E+02 0.80020851073E+01
 0.62564927613E+01 0.72607511854E+01 0.77823838817E+01 0.89894104036E+01 0.11148531423E+02
 0.16376330685E+02 0.26372200698E+02 0.40727390817E+02 0.56139965155E+02 0.69524166797E+02
 0.81731850138E+02 0.94898214418E+02 0.10701514676E+03 0.11216221714E+03 0.10701514676E+03
 0.94898214418E+02 0.81731850138E+02 0.69524166797E+02 0.56139965155E+02 0.40727390817E+02
 0.26372200698E+02 0.16376330685E+02 0.11148531423E+02 0.89894104036E+01 0.77823838817E+01
 0.93188912785E+01 0.95506980747E+01 0.10128053864E+02 0.11463801796E+02 0.15189296084E+02
 0.22645944901E+02 0.33569487909E+02 0.46382478037E+02 0.58965252853E+02 0.70931504937E+02
 0.82627157322E+02 0.92290372236E+02 0.96184403231E+02 0.92290372236E+02 0.82627157322E+02
 0.70931504937E+02 0.58965252853E+02 0.46382478037E+02 0.33569487909E+02 0.22645944901E+02
 0.15189296084E+02 0.11463801796E+02 0.10128053864E+02 0.95506980747E+01 0.15658610840E+02
 0.15334311508E+02 0.14586127452E+02 0.14234217536E+02 0.15658429950E+02 0.19967418024E+02
 0.27078558242E+02 0.36655011826E+02 0.47876102792E+02 0.59806165226E+02 0.71270426827E+02
 0.80061302039E+02 0.83427771183E+02 0.80061302039E+02 0.71270426827E+02 0.59806165226E+02
 0.47876102792E+02 0.36655011826E+02 0.27078558242E+02 0.19967418024E+02 0.15658429950E+02
 0.14234217536E+02 0.14586127452E+02 0.15334311508E+02 0.29878106868E+02 0.28706832455E+02
 0.25706758887E+02 0.22199700210E+02 0.19788113422E+02 0.19773065586E+02 0.22689888068E+02
 0.28477255216E+02 0.37036860911E+02 0.47441215546E+02 0.57877417501E+02 0.65815599135E+02
 0.68809527492E+02 0.65815599135E+02 0.57877417501E+02 0.47441215546E+02 0.37036860911E+02
 0.28477255216E+02 0.22689888068E+02 0.19773065586E+02 0.19788113422E+02 0.22199700210E+02
 0.25706758887E+02 0.28706832455E+02 0.49258851240E+02 0.47021897802E+02 0.41380457935E+02
 0.34500739114E+02 0.27983904974E+02 0.23095680285E+02 0.21194257299E+02 0.22765374962E+02
 0.27417859541E+02 0.34283427871E+02 0.41695014441E+02 0.47480964232E+02 0.49679333794E+02
 0.47480964232E+02 0.41695014441E+02 0.34283427871E+02 0.27417859541E+02 0.22765374962E+02
 0.21194257299E+02 0.23095680285E+02 0.27983904974E+02 0.34500739114E+02 0.41380457935E+02
 0.47021897802E+02 0.74679817751E+02 0.70571216441E+02 0.60490840673E+02 0.48804262609E+02
 0.38377269537E+02 0.29800549320E+02 0.23140530846E+02 0.19819035744E+02 0.20149846474E+02
 0.22994324078E+02 0.26703803149E+02 0.29695762711E+02 0.30830402500E+02 0.29695762711E+02
 0.26703803149E+02 0.22994324078E+02 0.20149846474E+02 0.19819035744E+02 0.23140530846E+02
 0.29800549320E+02 0.38377269537E+02 0.48804262609E+02 0.60490840673E+02 0.70571216441E+02
 0.11044261767E+03 0.10326366944E+03 0.86079213118E+02 0.67120442135E+02 0.51176373130E+02
 0.38657992206E+02 0.28219213336E+02 0.19879942917E+02 0.15755977828E+02 0.15432858492E+02
 0.16695789435E+02 0.17737894711E+02 0.18067528624E+02 0.17737894711E+02 0.16695789435E+02
 0.15432858492E+02 0.15755977828E+02 0.19879942917E+02 0.28219213336E+02 0.38657992206E+02
 0.51176373130E+02 0.67120442135E+02 0.86079213118E+02 0.10326366944E+03 0.16166964213E+03
 0.14993657454E+03 0.12215026096E+03 0.92276699165E+02 0.68090080937E+02 0.49674252798E+02
 0.34989598255E+02 0.22392474548E+02 0.14378131747E+02 0.11875293199E+02 0.11890446605E+02
 0.11863636369E+02 0.11689811755E+02 0.11863636369E+02 0.11890446605E+02 0.11875293199E+02
 0.14378131747E+02 0.22392474548E+02 0.34989598255E+02 0.49674252798E+02 0.68090080937E+02
 0.92276699165E+02 0.12215026096E+03 0.14993657454E+03 0.22587153759E+03 0.20864051522E+03
 0.16777642299E+03 0.12386513830E+03 0.88590977616E+02 0.62197624372E+02 0.42019009690E+02
 0.25896744571E+02 0.14807222280E+02 0.10844645279E+02 0.10275807195E+02 0.96120938893E+01
 0.90728960459E+01 0.96120938893E+01 0.10275807195E+02 0.10844645279E+02 0.14807222280E+02
 0.25896744571E+02 0.42019009690E+02 0.62197624372E+02 0.88590977616E+02 0.12386513830E+03
 0.16777642299E+03 0.20864051522E+03 0.28396291084E+03 0.26199947372E+03 0.20965802644E+03
 0.15294908192E+03 0.10711666853E+03 0.73025618039E+02 0.47695744476E+02 0.28769229788E+02
 0.15576249866E+02 0.10507679747E+02 0.94373848858E+01 0.82327990078E+01 0.73912451221E+01
 0.82327990078E+01 0.94373848858E+01 0.10507679747E+02 0.15576249866E+02 0.28769229788E+02
 0.47695744476E+02 0.73025618039E+02 0.10711666853E+03 0.15294908192E+03 0.20965802644E+03
 0.26199947372E+03 0.28428837697E+03 0.26243597580E+03 0.21028092819E+03 0.15358472390E+03
 0.10754536705E+03 0.73201430792E+02 0.47728813331E+02 0.28769418497E+02 0.15592418770E+02
 0.10563164218E+02 0.95373625817E+01 0.83677441173E+01 0.75395800211E+01 0.83677441173E+01
 0.95373625817E+01 0.10563164218E+02 0.15592418770E+02 0.28769418497E+02 0.47728813331E+02
 0.73201430792E+02 0.10754536705E+03 0.15358472390E+03 0.21028092819E+03 0.26243597580E+03
 0.26302026091E+03 0.24286419975E+03 0.19484870995E+03 0.14282319238E+03 0.10068758360E+03
 0.69200310000E+02 0.45627104235E+02 0.27695088399E+02 0.15285487855E+02 0.10705561215E+02
 0.98990944357E+01 0.89329543872E+01 0.82116380549E+01 0.89329543872E+01 0.98990944357E+01
 0.10705561215E+02 0.15285487855E+02 0.27695088399E+02 0.45627104235E+02 0.69200310000E+02
 0.10068758360E+03 0.14282319238E+03 0.19484870995E+03 0.24286419975E+03 0.21114916046E+03
 0.19525347676E+03 0.15752919467E+03 0.11688833715E+03 0.84054830572E+02 0.59313655411E+02
 0.40268463695E+02 0.24883430790E+02 0.14530399396E+02 0.11006173510E+02 0.10625022583E+02
 0.10092792881E+02 0.96188401104E+01 0.10092792881E+02 0.10625022583E+02 0.11006173510E+02
 0.14530399396E+02 0.24883430790E+02 0.40268463695E+02 0.59313655411E+02 0.84054830572E+02
 0.11688833715E+03 0.15752919467E+03 0.19525347676E+03 0.15307027115E+03 0.14216846688E+03
 0.11628913236E+03 0.88293249972E+02 0.65384036497E+02 0.47756777658E+02 0.33595002443E+02
 0.21493459233E+02 0.14064382756E+02 0.11897206152E+02 0.12031153273E+02 0.12058000158E+02
 0.11908596945E+02 0.12058000158E+02 0.12031153273E+02 0.11897206152E+02 0.14064382756E+02
 0.21493459233E+02 0.33595002443E+02 0.47756777658E+02 0.65384036497E+02 0.88293249972E+02
 0.11628913236E+03 0.14216846688E+03 0.10566942952E+03 0.98957333481E+02 0.82830307741E+02
 0.64883810627E+02 0.49588360634E+02 0.37407170386E+02 0.27132434299E+02 0.19116097742E+02
 0.15299592888E+02 0.15123273234E+02 0.16422793569E+02 0.17478681746E+02 0.17816592945E+02
 0.17478681746E+02 0.16422793569E+02 0.15123273234E+02 0.15299592888E+02 0.19116097742E+02
 0.27132434299E+02 0.37407170386E+02 0.49588360634E+02 0.64883810627E+02 0.82830307741E+02
 0.98957333481E+02 0.71696552415E+02 0.67842267155E+02 0.58350441038E+02 0.47259483396E+02
 0.37242343843E+02 0.28850749259E+02 0.22354982625E+02 0.19149209208E+02 0.19465926123E+02
 0.22201945294E+02 0.25775350341E+02 0.28675863286E+02 0.29781150349E+02 0.28675863286E+02
 0.25775350341E+02 0.22201945294E+02 0.19465926123E+02 0.19149209208E+02 0.22354982625E+02
 0.28850749259E+02 0.37242343843E+02 0.47259483396E+02 0.58350441038E+02 0.67842267155E+02
 0.47209985983E+02 0.45093807431E+02 0.39740430682E+02 0.33172578214E+02 0.26916963738E+02
 0.22304402679E+02 0.20576588901E+02 0.22115356994E+02 0.26490477636E+02 0.32925652454E+02
 0.39918445412E+02 0.45418329681E+02 0.47517361324E+02 0.45418329681E+02 0.39918445412E+02
 0.32925652454E+02 0.26490477636E+02 0.22115356994E+02 0.20576588901E+02 0.22304402679E+02
 0.26916963738E+02 0.33172578214E+02 0.39740430682E+02 0.45093807431E+02 0.28511650371E+02
 0.27364180702E+02 0.24440002278E+02 0.21069169651E+02 0.18846071256E+02 0.19021783365E+02
 0.22047146222E+02 0.27713181874E+02 0.35861841174E+02 0.45660224093E+02 0.55463332974E+02
 0.62925399240E+02 0.65742678864E+02 0.62925399240E+02 0.55463332974E+02 0.45660224093E+02
 0.35861841174E+02 0.27713181874E+02 0.22047146222E+02 0.19021783365E+02 0.18846071256E+02
 0.21069169651E+02 0.24440002278E+02 0.27364180702E+02 0.15189331542E+02 0.14828324960E+02
 0.13987820966E+02 0.13527044479E+02 0.14862010141E+02 0.19129631633E+02 0.26212812233E+02
 0.35635281653E+02 0.46515737341E+02 0.57877928108E+02 0.68616185827E+02 0.76762315675E+02
 0.79867223526E+02 0.76762315675E+02 0.68616185827E+02 0.57877928108E+02 0.46515737341E+02
 0.35635281653E+02 0.26212812233E+02 0.19129631633E+02 0.14862010141E+02 0.13527044479E+02
 0.13987820966E+02 0.14828324960E+02 0.97911185203E+01 0.99120383427E+01 0.10201261402E+02
 0.11159640326E+02 0.14497312649E+02 0.21652854120E+02 0.32348816035E+02 0.45020918886E+02
 0.57441567754E+02 0.68957282572E+02 0.79804339180E+02 0.88550255297E+02 0.92040734301E+02
 0.88550255297E+02 0.79804339180E+02 0.68957282572E+02 0.57441567754E+02 0.45020918886E+02
 0.32348816035E+02 0.21652854120E+02 0.14497312649E+02 0.11159640326E+02 0.10201261402E+02
 0.99120383427E+01 0.85184669019E+01 0.88691439984E+01 0.96306326195E+01 0.11193216635E+02
 0.15776937071E+02 0.25202784873E+02 0.39127271833E+02 0.54411521910E+02 0.67786028628E+02
 0.79558297506E+02 0.91565141654E+02 0.10229508211E+03 0.10681129618E+03 0.10229508211E+03
 0.91565141654E+02 0.79558297506E+02 0.67786028628E+02 0.54411521910E+02 0.39127271833E+02
 0.25202784873E+02 0.15776937071E+02 0.11193216635E+02 0.96306326195E+01 0.88691439984E+01
 0.73731731727E+01 0.79092945984E+01 0.90951706519E+01 0.11274587392E+02 0.16978934920E+02
 0.28249420114E+02 0.44574969667E+02 0.61638415520E+02 0.75773208525E+02 0.88418238685E+02
 0.10260240032E+03 0.11616172146E+03 0.12201873869E+03 0.11616172146E+03 0.10260240032E+03
 0.88418238685E+02 0.75773208525E+02 0.61638415520E+02 0.44574969667E+02 0.28249420114E+02
 0.16978934920E+02 0.11274587392E+02 0.90951706519E+01 0.79092945984E+01 0.66129017886E+01
 0.72424410862E+01 0.86596975942E+01 0.11180285837E+02 0.17411091769E+02 0.29448458366E+02
 0.46684066420E+02 0.64393249833E+02 0.78861759444E+02 0.92036038576E+02 0.10736942173E+03
 0.12231006763E+03 0.12880279398E+03 0.12231006763E+03 0.10736942173E+03 0.92036038576E+02
 0.78861759444E+02 0.64393249833E+02 0.46684066420E+02 0.29448458366E+02 0.17411091769E+02
 0.11180285837E+02 0.86596975942E+01 0.72424410862E+01 0.73731731727E+01 0.79092945984E+01
 0.90951706519E+01 0.11274587392E+02 0.16978934920E+02 0.28249420114E+02 0.44574969667E+02
 0.61638415520E+02 0.75773208525E+02 0.88418238685E+02 0.10260240032E+03 0.11616172146E+03
 0.12201873869E+03 0.11616172146E+03 0.10260240032E+03 0.88418238685E+02 0.75773208525E+02
 0.61638415520E+02 0.44574969667E+02 0.28249420114E+02 0.16978934920E+02 0.11274587392E+02
 0.90951706519E+01 0.79092945984E+01 0.85184669019E+01 0.88691439984E+01 0.96306326195E+01
 0.11193216635E+02 0.15776937071E+02 0.25202784873E+02 0.39127271833E+02 0.54411521910E+02
 0.67786028628E+02 0.79558297506E+02 0.91565141654E+02 0.10229508211E+03 0.10681129618E+03
 0.10229508211E+03 0.91565141654E+02 0.79558297506E+02 0.67786028628E+02 0.54411521910E+02
 0.39127271833E+02 0.25202784873E+02 0.15776937071E+02 0.11193216635E+02 0.96306326195E+01
 0.88691439984E+01 0.97911185203E+01 0.99120383427E+01 0.10201261402E+02 0.11159640326E+02
 0.14497312649E+02 0.21652854120E+02 0.32348816035E+02 0.45020918886E+02 0.57441567754E+02
 0.68957282572E+02 0.79804339180E+02 0.88550255297E+02 0.92040734301E+02 0.88550255297E+02
 0.79804339180E+02 0.68957282572E+02 0.57441567754E+02 0.45020918886E+02 0.32348816035E+02
 0.21652854120E+02 0.14497312649E+02 0.11159640326E+02 0.10201261402E+02 0.99120383427E+01
 0.15189331542E+02 0.14828324960E+02 0.13987820966E+02 0.13527044479E+02 0.14862010141E+02
 0.19129631633E+02 0.26212812233E+02 0.35635281653E+02 0.46515737341E+02 0.57877928108E+02
 0.68616185827E+02 0.76762315675E+02 0.79867223526E+02 0.76762315675E+02 0.68616185827E+02
 0.57877928108E+02 0.46515737341E+02 0.35635281653E+02 0.26212812233E+02 0.19129631633E+02
 0.14862010141E+02 0.13527044479E+02 0.13987820966E+02 0.14828324960E+02 0.28511650371E+02
 0.27364180702E+02 0.24440002278E+02 0.21069169651E+02 0.18846071256E+02 0.19021783365E+02
 0.22047146222E+02 0.27713181874E+02 0.35861841174E+02 0.45660224093E+02 0.55463332974E+02
 0.62925399240E+02 0.65742678864E+02 0.62925399240E+02 0.55463332974E+02 0.45660224093E+02
 0.35861841174E+02 0.27713181874E+02 0.22047146222E+02 0.19021783365E+02 0.18846071256E+02
 0.21069169651E+02 0.24440002278E+02 0.27364180702E+02 0.47209985983E+02 0.45093807431E+02
 0.39740430682E+02 0.33172578214E+02 0.26916963738E+02 0.22304402679E+02 0.20576588901E+02
 0.22115356994E+02 0.26490477636E+02 0.32925652454E+02 0.39918445412E+02 0.45418329681E+02
 0.47517361324E+02 0.45418329681E+02 0.39918445412E+02 0.32925652454E+02 0.26490477636E+02
 0.22115356994E+02 0.20576588901E+02 0.22304402679E+02 0.26916963738E+02 0.33172578214E+02
 0.39740430682E+02 0.45093807431E+02 0.71696552415E+02 0.67842267155E+02 0.58350441038E+02
 0.47259483396E+02 0.37242343843E+02 0.28850749259E+02 0.22354982625E+02 0.19149209208E+02
 0.19465926123E+02 0.22201945294E+02 0.25775350341E+02 0.28675863286E+02 0.29781150349E+02
 0.28675863286E+02 0.25775350341E+02 0.22201945294E+02 0.19465926123E+02 0.19149209208E+02
 0.22354982625E+02 0.28850749259E+02 0.37242343843E+02 0.47259483396E+02 0.58350441038E+02
 0.67842267155E+02 0.10566942952E+03 0.98957333481E+02 0.82830307741E+02 0.64883810627E+02
 0.49588360634E+02 0.37407170386E+02 0.27132434299E+02 0.19116097742E+02 0.15299592888E+02
 0.15123273234E+02 0.16422793569E+02 0.17478681746E+02 0.17816592945E+02 0.17478681746E+02
 0.16422793569E+02 0.15123273234E+02 0.15299592888E+02 0.19116097742E+02 0.27132434299E+02
 0.37407170386E+02 0.49588360634E+02 0.64883810627E+02 0.82830307741E+02 0.98957333481E+02
 0.15307027115E+03 0.14216846688E+03 0.11628913236E+03 0.88293249972E+02 0.65384036497E+02
 0.47756777658E+02 0.33595002443E+02 0.21493459233E+02 0.14064382756E+02 0.11897206152E+02
 0.12031153273E+02 0.12058000158E+02 0.11908596945E+02 0.12058000158E+02 0.12031153273E+02
 0.11897206152E+02 0.14064382756E+02 0.21493459233E+02 0.33595002443E+02 0.47756777658E+02
 0.65384036497E+02 0.88293249972E+02 0.11628913236E+03 0.14216846688E+03 0.21114916046E+03
 0.19525347676E+03 0.15752919467E+03 0.11688833715E+03 0.84054830572E+02 0.59313655411E+02
 0.40268463695E+02 0.24883430790E+02 0.14530399396E+02 0.11006173510E+02 0.10625022583E+02
 0.10092792881E+02 0.96188401104E+01 0.10092792881E+02 0.10625022583E+02 0.11006173510E+02
 0.14530399396E+02 0.24883430790E+02 0.40268463695E+02 0.59313655411E+02 0.84054830572E+02
 0.11688833715E+03 0.15752919467E+03 0.19525347676E+03 0.26302026091E+03 0.24286419975E+03
 0.19484870995E+03 0.14282319238E+03 0.10068758360E+03 0.69200310000E+02 0.45627104235E+02
 0.27695088399E+02 0.15285487855E+02 0.10705561215E+02 0.98990944357E+01 0.89329543872E+01
 0.82116380549E+01 0.89329543872E+01 0.98990944357E+01 0.10705561215E+02 0.15285487855E+02
 0.27695088399E+02 0.45627104235E+02 0.69200310000E+02 0.10068758360E+03 0.14282319238E+03
 0.19484870995E+03 0.24286419975E+03 0.22661961821E+03 0.20972040097E+03 0.16941190770E+03
 0.12554402136E+03 0.89684586222E+02 0.62597399105E+02 0.42045335951E+02 0.25834624656E+02
 0.14782397046E+02 0.10917047918E+02 0.10457332525E+02 0.98800531790E+01 0.93743408829E+01
 0.98800531790E+01 0.10457332525E+02 0.10917047918E+02 0.14782397046E+02 0.25834624656E+02
 0.42045335951E+02 0.62597399105E+02 0.89684586222E+02 0.12554402136E+03 0.16941190770E+03
 0.20972040097E+03 0.21160908236E+03 0.19593921682E+03 0.15859277337E+03 0.11798282535E+03
 0.84758810069E+02 0.59559562774E+02 0.40271769582E+02 0.24828201238E+02 0.14497855239E+02
 0.11033629905E+02 0.10719011890E+02 0.10239509814E+02 0.97860907905E+01 0.10239509814E+02
 0.10719011890E+02 0.11033629905E+02 0.14497855239E+02 0.24828201238E+02 0.40271769582E+02
 0.59559562774E+02 0.84758810069E+02 0.11798282535E+03 0.15859277337E+03 0.19593921682E+03
 0.17425802330E+03 0.16172050268E+03 0.13185639310E+03 0.99340845674E+02 0.72545105860E+02
 0.51921168786E+02 0.35703811535E+02 0.22242722050E+02 0.13786852438E+02 0.11245210312E+02
 0.11213329904E+02 0.10960863575E+02 0.10644015953E+02 0.10960863575E+02 0.11213329904E+02
 0.11245210312E+02 0.13786852438E+02 0.22242722050E+02 0.35703811535E+02 0.51921168786E+02
 0.72545105860E+02 0.99340845674E+02 0.13185639310E+03 0.16172050268E+03 0.13056207204E+03
 0.12179955209E+03 0.10082837705E+03 0.77686325874E+02 0.58141928648E+02 0.42655952831E+02
 0.29889491844E+02 0.19228582775E+02 0.13280260074E+02 0.11850614553E+02 0.12207323272E+02
 0.12364648834E+02 0.12288461660E+02 0.12364648834E+02 0.12207323272E+02 0.11850614553E+02
 0.13280260074E+02 0.19228582775E+02 0.29889491844E+02 0.42655952831E+02 0.58141928648E+02
 0.77686325874E+02 0.10082837705E+03 0.12179955209E+03 0.92463330954E+02 0.86983080782E+02
 0.73661820837E+02 0.58452583750E+02 0.45000091349E+02 0.33859161006E+02 0.24227269829E+02
 0.17234424715E+02 0.14215445695E+02 0.14337391087E+02 0.15671338640E+02 0.16752535073E+02
 0.17116758158E+02 0.16752535073E+02 0.15671338640E+02 0.14337391087E+02 0.14215445695E+02
 0.17234424715E+02 0.24227269829E+02 0.33859161006E+02 0.45000091349E+02 0.58452583750E+02
 0.73661820837E+02 0.86983080782E+02 0.63371757854E+02 0.60190421213E+02 0.52257690692E+02
 0.42751303842E+02 0.33837483860E+02 0.26038952370E+02 0.20198250674E+02 0.17445551735E+02
 0.17781116980E+02 0.20232088674E+02 0.23431930547E+02 0.26073362707E+02 0.27094265732E+02
 0.26073362707E+02 0.23431930547E+02 0.20232088674E+02 0.17781116980E+02 0.17445551735E+02
 0.20198250674E+02 0.26038952370E+02 0.33837483860E+02 0.42751303842E+02 0.52257690692E+02
 0.60190421213E+02 0.41803341838E+02 0.40000110312E+02 0.35376109340E+02 0.29548206486E+02
 0.23959816102E+02 0.20060473141E+02 0.18793545329E+02 0.20301457113E+02 0.24070363328E+02
 0.29465194852E+02 0.35378005747E+02 0.40098193149E+02 0.41916812887E+02 0.40098193149E+02
 0.35378005747E+02 0.29465194852E+02 0.24070363328E+02 0.20301457113E+02 0.18793545329E+02
 0.20060473141E+02 0.23959816102E+02 0.29548206486E+02 0.35376109340E+02 0.40000110312E+02
 0.25080134238E+02 0.24036996193E+02 0.21398148631E+02 0.18422651932E+02 0.16606088197E+02
 0.17076828735E+02 0.20169335016E+02 0.25454915492E+02 0.32598609631E+02 0.40939516422E+02
 0.49172164251E+02 0.55405314447E+02 0.57754839338E+02 0.55405314447E+02 0.49172164251E+02
 0.40939516422E+02 0.32598609631E+02 0.25454915492E+02 0.20169335016E+02 0.17076828735E+02
 0.16606088197E+02 0.18422651932E+02 0.21398148631E+02 0.24036996193E+02 0.13933229821E+02
 0.13558677039E+02 0.12674574087E+02 0.12107307638E+02 0.13210059573E+02 0.17128911591E+02
 0.23809552187E+02 0.32585685563E+02 0.42550059449E+02 0.52599672308E+02 0.61666171356E+02
 0.68283725726E+02 0.70756305189E+02 0.68283725726E+02 0.61666171356E+02 0.52599672308E+02
 0.42550059449E+02 0.32585685563E+02 0.23809552187E+02 0.17128911591E+02 0.13210059573E+02
 0.12107307638E+02 0.12674574087E+02 0.13558677039E+02 0.10166246729E+02 0.10151779639E+02
 0.10088442945E+02 0.10517247961E+02 0.13090572070E+02 0.19344476992E+02 0.29078946212E+02
 0.40997075757E+02 0.52892979180E+02 0.63495617101E+02 0.72583725869E+02 0.79328204412E+02
 0.81915506135E+02 0.79328204412E+02 0.72583725869E+02 0.63495617101E+02 0.52892979180E+02
 0.40997075757E+02 0.29078946212E+02 0.19344476992E+02 0.13090572070E+02 0.10517247961E+02
 0.10088442945E+02 0.10151779639E+02 0.98893761305E+01 0.10023813340E+02 0.10235926229E+02
 0.10995653340E+02 0.14429556345E+02 0.22446164104E+02 0.34889574068E+02 0.49374308665E+02
 0.62602008602E+02 0.73647321250E+02 0.83375097991E+02 0.91168486764E+02 0.94309677231E+02
 0.91168486764E+02 0.83375097991E+02 0.73647321250E+02 0.62602008602E+02 0.49374308665E+02
 0.34889574068E+02 0.22446164104E+02 0.14429556345E+02 0.10995653340E+02 0.10235926229E+02
 0.10023813340E+02 0.95156116185E+01 0.97778517381E+01 0.10268705287E+02 0.11429998683E+02
 0.15677987954E+02 0.25103362660E+02 0.39555221897E+02 0.55782559369E+02 0.69966351396E+02
 0.81766681986E+02 0.92875314413E+02 0.10240570924E+03 0.10637086580E+03 0.10240570924E+03
 0.92875314413E+02 0.81766681986E+02 0.69966351396E+02 0.55782559369E+02 0.39555221897E+02
 0.25103362660E+02 0.15677987954E+02 0.11429998683E+02 0.10268705287E+02 0.97778517381E+01
 0.91042547262E+01 0.94352497830E+01 0.10092902620E+02 0.11498064608E+02 0.16140203265E+02
 0.26149451552E+02 0.41359895428E+02 0.58215382967E+02 0.72780545376E+02 0.85000793806E+02
 0.96863717720E+02 0.10727654723E+03 0.11164704085E+03 0.10727654723E+03 0.96863717720E+02
 0.85000793806E+02 0.72780545376E+02 0.58215382967E+02 0.41359895428E+02 0.26149451552E+02
 0.16140203265E+02 0.11498064608E+02 0.10092902620E+02 0.94352497830E+01 0.95156116185E+01
 0.97778517381E+01 0.10268705287E+02 0.11429998683E+02 0.15677987954E+02 0.25103362660E+02
 0.39555221897E+02 0.55782559369E+02 0.69966351396E+02 0.81766681986E+02 0.92875314413E+02
 0.10240570924E+03 0.10637086580E+03 0.10240570924E+03 0.92875314413E+02 0.81766681986E+02
 0.69966351396E+02 0.55782559369E+02 0.39555221897E+02 0.25103362660E+02 0.15677987954E+02
 0.11429998683E+02 0.10268705287E+02 0.97778517381E+01 0.98893761305E+01 0.10023813340E+02
 0.10235926229E+02 0.10995653340E+02 0.14429556345E+02 0.22446164104E+02 0.34889574068E+02
 0.49374308665E+02 0.62602008602E+02 0.73647321250E+02 0.83375097991E+02 0.91168486764E+02
 0.94309677231E+02 0.91168486764E+02 0.83375097991E+02 0.73647321250E+02 0.62602008602E+02
 0.49374308665E+02 0.34889574068E+02 0.22446164104E+02 0.14429556345E+02 0.10995653340E+02
 0.10235926229E+02 0.10023813340E+02 0.10166246729E+02 0.10151779639E+02 0.10088442945E+02
 0.10517247961E+02 0.13090572070E+02 0.19344476992E+02 0.29078946212E+02 0.40997075757E+02
 0.52892979180E+02 0.63495617101E+02 0.72583725869E+02 0.79328204412E+02 0.81915506135E+02
 0.79328204412E+02 0.72583725869E+02 0.63495617101E+02 0.52892979180E+02 0.40997075757E+02
 0.29078946212E+02 0.19344476992E+02 0.13090572070E+02 0.10517247961E+02 0.10088442945E+02
 0.10151779639E+02 0.13933229821E+02 0.13558677039E+02 0.12674574087E+02 0.12107307638E+02
 0.13210059573E+02 0.17128911591E+02 0.23809552187E+02 0.32585685563E+02 0.42550059449E+02
 0.52599672308E+02 0.61666171356E+02 0.68283725726E+02 0.70756305189E+02 0.68283725726E+02
 0.61666171356E+02 0.52599672308E+02 0.42550059449E+02 0.32585685563E+02 0.23809552187E+02
 0.17128911591E+02 0.13210059573E+02 0.12107307638E+02 0.12674574087E+02 0.13558677039E+02
 0.25080134238E+02 0.24036996193E+02 0.21398148631E+02 0.18422651932E+02 0.16606088197E+02
 0.17076828735E+02 0.20169335016E+02 0.25454915492E+02 0.32598609631E+02 0.40939516422E+02
 0.49172164251E+02 0.55405314447E+02 0.57754839338E+02 0.55405314447E+02 0.49172164251E+02
 0.40939516422E+02 0.32598609631E+02 0.25454915492E+02 0.20169335016E+02 0.17076828735E+02
 0.16606088197E+02 0.18422651932E+02 0.21398148631E+02 0.24036996193E+02 0.41803341838E+02
 0.40000110312E+02 0.35376109340E+02 0.29548206486E+02 0.23959816102E+02 0.20060473141E+02
 0.18793545329E+02 0.20301457113E+02 0.24070363328E+02 0.29465194852E+02 0.35378005747E+02
 0.40098193149E+02 0.41916812887E+02 0.40098193149E+02 0.35378005747E+02 0.29465194852E+02
 0.24070363328E+02 0.20301457113E+02 0.18793545329E+02 0.20060473141E+02 0.23959816102E+02
 0.29548206486E+02 0.35376109340E+02 0.40000110312E+02 0.63371757854E+02 0.60190421213E+02
 0.52257690692E+02 0.42751303842E+02 0.33837483860E+02 0.26038952370E+02 0.20198250674E+02
 0.17445551735E+02 0.17781116980E+02 0.20232088674E+02 0.23431930547E+02 0.26073362707E+02
 0.27094265732E+02 0.26073362707E+02 0.23431930547E+02 0.20232088674E+02 0.17781116980E+02