   4   4   0   0
  0.1444527E+02  0.3866000E-09  0.3866000E-09  0.3866000E-09  0.5000000E-15
  1.000000000000000E-004
  CAR 
 unknown system                          
     27.80589623     -1.87873446  301      9.75849588      1.00000000
     -1.879  0.0000E+00  0.0000E+00
     -1.780  0.0000E+00  0.0000E+00
     -1.681  0.0000E+00  0.0000E+00
     -1.582  0.0000E+00  0.0000E+00
     -1.483 -0.4190E-28 -0.4146E-29
     -1.384 -0.8608E-25 -0.8522E-26
     -1.285 -0.1079E-21 -0.1069E-22
     -1.186 -0.8254E-19 -0.8178E-20
     -1.087 -0.3845E-16 -0.3812E-17
     -0.988 -0.1055E-13 -0.1047E-14
     -0.889 -0.1804E-11 -0.1795E-12
     -0.790 -0.1866E-09 -0.1864E-10
     -0.691 -0.1162E-07 -0.1168E-08
     -0.592 -0.4323E-06 -0.4394E-07
     -0.493 -0.9505E-05 -0.9844E-06
     -0.395 -0.1208E-03 -0.1293E-04
     -0.296 -0.8452E-03 -0.9657E-04
     -0.197 -0.2834E-02 -0.3769E-03
     -0.098 -0.1428E-02 -0.5182E-03
      0.001  0.1810E-01  0.1272E-02
      0.100  0.5268E-01  0.6485E-02
      0.199  0.5749E-01  0.1217E-01
      0.298  0.1560E-01  0.1372E-01
      0.397  0.1477E-02  0.1386E-01
      0.496  0.1219E+00  0.2592E-01
      0.595  0.3244E+00  0.5802E-01
      0.694  0.3419E+00  0.9185E-01
      0.793  0.1378E+00  0.1055E+00
      0.892  0.1021E+00  0.1156E+00
      0.991  0.4694E+00  0.1620E+00
      1.090  0.8570E+00  0.2468E+00
      1.189  0.8897E+00  0.3349E+00
      1.288  0.9085E+00  0.4248E+00
      1.387  0.1275E+01  0.5509E+00
      1.486  0.1760E+01  0.7251E+00
      1.584  0.1825E+01  0.9057E+00
      1.683  0.1257E+01  0.1030E+01
      1.782  0.5621E+00  0.1086E+01
      1.881  0.6238E+00  0.1147E+01
      1.980  0.1886E+01  0.1334E+01
      2.079  0.3551E+01  0.1685E+01
      2.178  0.4876E+01  0.2168E+01
      2.277  0.6553E+01  0.2816E+01
      2.376  0.8637E+01  0.3671E+01
      2.475  0.8978E+01  0.4559E+01
      2.574  0.6285E+01  0.5181E+01
      2.673  0.3131E+01  0.5491E+01
      2.772  0.2282E+01  0.5717E+01
      2.871  0.3321E+01  0.6046E+01
      2.970  0.5212E+01  0.6561E+01
      3.069  0.7450E+01  0.7298E+01
      3.168  0.9024E+01  0.8191E+01
      3.267  0.9499E+01  0.9131E+01
      3.366  0.8867E+01  0.1001E+02
      3.464  0.6977E+01  0.1070E+02
      3.563  0.5317E+01  0.1123E+02
      3.662  0.5571E+01  0.1178E+02
      3.761  0.6649E+01  0.1243E+02
      3.860  0.6942E+01  0.1312E+02
      3.959  0.6602E+01  0.1377E+02
      4.058  0.6223E+01  0.1439E+02
      4.157  0.5710E+01  0.1496E+02
      4.256  0.4925E+01  0.1544E+02
      4.355  0.4792E+01  0.1592E+02
      4.454  0.5785E+01  0.1649E+02
      4.553  0.6704E+01  0.1715E+02
      4.652  0.6922E+01  0.1784E+02
      4.751  0.7019E+01  0.1853E+02
      4.850  0.6898E+01  0.1921E+02
      4.949  0.6513E+01  0.1986E+02
      5.048  0.6307E+01  0.2048E+02
      5.147  0.5884E+01  0.2107E+02
      5.246  0.4937E+01  0.2155E+02
      5.345  0.4141E+01  0.2196E+02
      5.443  0.4446E+01  0.2240E+02
      5.542  0.5960E+01  0.2299E+02
      5.641  0.7357E+01  0.2372E+02
      5.740  0.7629E+01  0.2448E+02
      5.839  0.6850E+01  0.2515E+02
      5.938  0.5590E+01  0.2571E+02
      6.037  0.4888E+01  0.2619E+02
      6.136  0.4860E+01  0.2667E+02
      6.235  0.4257E+01  0.2709E+02
      6.334  0.2818E+01  0.2737E+02
      6.433  0.1921E+01  0.2756E+02
      6.532  0.2034E+01  0.2776E+02
      6.631  0.2430E+01  0.2800E+02
      6.730  0.3115E+01  0.2831E+02
      6.829  0.3985E+01  0.2871E+02
      6.928  0.4011E+01  0.2910E+02
      7.027  0.3237E+01  0.2942E+02
      7.126  0.2941E+01  0.2971E+02
      7.225  0.3526E+01  0.3006E+02
      7.324  0.4058E+01  0.3046E+02
      7.422  0.3733E+01  0.3083E+02
      7.521  0.2983E+01  0.3113E+02
      7.620  0.3015E+01  0.3143E+02
      7.719  0.3898E+01  0.3181E+02
      7.818  0.4349E+01  0.3224E+02
      7.917  0.3864E+01  0.3263E+02
      8.016  0.3211E+01  0.3294E+02
      8.115  0.2991E+01  0.3324E+02
      8.214  0.3088E+01  0.3354E+02
      8.313  0.3446E+01  0.3389E+02
      8.412  0.4121E+01  0.3429E+02
      8.511  0.4447E+01  0.3473E+02
      8.610  0.4102E+01  0.3514E+02
      8.709  0.3887E+01  0.3552E+02
      8.808  0.4203E+01  0.3594E+02
      8.907  0.4508E+01  0.3639E+02
      9.006  0.4479E+01  0.3683E+02
      9.105  0.4462E+01  0.3727E+02
      9.204  0.4698E+01  0.3774E+02
      9.302  0.4677E+01  0.3820E+02
      9.401  0.4170E+01  0.3861E+02
      9.500  0.3641E+01  0.3897E+02
      9.599  0.3639E+01  0.3933E+02
      9.698  0.4118E+01  0.3974E+02
      9.797  0.4295E+01  0.4016E+02
      9.896  0.3725E+01  0.4053E+02
      9.995  0.2506E+01  0.4078E+02
     10.094  0.1396E+01  0.4092E+02
     10.193  0.1234E+01  0.4104E+02
     10.292  0.2001E+01  0.4124E+02
     10.391  0.3427E+01  0.4158E+02
     10.490  0.4657E+01  0.4204E+02
     10.589  0.4448E+01  0.4248E+02
     10.688  0.3076E+01  0.4278E+02
     10.787  0.1822E+01  0.4296E+02
     10.886  0.1324E+01  0.4309E+02
     10.985  0.1301E+01  0.4322E+02
     11.084  0.1107E+01  0.4333E+02
     11.183  0.7883E+00  0.4341E+02
     11.281  0.7856E+00  0.4349E+02
     11.380  0.9458E+00  0.4358E+02
     11.479  0.9283E+00  0.4367E+02
     11.578  0.7653E+00  0.4375E+02
     11.677  0.7203E+00  0.4382E+02
     11.776  0.7269E+00  0.4389E+02
     11.875  0.7184E+00  0.4396E+02
     11.974  0.9086E+00  0.4405E+02
     12.073  0.1041E+01  0.4416E+02
     12.172  0.8061E+00  0.4424E+02
     12.271  0.4619E+00  0.4428E+02
     12.370  0.2987E+00  0.4431E+02
     12.469  0.4283E+00  0.4435E+02
     12.568  0.1029E+01  0.4446E+02
     12.667  0.1808E+01  0.4463E+02
     12.766  0.2025E+01  0.4484E+02
     12.865  0.1772E+01  0.4501E+02
     12.964  0.1710E+01  0.4518E+02
     13.063  0.1821E+01  0.4536E+02
     13.161  0.1683E+01  0.4553E+02
     13.260  0.1571E+01  0.4568E+02
     13.359  0.2069E+01  0.4589E+02
     13.458  0.2507E+01  0.4613E+02
     13.557  0.2083E+01  0.4634E+02
     13.656  0.1361E+01  0.4648E+02
     13.755  0.1106E+01  0.4658E+02
     13.854  0.1382E+01  0.4672E+02
     13.953  0.1649E+01  0.4688E+02
     14.052  0.1346E+01  0.4702E+02
     14.151  0.6826E+00  0.4709E+02
     14.250  0.2675E+00  0.4711E+02
     14.349  0.4113E+00  0.4715E+02
     14.448  0.1358E+01  0.4729E+02
     14.547  0.2684E+01  0.4755E+02
     14.646  0.2874E+01  0.4784E+02
     14.745  0.1635E+01  0.4800E+02
     14.844  0.6821E+00  0.4807E+02
     14.943  0.8571E+00  0.4815E+02
     15.042  0.1145E+01  0.4826E+02
     15.140  0.8893E+00  0.4835E+02
     15.239  0.5547E+00  0.4841E+02
     15.338  0.7540E+00  0.4848E+02
     15.437  0.1689E+01  0.4865E+02
     15.536  0.2592E+01  0.4891E+02
     15.635  0.2484E+01  0.4915E+02
     15.734  0.1533E+01  0.4930E+02
     15.833  0.7623E+00  0.4938E+02
     15.932  0.7475E+00  0.4945E+02
     16.031  0.1094E+01  0.4956E+02
     16.130  0.1292E+01  0.4969E+02
     16.229  0.1157E+01  0.4980E+02
     16.328  0.6960E+00  0.4987E+02
     16.427  0.4406E+00  0.4992E+02
     16.526  0.8194E+00  0.5000E+02
     16.625  0.1405E+01  0.5014E+02
     16.724  0.1579E+01  0.5029E+02
     16.823  0.1140E+01  0.5040E+02
     16.922  0.5568E+00  0.5046E+02
     17.020  0.5325E+00  0.5051E+02
     17.119  0.1126E+01  0.5062E+02
     17.218  0.1808E+01  0.5080E+02
     17.317  0.1893E+01  0.5099E+02
     17.416  0.1525E+01  0.5114E+02
     17.515  0.1688E+01  0.5131E+02
     17.614  0.2389E+01  0.5154E+02
     17.713  0.2595E+01  0.5180E+02
     17.812  0.1943E+01  0.5199E+02
     17.911  0.1069E+01  0.5210E+02
     18.010  0.5256E+00  0.5215E+02
     18.109  0.4239E+00  0.5219E+02
     18.208  0.7527E+00  0.5227E+02
     18.307  0.1253E+01  0.5239E+02
     18.406  0.1490E+01  0.5254E+02
     18.505  0.1423E+01  0.5268E+02
     18.604  0.1229E+01  0.5280E+02
     18.703  0.8962E+00  0.5289E+02
     18.802  0.5266E+00  0.5294E+02
     18.901  0.3667E+00  0.5298E+02
     18.999  0.5209E+00  0.5303E+02
     19.098  0.9666E+00  0.5313E+02
     19.197  0.1488E+01  0.5327E+02
     19.296  0.1682E+01  0.5344E+02
     19.395  0.1369E+01  0.5357E+02
     19.494  0.9534E+00  0.5367E+02
     19.593  0.1015E+01  0.5377E+02
     19.692  0.1567E+01  0.5392E+02
     19.791  0.2213E+01  0.5414E+02
     19.890  0.2648E+01  0.5441E+02
     19.989  0.2684E+01  0.5467E+02
     20.088  0.2357E+01  0.5490E+02
     20.187  0.1972E+01  0.5510E+02
     20.286  0.1652E+01  0.5526E+02
     20.385  0.1249E+01  0.5539E+02
     20.484  0.7597E+00  0.5546E+02
     20.583  0.4527E+00  0.5551E+02
     20.682  0.6890E+00  0.5557E+02
     20.781  0.1452E+01  0.5572E+02
     20.879  0.2176E+01  0.5593E+02
     20.978  0.2513E+01  0.5618E+02
     21.077  0.2657E+01  0.5645E+02
     21.176  0.2613E+01  0.5670E+02
     21.275  0.2208E+01  0.5692E+02
     21.374  0.1700E+01  0.5709E+02
     21.473  0.1436E+01  0.5723E+02
     21.572  0.1521E+01  0.5738E+02
     21.671  0.1656E+01  0.5755E+02
     21.770  0.1315E+01  0.5768E+02
     21.869  0.7320E+00  0.5775E+02
     21.968  0.6386E+00  0.5781E+02
     22.067  0.1252E+01  0.5794E+02
     22.166  0.2271E+01  0.5816E+02
     22.265  0.2974E+01  0.5846E+02
     22.364  0.2695E+01  0.5872E+02
     22.463  0.1712E+01  0.5889E+02
     22.562  0.7244E+00  0.5896E+02
     22.661  0.2138E+00  0.5898E+02
     22.760  0.4265E+00  0.5903E+02
     22.858  0.9139E+00  0.5912E+02
     22.957  0.8639E+00  0.5920E+02
     23.056  0.3381E+00  0.5924E+02
     23.155 -0.2035E-01  0.5923E+02
     23.254 -0.5814E-02  0.5923E+02
     23.353  0.2655E+00  0.5926E+02
     23.452  0.5095E+00  0.5931E+02
     23.551  0.4138E+00  0.5935E+02
     23.650  0.1313E+00  0.5936E+02
     23.749 -0.1532E-01  0.5936E+02
     23.848 -0.2881E-01  0.5936E+02
     23.947 -0.3875E-01  0.5936E+02
     24.046 -0.5752E-01  0.5935E+02
     24.145  0.9978E-01  0.5936E+02
     24.244  0.6314E+00  0.5942E+02
     24.343  0.1205E+01  0.5954E+02
     24.442  0.1215E+01  0.5966E+02
     24.541  0.7050E+00  0.5973E+02
     24.640  0.1959E+00  0.5975E+02
     24.738 -0.2241E-01  0.5975E+02
     24.837 -0.3692E-01  0.5975E+02
     24.936 -0.1248E-01  0.5974E+02
     25.035 -0.4484E-02  0.5974E+02
     25.134 -0.1307E-01  0.5974E+02
     25.233 -0.2708E-01  0.5974E+02
     25.332  0.3114E-01  0.5974E+02
     25.431  0.2581E+00  0.5977E+02
     25.530  0.4823E+00  0.5982E+02
     25.629  0.4553E+00  0.5986E+02
     25.728  0.4060E+00  0.5990E+02
     25.827  0.4946E+00  0.5995E+02
     25.926  0.4065E+00  0.5999E+02
     26.025  0.1388E+00  0.6000E+02
     26.124 -0.1232E-01  0.6000E+02
     26.223 -0.2274E-01  0.6000E+02
     26.322 -0.6765E-02  0.6000E+02
     26.421 -0.9661E-03  0.6000E+02
     26.520 -0.7604E-04  0.6000E+02
     26.619 -0.3458E-05  0.6000E+02
     26.717 -0.9292E-07  0.6000E+02
     26.816 -0.1492E-08  0.6000E+02
     26.915 -0.1443E-10  0.6000E+02
     27.014 -0.8445E-13  0.6000E+02
     27.113 -0.2872E-15  0.6000E+02
     27.212  0.0000E+00  0.6000E+02
     27.311  0.0000E+00  0.6000E+02
     27.410  0.0000E+00  0.6000E+02
     27.509  0.0000E+00  0.6000E+02
     27.608  0.0000E+00  0.6000E+02
     27.707  0.0000E+00  0.6000E+02
     27.806  0.0000E+00  0.6000E+02
