    4    4    1    1
  0.1444527E+02  0.3866000E-09  0.3866000E-09  0.3866000E-09  0.5000000E-15
  1.000000000000000E-004
  CAR 
 unknown system                          
     40     27     30
 
  0.0000000E+00  0.0000000E+00  0.0000000E+00  0.8000000E-02
    1        0.121266   1.000000
    2        2.542961   1.000000
    3        2.660772   1.000000
    4        3.044233   1.000000
    5        3.132342   1.000000
    6        3.587895   1.000000
    7        3.597627   1.000000
    8        3.977135   1.000000
    9        4.193721   1.000000
   10        4.263955   1.000000
   11        4.702132   1.000000
   12        4.898801   1.000000
   13        9.698508   0.741612
   14       10.509539  -0.000001
   15       10.803965  -0.000000
   16       11.257502  -0.000000
   17       11.294638  -0.000000
   18       11.301753  -0.000000
   19       12.776128  -0.000000
   20       13.888181  -0.000000
   21       14.199610  -0.000000
   22       14.851634  -0.000000
   23       15.816672   0.000000
   24       16.048369   0.000000
   25       16.814948   0.000000
   26       17.892734   0.000000
   27       19.511257   0.000000
   28       19.924373   0.000000
   29       20.131991   0.000000
   30       20.469155   0.000000
 
  0.2000000E+00  0.0000000E+00  0.0000000E+00  0.1600000E-01
    1        0.582406   1.000000
    2        1.468747   1.000000
    3        1.782454   1.000000
    4        2.332338   1.000000
    5        2.529056   1.000000
    6        2.921364   1.000000
    7        3.186325   1.000000
    8        3.193649   1.000000
    9        3.597390   1.000000
   10        3.687046   1.000000
   11        4.104564   1.000000
   12        4.500131   1.000000
   13        6.741823   1.000000
   14        7.235534   1.000000
   15        7.640638   1.000000
   16        8.948039   1.000000
   17        9.434786   1.022210
   18       10.335244  -0.000176
   19       10.489154  -0.000002
   20       10.753803  -0.000000
   21       12.958748  -0.000000
   22       13.077128  -0.000000
   23       13.884219  -0.000000
   24       14.496429  -0.000000
   25       16.712829   0.000000
   26       17.706172   0.000000
   27       19.786229   0.000000
   28       20.194062   0.000000
   29       20.257454   0.000000
   30       21.116903   0.000000
 
  0.0000000E+00  0.2000000E+00  0.0000000E+00  0.1600000E-01
    1        0.621686   1.000000
    2        1.128170   1.000000
    3        1.287707   1.000000
    4        2.650443   1.000000
    5        2.816930   1.000000
    6        2.996255   1.000000
    7        3.073145   1.000000
    8        3.472766   1.000000
    9        3.634957   1.000000
   10        3.743656   1.000000
   11        4.138094   1.000000
   12        4.807805   1.000000
   13        7.092041   1.000000
   14        7.359277   1.000000
   15        8.116389   1.000000
   16        8.611482   1.000000
   17        9.662534   0.858807
   18        9.842069   0.178284
   19       10.313007  -0.000315
   20       10.483263  -0.000002
   21       12.472115  -0.000000
   22       13.158474  -0.000000
   23       13.396088  -0.000000
   24       14.662000  -0.000000
   25       16.220934   0.000000
   26       18.268447   0.000000
   27       20.073284   0.000000
   28       20.110559   0.000000
   29       20.161445   0.000000
   30       21.333177   0.000000
 
  0.0000000E+00  0.0000000E+00  0.2000000E+00  0.1600000E-01
    1        0.621018   1.000000
    2        1.228766   1.000000
    3        1.682597   1.000000
    4        2.483608   1.000000
    5        2.812517   1.000000
    6        3.082229   1.000000
    7        3.162699   1.000000
    8        3.204400   1.000000
    9        3.603387   1.000000
   10        3.787618   1.000000
   11        3.909497   1.000000
   12        4.637792   1.000000
   13        6.785290   1.000000
   14        7.531254   1.000000
   15        7.719388   1.000000
   16        9.201604   1.000296
   17        9.304126   1.003018
   18       10.067556  -0.025595
   19       10.268398  -0.000926
   20       10.697664  -0.000000
   21       13.031134  -0.000000
   22       13.397556  -0.000000
   23       13.424934  -0.000000
   24       13.762297  -0.000000
   25       15.861657   0.000000
   26       18.602695   0.000000
   27       20.113309   0.000000
   28       20.223340   0.000000
   29       20.223792   0.000000
   30       21.275049   0.000000
 
  0.4000000E+00  0.0000000E+00  0.0000000E+00  0.1600000E-01
    1        1.509966   1.000000
    2        1.748006   1.000000
    3        2.291893   1.000000
    4        2.322365   1.000000
    5        2.357033   1.000000
    6        3.192938   1.000000
    7        3.645933   1.000000
    8        3.690343   1.000000
    9        4.473247   1.000000
   10        4.566606   1.000000
   11        4.651771   1.000000
   12        5.303453   1.000000
   13        5.555203   1.000000
   14        5.737069   1.000000
   15        7.097189   1.000000
   16        7.155963   1.000000
   17        7.892925   1.000000
   18        8.039866   1.000000
   19        8.640803   1.000000
   20        8.866068   1.000000
   21       13.903452  -0.000000
   22       14.021350  -0.000000
   23       15.374329   0.000000
   24       15.466621   0.000000
   25       15.751216   0.000000
   26       17.893811   0.000000
   27       18.175362   0.000000
   28       18.321358   0.000000
   29       19.061025   0.000000
   30       21.720580   0.000000
 
  0.0000000E+00  0.4000000E+00  0.0000000E+00  0.1600000E-01
    1        1.645266   1.000000
    2        2.001508   1.000000
    3        2.291086   1.000000
    4        2.299427   1.000000
    5        3.012919   1.000000
    6        3.053973   1.000000
    7        3.400179   1.000000
    8        4.144592   1.000000
    9        4.309173   1.000000
   10        4.329371   1.000000
   11        5.367242   1.000000
   12        5.776172   1.000000
   13        6.297648   1.000000
   14        6.474711   1.000000
   15        6.778000   1.000000
   16        6.956581   1.000000
   17        7.171215   1.000000
   18        7.293257   1.000000
   19        8.014542   1.000000
   20        8.532689   1.000000
   21       12.425951  -0.000000
   22       14.190739  -0.000000
   23       15.444767   0.000000
   24       15.561805   0.000000
   25       15.614900   0.000000
   26       18.050539   0.000000
   27       18.210142   0.000000
   28       18.217561   0.000000
   29       20.365716   0.000000
   30       20.897144   0.000000
 
  0.0000000E+00  0.0000000E+00  0.4000000E+00  0.1600000E-01
    1        1.554531   1.000000
    2        2.001334   1.000000
    3        2.291542   1.000000
    4        2.348680   1.000000
    5        2.842588   1.000000
    6        3.072181   1.000000
    7        3.610459   1.000000
    8        3.757499   1.000000
    9        4.406459   1.000000
   10        4.517905   1.000000
   11        4.983956   1.000000
   12        5.370711   1.000000
   13        5.732368   1.000000
   14        6.062076   1.000000
   15        6.945597   1.000000
   16        7.330793   1.000000
   17        7.493195   1.000000
   18        7.734435   1.000000
   19        7.966478   1.000000
   20        8.759431   1.000000
   21       13.084645  -0.000000
   22       13.556546  -0.000000
   23       14.919887  -0.000000
   24       15.537772   0.000000
   25       15.680217   0.000000
   26       18.012480   0.000000
   27       18.337403   0.000000
   28       18.827547   0.000000
   29       19.982634   0.000000
   30       21.195455   0.000000
 
  0.2000000E+00  0.2000000E+00  0.0000000E+00  0.3200000E-01
    1        1.046132   1.000000
    2        1.345128   1.000000
    3        1.551942   1.000000
    4        2.142522   1.000000
    5        2.389941   1.000000
    6        2.650962   1.000000
    7        2.924775   1.000000
    8        3.404477   1.000000
    9        3.889483   1.000000
   10        3.901425   1.000000
   11        3.972926   1.000000
   12        4.593144   1.000000
   13        6.608530   1.000000
   14        6.629217   1.000000
   15        7.372215   1.000000
   16        7.777968   1.000000
   17        8.625093   1.000000
   18        8.759857   1.000000
   19        8.957796   1.000000
   20        9.433156   1.021836
   21       10.408195  -0.000022
   22       10.562837  -0.000000
   23       12.292216  -0.000000
   24       14.490044  -0.000000
   25       16.191018   0.000000
   26       18.497302   0.000000
   27       19.379927   0.000000
   28       19.911235   0.000000
   29       21.019526   0.000000
   30       21.437256   0.000000
 
  0.0000000E+00  0.2000000E+00  0.2000000E+00  0.3200000E-01
    1        1.046261   1.000000
    2        1.414270   1.000000
    3        1.539090   1.000000
    4        2.148863   1.000000
    5        2.199382   1.000000
    6        2.755122   1.000000
    7        2.957371   1.000000
    8        3.450446   1.000000
    9        3.829021   1.000000
   10        3.884838   1.000000
   11        4.086833   1.000000
   12        4.650116   1.000000
   13        6.603640   1.000000
   14        6.743025   1.000000
   15        7.585175   1.000000
   16        7.737229   1.000000
   17        8.302129   1.000000
   18        8.336716   1.000000
   19        8.880292   1.000000
   20        9.465718   1.029228
   21       10.472768  -0.000003
   22       10.539603  -0.000000
   23       12.824817  -0.000000
   24       14.317526  -0.000000
   25       15.947759   0.000000
   26       18.524455   0.000000
   27       18.916547   0.000000
   28       20.720599   0.000000
   29       21.087795   0.000000
   30       21.373600   0.000000
 
  0.2000000E+00  0.0000000E+00  0.2000000E+00  0.3200000E-01
    1        1.044926   1.000000
    2        1.286404   1.000000
    3        1.614133   1.000000
    4        2.141609   1.000000
    5        2.372843   1.000000
    6        2.679900   1.000000
    7        2.924447   1.000000
    8        3.582528   1.000000
    9        3.753981   1.000000
   10        3.917273   1.000000
   11        4.105018   1.000000
   12        4.425629   1.000000
   13        6.221220   1.000000
   14        6.763384   1.000000
   15        7.262795   1.000000
   16        7.577641   1.000000
   17        8.817175   1.000000
   18        8.962314   1.000000
   19        9.240450   1.000767
   20        9.374657   1.010288
   21       10.714734  -0.000000
   22       10.727022  -0.000000
   23       11.732304  -0.000000
   24       14.508304  -0.000000
   25       16.087808   0.000000
   26       18.488984   0.000000
   27       19.246781   0.000000
   28       20.154004   0.000000
   29       21.172195   0.000000
   30       21.564236   0.000000
 
  0.4000000E+00  0.2000000E+00  0.0000000E+00  0.3200000E-01
    1        1.992128   1.000000
    2        2.055784   1.000000
    3        2.208754   1.000000
    4        3.133658   1.000000
    5        3.143618   1.000000
    6        3.505354   1.000000
    7        3.862523   1.000000
    8        4.107014   1.000000
    9        4.498465   1.000000
   10        4.706034   1.000000
   11        4.776696   1.000000
   12        5.477662   1.000000
   13        5.697078   1.000000
   14        5.858124   1.000000
   15        6.712812   1.000000
   16        6.843884   1.000000
   17        7.344656   1.000000
   18        8.485983   1.000000
   19        8.589169   1.000000
   20        9.180726   1.000172
   21        9.551102   1.028551
   22       10.200342  -0.003840
   23       12.780602  -0.000000
   24       14.543247  -0.000000
   25       16.735058   0.000000
   26       17.201745   0.000000
   27       19.344295   0.000000
   28       19.647159   0.000000
   29       21.621051   0.000000
   30       22.895054   0.000000
 
  0.0000000E+00  0.4000000E+00  0.2000000E+00  0.3200000E-01
    1        2.042609   1.000000
    2        2.217871   1.000000
    3        2.334441   1.000000
    4        3.169692   1.000000
    5        3.351758   1.000000
    6        3.397497   1.000000
    7        3.622583   1.000000
    8        3.774035   1.000000
    9        4.269696   1.000000
   10        4.444579   1.000000
   11        5.093617   1.000000
   12        5.494629   1.000000
   13        6.058028   1.000000
   14        6.158066   1.000000
   15        7.131540   1.000000
   16        7.326069   1.000000
   17        7.431998   1.000000
   18        8.174923   1.000000
   19        8.369268   1.000000
   20        8.712666   1.000000
   21        9.281078   1.001889
   22        9.372923   1.010022
   23       13.155360  -0.000000
   24       14.613271  -0.000000
   25       16.484555   0.000000
   26       17.609615   0.000000
   27       19.096401   0.000000
   28       19.304480   0.000000
   29       21.461709   0.000000
   30       23.431068   0.000000
 
  0.2000000E+00  0.0000000E+00  0.4000000E+00  0.3200000E-01
    1        1.990277   1.000000
    2        2.068395   1.000000
    3        2.378633   1.000000
    4        3.081816   1.000000
    5        3.185772   1.000000
    6        3.506982   1.000000
    7        3.706389   1.000000
    8        4.001514   1.000000
    9        4.519085   1.000000
   10        4.804893   1.000000
   11        4.869990   1.000000
   12        5.544451   1.000000
   13        5.675641   1.000000
   14        5.722242   1.000000
   15        6.911204   1.000000
   16        7.352633   1.000000
   17        7.454008   1.000000
   18        8.182589   1.000000
   19        8.592617   1.000000
   20        8.824428   1.000000
   21        9.240291   1.000764
   22        9.786699   0.381967
   23       12.872324  -0.000000
   24       14.568992  -0.000000
   25       16.577008   0.000000
   26       17.165837   0.000000
   27       19.154285   0.000000
   28       19.976782   0.000000
   29       21.617915   0.000000
   30       22.842736   0.000000
 
 -0.2000000E+00  0.4000000E+00  0.0000000E+00  0.3200000E-01
    1        1.993640   1.000000
    2        2.233488   1.000000
    3        2.411529   1.000000
    4        3.083342   1.000000
    5        3.347944   1.000000
    6        3.406747   1.000000
    7        3.633774   1.000000
    8        3.680901   1.000000
    9        4.270695   1.000000
   10        4.580709   1.000000
   11        5.119414   1.000000
   12        5.602301   1.000000
   13        5.994020   1.000000
   14        6.109594   1.000000
   15        7.003429   1.000000
   16        7.572329   1.000000
   17        7.711750   1.000000
   18        8.145059   1.000000
   19        8.420710   1.000000
   20        8.468124   1.000000
   21        9.162208   1.000104
   22        9.185925   1.000197
   23       12.997018  -0.000000
   24       14.620949  -0.000000
   25       16.547056   0.000000
   26       17.556980   0.000000
   27       19.107930   0.000000
   28       19.591825   0.000000
   29       21.634389   0.000000
   30       22.829455   0.000000
 
 -0.4000000E+00  0.0000000E+00  0.2000000E+00  0.3200000E-01
    1        1.974570   1.000000
    2        2.039976   1.000000
    3        2.198951   1.000000
    4        3.084968   1.000000
    5        3.098543   1.000000
    6        3.519721   1.000000
    7        3.807801   1.000000
    8        4.083604   1.000000
    9        4.557140   1.000000
   10        4.630775   1.000000
   11        4.972831   1.000000
   12        5.554129   1.000000
   13        5.583404   1.000000
   14        5.609170   1.000000
   15        6.801358   1.000000
   16        7.097051   1.000000
   17        7.401260   1.000000
   18        8.379672   1.000000
   19        8.683366   1.000000
   20        9.149618   1.000073
   21        9.622853   0.952036
   22       10.151096  -0.008993
   23       12.630371  -0.000000
   24       14.610030  -0.000000
   25       16.685356   0.000000
   26       17.148194   0.000000
   27       19.235654   0.000000
   28       19.500818   0.000000
   29       21.707747   0.000000
   30       22.823163   0.000000
 
  0.0000000E+00  0.2000000E+00  0.4000000E+00  0.3200000E-01
    1        2.055351   1.000000
    2        2.072843   1.000000
    3        2.324721   1.000000
    4        3.227057   1.000000
    5        3.275817   1.000000
    6        3.370943   1.000000
    7        3.846454   1.000000
    8        4.073471   1.000000
    9        4.459446   1.000000
   10        4.563186   1.000000
   11        4.948250   1.000000
   12        5.249892   1.000000
   13        5.840702   1.000000
   14        6.020732   1.000000
   15        6.829795   1.000000
   16        6.951876   1.000000
   17        7.203297   1.000000
   18        8.406403   1.000000
   19        8.586434   1.000000
   20        8.799584   1.000000
   21        9.371299   1.009777
   22        9.969508  -0.029938
   23       13.147875  -0.000000
   24       14.496965  -0.000000
   25       16.565663   0.000000
   26       17.258946   0.000000
   27       19.254667   0.000000
   28       19.820521   0.000000
   29       21.375473   0.000000
   30       23.419803   0.000000
 
  0.4000000E+00  0.4000000E+00  0.0000000E+00  0.3200000E-01
    1        2.241274   1.000000
    2        3.109982   1.000000
    3        3.224950   1.000000
    4        3.250158   1.000000
    5        3.509492   1.000000
    6        4.349011   1.000000
    7        4.401905   1.000000
    8        4.730758   1.000000
    9        4.885332   1.000000
   10        5.077424   1.000000
   11        5.179555   1.000000
   12        5.334226   1.000000
   13        5.502276   1.000000
   14        5.780959   1.000000
   15        6.476087   1.000000
   16        6.874464   1.000000
   17        7.587290   1.000000
   18        7.834836   1.000000
   19        8.367294   1.000000
   20        8.570489   1.000000
   21        9.011368   1.000001
   22        9.695376   0.752908
   23       11.945462  -0.000000
   24       12.905069  -0.000000
   25       17.873413   0.000000
   26       18.675164   0.000000
   27       20.506589   0.000000
   28       20.820527   0.000000
   29       21.072832   0.000000
   30       21.808589   0.000000
 
  0.0000000E+00  0.4000000E+00  0.4000000E+00  0.3200000E-01
    1        2.090738   1.000000
    2        3.066525   1.000000
    3        3.140497   1.000000
    4        3.181882   1.000000
    5        3.428711   1.000000
    6        3.929653   1.000000
    7        4.640882   1.000000
    8        4.791990   1.000000
    9        4.945377   1.000000
   10        5.070857   1.000000
   11        5.093007   1.000000
   12        5.435352   1.000000
   13        5.437492   1.000000
   14        5.805716   1.000000
   15        6.323841   1.000000
   16        7.095422   1.000000
   17        7.752050   1.000000
   18        7.982901   1.000000
   19        8.540476   1.000000
   20        8.915694   1.000000
   21        9.025036   1.000001
   22        9.380756   1.011263
   23       12.714356  -0.000000
   24       12.947988  -0.000000
   25       17.694218   0.000000
   26       18.392835   0.000000
   27       20.283272   0.000000
   28       20.392861   0.000000
   29       20.713852   0.000000
   30       22.045473   0.000000
 
  0.4000000E+00  0.0000000E+00  0.4000000E+00  0.3200000E-01
    1        2.414053   1.000000
    2        3.150319   1.000000
    3        3.241937   1.000000
    4        3.296402   1.000000
    5        3.618798   1.000000
    6        4.250151   1.000000
    7        4.401831   1.000000
    8        4.723558   1.000000
    9        4.832132   1.000000
   10        5.052349   1.000000
   11        5.155323   1.000000
   12        5.225294   1.000000
   13        5.536649   1.000000
   14        5.733525   1.000000
   15        6.537481   1.000000
   16        6.906496   1.000000
   17        7.434186   1.000000
   18        7.722849   1.000000
   19        8.449555   1.000000
   20        8.939749   1.000000
   21        9.142149   1.000059
   22       10.135401  -0.011401
   23       11.423042  -0.000000
   24       12.589965  -0.000000
   25       17.771965   0.000000
   26       18.639400   0.000000
   27       20.294614   0.000000
   28       20.934664   0.000000
   29       21.294588   0.000000
   30       21.651999   0.000000
 
  0.2000000E+00  0.2000000E+00  0.2000000E+00  0.6400000E-01
    1        1.469790   1.000000
    2        2.272513   1.000000
    3        2.358313   1.000000
    4        2.519040   1.000000
    5        2.846839   1.000000
    6        3.074474   1.000000
    7        3.339497   1.000000
    8        4.123345   1.000000
    9        4.361554   1.000000
   10        4.480643   1.000000
   11        4.729385   1.000000
   12        4.806679   1.000000
   13        6.044024   1.000000
   14        6.770200   1.000000
   15        6.874937   1.000000
   16        7.262441   1.000000
   17        7.858919   1.000000
   18        8.308971   1.000000
   19        9.165914   1.000115
   20        9.745136   0.556393
   21       11.028170  -0.000000
   22       11.251842  -0.000000
   23       12.654059  -0.000000
   24       13.081866  -0.000000
   25       17.023368   0.000000
   26       17.631171   0.000000
   27       18.311575   0.000000
   28       20.878450   0.000000
   29       21.134500   0.000000
   30       21.209086   0.000000
 
  0.4000000E+00  0.2000000E+00  0.2000000E+00  0.6400000E-01
    1        2.353269   1.000000
    2        2.433187   1.000000
    3        2.476129   1.000000
    4        3.045766   1.000000
    5        3.336588   1.000000
    6        3.791952   1.000000
    7        4.082549   1.000000
    8        4.526159   1.000000
    9        4.725158   1.000000
   10        4.820300   1.000000
   11        5.038767   1.000000
   12        5.522061   1.000000
   13        5.584422   1.000000
   14        5.855153   1.000000
   15        6.186428   1.000000
   16        7.375608   1.000000
   17        8.174346   1.000000
   18        8.526937   1.000000
   19        9.240770   1.000772
   20        9.619651   0.957840
   21        9.891874   0.052221
   22       10.885580  -0.000000
   23       13.541724  -0.000000
   24       13.816125  -0.000000
   25       15.459525   0.000000
   26       15.599807   0.000000
   27       19.962395   0.000000
   28       20.918399   0.000000
   29       21.991666   0.000000
   30       22.234232   0.000000
 
  0.2000000E+00  0.4000000E+00  0.2000000E+00  0.6400000E-01
    1        2.437768   1.000000
    2        2.502156   1.000000
    3        2.859793   1.000000
    4        3.098924   1.000000
    5        3.305533   1.000000
    6        3.421781   1.000000
    7        3.913816   1.000000
    8        4.236128   1.000000
    9        4.575536   1.000000
   10        5.003207   1.000000
   11        5.637874   1.000000
   12        5.716985   1.000000
   13        5.937668   1.000000
   14        5.971448   1.000000
   15        6.192430   1.000000
   16        6.977038   1.000000
   17        7.811837   1.000000
   18        8.204077   1.000000
   19        8.978390   1.000000
   20        9.353674   1.007390
   21       10.507108  -0.000001
   22       10.667923  -0.000000
   23       13.372763  -0.000000
   24       14.001468  -0.000000
   25       14.986654  -0.000000
   26       15.986069   0.000000
   27       20.045814   0.000000
   28       21.044574   0.000000
   29       22.151172   0.000000
   30       22.249612   0.000000
 
  0.2000000E+00  0.2000000E+00  0.4000000E+00  0.6400000E-01
    1        2.423620   1.000000
    2        2.493356   1.000000
    3        2.723240   1.000000
    4        2.941245   1.000000
    5        3.307996   1.000000
    6        3.666942   1.000000
    7        3.990034   1.000000
    8        4.436238   1.000000
    9        4.751765   1.000000
   10        4.932815   1.000000
   11        5.331007   1.000000
   12        5.554465   1.000000
   13        5.619682   1.000000
   14        5.821114   1.000000
   15        6.187934   1.000000
   16        7.226004   1.000000
   17        7.946074   1.000000
   18        8.435195   1.000000
   19        9.214187   1.000407
   20        9.475049   1.031125
   21        9.910817   0.020438
   22       10.969439  -0.000000
   23       13.366002  -0.000000
   24       13.926262  -0.000000
   25       14.957076  -0.000000
   26       16.196271   0.000000
   27       19.890577   0.000000
   28       20.779748   0.000000
   29       22.154997   0.000000
   30       22.323570   0.000000
 
  0.4000000E+00  0.4000000E+00  0.2000000E+00  0.6400000E-01
    1        2.460716   1.000000
    2        3.009574   1.000000
    3        3.232438   1.000000
    4        3.417992   1.000000
    5        3.692766   1.000000
    6        3.893876   1.000000
    7        4.420157   1.000000
    8        4.638489   1.000000
    9        4.965614   1.000000
   10        5.141046   1.000000
   11        5.498522   1.000000
   12        5.806855   1.000000
   13        6.073139   1.000000
   14        6.132401   1.000000
   15        6.526902   1.000000
   16        7.675165   1.000000
   17        8.725174   1.000000
   18        8.856748   1.000000
   19        9.668769   0.840595
   20        9.772925   0.439120
   21        9.874175   0.089916
   22       10.366120  -0.000075
   23       12.099348  -0.000000
   24       13.462118  -0.000000
   25       15.513453   0.000000
   26       17.272263   0.000000
   27       17.624981   0.000000
   28       19.673685   0.000000
   29       22.385945   0.000000
   30       24.451727   0.000000
 
  0.2000000E+00  0.4000000E+00  0.4000000E+00  0.6400000E-01
    1        2.453210   1.000000
    2        3.011149   1.000000
    3        3.235231   1.000000
    4        3.363300   1.000000
    5        3.686350   1.000000
    6        3.838006   1.000000
    7        4.188046   1.000000
    8        4.497390   1.000000
    9        5.017756   1.000000
   10        5.280343   1.000000
   11        5.669235   1.000000
   12        5.803932   1.000000
   13        5.963456   1.000000
   14        6.170059   1.000000
   15        6.495142   1.000000
   16        7.677550   1.000000
   17        8.808703   1.000000
   18        9.009504   1.000001
   19        9.645087   0.904677
   20        9.735718   0.595694
   21        9.896198   0.044202
   22       10.419984  -0.000015
   23       12.661750  -0.000000
   24       13.658229  -0.000000
   25       15.180093  -0.000000
   26       16.729323   0.000000
   27       17.528740   0.000000
   28       19.824992   0.000000
   29       22.473798   0.000000
   30       24.321624   0.000000
 
  0.4000000E+00  0.2000000E+00  0.4000000E+00  0.6400000E-01
    1        2.482730   1.000000
    2        3.032987   1.000000
    3        3.235578   1.000000
    4        3.314919   1.000000
    5        3.685384   1.000000
    6        4.075078   1.000000
    7        4.242496   1.000000
    8        4.810694   1.000000
    9        4.918461   1.000000
   10        5.123155   1.000000
   11        5.277762   1.000000
   12        5.717138   1.000000
   13        5.858417   1.000000
   14        6.351692   1.000000
   15        6.782101   1.000000
   16        7.761061   1.000000
   17        8.750929   1.000000
   18        9.144052   1.000062
   19        9.413823   1.017541
   20        9.576207   1.013329
   21       10.393003  -0.000034
   22       10.534048  -0.000000
   23       11.457730  -0.000000
   24       13.349133  -0.000000
   25       15.435128   0.000000
   26       17.253437   0.000000
   27       17.739723   0.000000
   28       19.749574   0.000000
   29       22.245444   0.000000
   30       24.286808   0.000000
 
  0.4000000E+00  0.4000000E+00  0.4000000E+00  0.6400000E-01
    1        2.203663   1.000000
    2        2.289021   1.000000
    3        2.379866   1.000000
    4        2.803641   1.000000
    5        3.756990   1.000000
    6        3.959431   1.000000
    7        4.095126   1.000000
    8        4.723897   1.000000
    9        5.125379   1.000000
   10        5.282410   1.000000
   11        5.480028   1.000000
   12        5.711100   1.000000
   13        7.181492   1.000000
   14        7.911697   1.000000
   15        8.028449   1.000000
   16        8.107301   1.000000
   17        8.417235   1.000000
   18        9.010901   1.000001
   19       10.229468  -0.002161
   20       10.450318  -0.000006
   21       10.490640  -0.000001
   22       10.614321  -0.000000
   23       11.688243  -0.000000
   24       11.973049  -0.000000
   25       14.526359  -0.000000
   26       14.612950  -0.000000
   27       15.633887   0.000000
   28       17.437841   0.000000
   29       25.507246   0.000000
   30       25.805896   0.000000
