       N       E                     dE             d eps       ncg     rms          rms(c)
DAV:   1     0.531414829421E+02    0.53141E+02   -0.25787E-03  1784   0.330E-01    0.603E-02
DAV:   2     0.531599888850E+02    0.18506E-01   -0.29662E-03  1790   0.346E-01    0.578E-02
DAV:   3     0.531600358148E+02    0.46930E-04   -0.99395E-05  1668   0.619E-02    0.275E-02
DAV:   4     0.531600374394E+02    0.16246E-05   -0.21293E-06  1322   0.119E-02    0.207E-02
DAV:   5     0.531600376692E+02    0.22983E-06   -0.42330E-07   858   0.362E-03
   1 F= 0.53160038E+02 E0= 0.53163084E+02  d E =-.913812E-02
