 vasp.6.2.0 18Jan21 (build Mar 17 2021 09:06:54) complex                        
  
 executed on             LinuxIFC date 2021.06.11  12:20:37
 serial version


--------------------------------------------------------------------------------------------------------


 INCAR:
   ENCUT = 130.000000
   SIGMA = 0.200000
   EDIFF = 1.00e-06
   GGA = PE
   PREC = normal
   IBRION = -1
   ICHARG = 1
   ISMEAR = 1
   KPAR = 1
   NBANDS = 30
   NSW = 0
   NCORE = 1
   LCHARG = .TRUE.

 POTCAR:    PAW_PBE Pd 04Jan2005                  
 POTCAR:    PAW_PBE Ir 06Sep2000                  
 POTCAR:    PAW_PBE Pt 04Feb2005                  
 POTCAR:    PAW_PBE Cu 22Jun2005                  
 POTCAR:    PAW_PBE Pd 04Jan2005                  
   SHA256 =  dd6f6f02930356371984e2b707ff5e456046761dc76b07c1eba30abd15eb3c39 Pd/POTCAR             
   COPYR  = (c) Copyright 04Jan2005 Georg Kresse                                                    
   COPYR  = This file is part of the software VASP. Any use, copying, and all other rights are regul
   COPYR  = If you do not have a valid VASP license, you may not use, copy or distribute this file. 
   VRHFIN =Pd : s1 d9                                                                               
   LEXCH  = PE                                                                                      
   EATOM  =   809.7530 eV,   59.5152 Ry                                                             
                                                                                                    
   TITEL  = PAW_PBE Pd 04Jan2005                                                                    
   LULTRA =        F    use ultrasoft PP ?                                                          
   IUNSCR =        1    unscreen: 0-lin 1-nonlin 2-no                                               
   RPACOR =    2.000    partial core radius                                                         
   POMASS =  106.420; ZVAL   =   10.000    mass and valenz                                          
   RCORE  =    2.600    outmost cutoff radius                                                       
   RWIGS  =    2.710; RWIGS  =    1.434    wigner-seitz radius (au A)                               
   ENMAX  =  250.925; ENMIN  =  188.194 eV                                                          
   ICORE  =        3    local potential                                                             
   LCOR   =        T    correct aug charges                                                         
   LPAW   =        T    paw PP                                                                      
   EAUG   =  416.230                                                                                
   DEXC   =    0.000                                                                                
   RMAX   =    2.653    core radius for proj-oper                                                   
   RAUG   =    1.300    factor for augmentation sphere                                              
   RDEP   =    2.734    radius for radial grids                                                     
   RDEPT  =    2.103    core radius for aug-charge                                                  
                                                                                                    
   Atomic configuration                                                                             
   12 entries                                                                                       
     n  l   j            E        occ.                                                              
     1  0  0.50    -24164.6631   2.0000                                                             
     2  0  0.50     -3530.9218   2.0000                                                             
     2  1  1.50     -3165.6822   6.0000                                                             
     3  0  0.50      -639.4577   2.0000                                                             
     3  1  1.50      -519.4532   6.0000                                                             
     3  2  2.50      -328.9757  10.0000                                                             
     4  0  0.50       -88.7014   2.0000                                                             
     4  1  1.50       -54.4540   6.0000                                                             
     4  2  2.50        -6.6878   9.0000                                                             
     5  0  0.50        -4.3543   1.0000                                                             
     5  1  0.50        -1.3606   0.0000                                                             
     4  3  2.50        -1.3606   0.0000                                                             
   Description                                                                                      
     l       E           TYP  RCUT    TYP  RCUT                                                     
     2     -6.6878251     23  2.400                                                                 
     2     -8.0484077     23  2.400                                                                 
     0     -4.3542939     23  2.400                                                                 
     0      4.3406793     23  2.400                                                                 
     1     -4.0817478     23  2.600                                                                 
     1     15.8380318     23  2.600                                                                 
     3     -4.0817478     23  2.400                                                                 
  local pseudopotential read in
  partial core-charges read in
  partial kinetic energy density read in
  atomic valenz-charges read in
  non local Contribution for L=           2  read in
    real space projection operators read in
  non local Contribution for L=           2  read in
    real space projection operators read in
  non local Contribution for L=           0  read in
    real space projection operators read in
  non local Contribution for L=           0  read in
    real space projection operators read in
  non local Contribution for L=           1  read in
    real space projection operators read in
  non local Contribution for L=           1  read in
    real space projection operators read in
    PAW grid and wavefunctions read in
 
   number of l-projection  operators is LMAX  =           6
   number of lm-projection operators is LMMAX =          18
 
 POTCAR:    PAW_PBE Ir 06Sep2000                  
   SHA256 =  7c6af8d4d487b237782eb51e6f62977b27a1da78c3c96acd1cebefd6c308f120 Ir/POTCAR             
   COPYR  = (c) Copyright 06Sep2000 Georg Kresse                                                    
   COPYR  = This file is part of the software VASP. Any use, copying, and all other rights are regul
   COPYR  = If you do not have a valid VASP license, you may not use, copy or distribute this file. 
   VRHFIN =Ir: s1d8                                                                                 
   LEXCH  = PE                                                                                      
   EATOM  =   560.1833 eV,   41.1723 Ry                                                             
                                                                                                    
   TITEL  = PAW_PBE Ir 06Sep2000                                                                    
   LULTRA =        F    use ultrasoft PP ?                                                          
   IUNSCR =        1    unscreen: 0-lin 1-nonlin 2-no                                               
   RPACOR =    2.250    partial core radius                                                         
   POMASS =  192.220; ZVAL   =    9.000    mass and valenz                                          
   RCORE  =    2.600    outmost cutoff radius                                                       
   RWIGS  =    2.690; RWIGS  =    1.423    wigner-seitz radius (au A)                               
   ENMAX  =  210.864; ENMIN  =  158.148 eV                                                          
   RCLOC  =    1.857    cutoff for local pot                                                        
   LCOR   =        T    correct aug charges                                                         
   LPAW   =        T    paw PP                                                                      
   EAUG   =  318.962                                                                                
   DEXC   =    0.000                                                                                
   RMAX   =    2.667    core radius for proj-oper                                                   
   RAUG   =    1.300    factor for augmentation sphere                                              
   RDEP   =    2.748    radius for radial grids                                                     
   RDEPT  =    2.300    core radius for aug-charge                                                  
                                                                                                    
   Atomic configuration                                                                             
   16 entries                                                                                       
     n  l   j            E        occ.                                                              
     1  0  0.50    -76100.0449   2.0000                                                             
     2  0  0.50    -13308.1683   2.0000                                                             
     2  1  1.50    -11558.0021   6.0000                                                             
     3  0  0.50     -3110.7274   2.0000                                                             
     3  1  1.50     -2599.2109   6.0000                                                             
     3  2  2.50     -2037.1515  10.0000                                                             
     4  0  0.50      -661.6001   2.0000                                                             
     4  1  1.50      -493.8981   6.0000                                                             
     4  2  2.50      -288.1909  10.0000                                                             
     4  3  3.50       -59.5718  14.0000                                                             
     5  0  0.50       -95.3879   2.0000                                                             
     5  1  1.50       -52.2747   6.0000                                                             
     5  2  2.50        -5.4180   8.0000                                                             
     6  0  0.50        -5.5479   1.0000                                                             
     6  1  1.50        -6.8029   0.0000                                                             
     5  3  2.50        -1.3606   0.0000                                                             
   Description                                                                                      
     l       E           TYP  RCUT    TYP  RCUT                                                     
     2     -5.4179967     23  2.600                                                                 
     2     -6.7785793     23  2.600                                                                 
     0     -5.5478636     23  2.600                                                                 
     0      2.2542272     23  2.600                                                                 
     1     -2.7211652     23  2.600                                                                 
     1     20.4087390     23  2.600                                                                 
  local pseudopotential read in
  partial core-charges read in
  partial kinetic energy density read in
  atomic valenz-charges read in
  non local Contribution for L=           2  read in
    real space projection operators read in
  non local Contribution for L=           2  read in
    real space projection operators read in
  non local Contribution for L=           0  read in
    real space projection operators read in
  non local Contribution for L=           0  read in
    real space projection operators read in
  non local Contribution for L=           1  read in
    real space projection operators read in
  non local Contribution for L=           1  read in
    real space projection operators read in
    PAW grid and wavefunctions read in
 
   number of l-projection  operators is LMAX  =           6
   number of lm-projection operators is LMMAX =          18
 
 POTCAR:    PAW_PBE Pt 04Feb2005                  
   SHA256 =  3ed90460adef76debcff1cfb73ee1349b515b1a3db03439735b44de3a8db7dc8 Pt/POTCAR             
   COPYR  = (c) Copyright 04Feb2005 Georg Kresse                                                    
   COPYR  = This file is part of the software VASP. Any use, copying, and all other rights are regul
   COPYR  = If you do not have a valid VASP license, you may not use, copy or distribute this file. 
   VRHFIN =Pt: s1d9                                                                                 
   LEXCH  = PE                                                                                      
   EATOM  =   729.1176 eV,   53.5886 Ry                                                             
                                                                                                    
   TITEL  = PAW_PBE Pt 04Feb2005                                                                    
   LULTRA =        F    use ultrasoft PP ?                                                          
   IUNSCR =        1    unscreen: 0-lin 1-nonlin 2-no                                               
   RPACOR =    2.330    partial core radius                                                         
   POMASS =  195.080; ZVAL   =   10.000    mass and valenz                                          
   RCORE  =    2.600    outmost cutoff radius                                                       
   RWIGS  =    2.750; RWIGS  =    1.455    wigner-seitz radius (au A)                               
   ENMAX  =  230.283; ENMIN  =  172.712 eV                                                          
   ICORE  =        3    local potential                                                             
   LCOR   =        T    correct aug charges                                                         
   LPAW   =        T    paw PP                                                                      
   EAUG   =  358.966                                                                                
   DEXC   =    0.000                                                                                
   RMAX   =    2.658    core radius for proj-oper                                                   
   RAUG   =    1.300    factor for augmentation sphere                                              
   RDEP   =    2.761    radius for radial grids                                                     
   RDEPT  =    2.203    core radius for aug-charge                                                  
                                                                                                    
   Atomic configuration                                                                             
   16 entries                                                                                       
     n  l   j            E        occ.                                                              
     1  0  0.50    -78401.1885   2.0000                                                             
     2  0  0.50    -13770.7750   2.0000                                                             
     2  1  1.50    -11931.0468   6.0000                                                             
     3  0  0.50     -3234.7234   2.0000                                                             
     3  1  1.50     -2699.2216   6.0000                                                             
     3  2  2.50     -2119.5714  10.0000                                                             
     4  0  0.50      -695.1528   2.0000                                                             
     4  1  1.50      -519.6034   6.0000                                                             
     4  2  2.50      -306.6786  10.0000                                                             
     4  3  3.50       -70.1041  14.0000                                                             
     5  0  0.50      -101.7747   2.0000                                                             
     5  1  1.50       -55.9873   6.0000                                                             
     5  2  2.50        -6.1423   9.0000                                                             
     6  0  0.50        -5.6573   1.0000                                                             
     6  1  1.50        -6.8029   0.0000                                                             
     5  3  2.50        -1.3606   0.0000                                                             
   Description                                                                                      
     l       E           TYP  RCUT    TYP  RCUT                                                     
     2     -6.1423404     23  2.500                                                                 
     2     -7.5029230     23  2.500                                                                 
     0     -5.6573207     23  2.500                                                                 
     0      0.7416693     23  2.500                                                                 
     1     -2.7211652     23  2.600                                                                 
     1     20.4087390     23  2.600                                                                 
     3     -1.3605826     23  2.500                                                                 
  local pseudopotential read in
  partial core-charges read in
  partial kinetic energy density read in
  atomic valenz-charges read in
  non local Contribution for L=           2  read in
    real space projection operators read in
  non local Contribution for L=           2  read in
    real space projection operators read in
  non local Contribution for L=           0  read in
    real space projection operators read in
  non local Contribution for L=           0  read in
    real space projection operators read in
  non local Contribution for L=           1  read in
    real space projection operators read in
  non local Contribution for L=           1  read in
    real space projection operators read in
    PAW grid and wavefunctions read in
 
   number of l-projection  operators is LMAX  =           6
   number of lm-projection operators is LMMAX =          18
 
 POTCAR:    PAW_PBE Cu 22Jun2005                  
   SHA256 =  0e71e558f37a4e8407882b4609ceaae59938afaad9ced71dfe8490308a0ab630 Cu/POTCAR             
   COPYR  = (c) Copyright 22Jun2005 Georg Kresse                                                    
   COPYR  = This file is part of the software VASP. Any use, copying, and all other rights are regul
   COPYR  = If you do not have a valid VASP license, you may not use, copy or distribute this file. 
   VRHFIN =Cu: d10 p1                                                                               
   LEXCH  = PE                                                                                      
   EATOM  =  1390.9808 eV,  102.2342 Ry                                                             
                                                                                                    
   TITEL  = PAW_PBE Cu 22Jun2005                                                                    
   LULTRA =        F    use ultrasoft PP ?                                                          
   IUNSCR =        1    unscreen: 0-lin 1-nonlin 2-no                                               
   RPACOR =    2.000    partial core radius                                                         
   POMASS =   63.546; ZVAL   =   11.000    mass and valenz                                          
   RCORE  =    2.300    outmost cutoff radius                                                       
   RWIGS  =    2.200; RWIGS  =    1.164    wigner-seitz radius (au A)                               
   ENMAX  =  295.446; ENMIN  =  221.585 eV                                                          
   ICORE  =        3    local potential                                                             
   LCOR   =        T    correct aug charges                                                         
   LPAW   =        T    paw PP                                                                      
   EAUG   =  586.980                                                                                
   DEXC   =    0.000                                                                                
   RMAX   =    2.344    core radius for proj-oper                                                   
   RAUG   =    1.300    factor for augmentation sphere                                              
   RDEP   =    2.302    radius for radial grids                                                     
   RDEPT  =    1.771    core radius for aug-charge                                                  
                                                                                                    
   Atomic configuration                                                                             
    9 entries                                                                                       
     n  l   j            E        occ.                                                              
     1  0  0.50     -8850.2468   2.0000                                                             
     2  0  0.50     -1062.3498   2.0000                                                             
     2  1  1.50      -916.8226   6.0000                                                             
     3  0  0.50      -114.6929   2.0000                                                             
     3  1  1.50       -72.1325   6.0000                                                             
     3  2  2.50        -5.0394  10.0000                                                             
     4  0  0.50        -4.6097   1.0000                                                             
     4  1  0.50        -4.0817   0.0000                                                             
     4  3  2.50        -1.3606   0.0000                                                             
   Description                                                                                      
     l       E           TYP  RCUT    TYP  RCUT                                                     
     2     -5.0393973     23  2.200                                                                 
     2     10.8846608     23  2.200                                                                 
     0     -4.6097109     23  2.200                                                                 
     0      8.2520465     23  2.200                                                                 
     1     -2.7211652     23  2.200                                                                 
     1     21.7055443     23  2.200                                                                 
     3      2.7211652     23  2.300                                                                 
  local pseudopotential read in
  partial core-charges read in
  partial kinetic energy density read in
  atomic valenz-charges read in
  non local Contribution for L=           2  read in
    real space projection operators read in
  non local Contribution for L=           2  read in
    real space projection operators read in
  non local Contribution for L=           0  read in
    real space projection operators read in
  non local Contribution for L=           0  read in
    real space projection operators read in
  non local Contribution for L=           1  read in
    real space projection operators read in
  non local Contribution for L=           1  read in
    real space projection operators read in
    PAW grid and wavefunctions read in
 
   number of l-projection  operators is LMAX  =           6
   number of lm-projection operators is LMMAX =          18
 
  PAW_PBE Pd 04Jan2005                  :
 energy of atom  1       EATOM= -809.7530
 kinetic energy error for atom=   13.3157 (will be added to EATOM!!)
  PAW_PBE Ir 06Sep2000                  :
 energy of atom  2       EATOM= -560.1833
 kinetic energy error for atom=    4.4099 (will be added to EATOM!!)
  PAW_PBE Pt 04Feb2005                  :
 energy of atom  3       EATOM= -729.1176
 kinetic energy error for atom=    9.1663 (will be added to EATOM!!)
  PAW_PBE Cu 22Jun2005                  :
 energy of atom  4       EATOM=-1390.9808
 kinetic energy error for atom=   17.0685 (will be added to EATOM!!)
 
 
 POSCAR: Pd Ir Pt Cu
  positions in cartesian coordinates
  No initial velocities read in
 exchange correlation table for  LEXCH =        8
   RHO(1)=    0.500       N(1)  =     2000
   RHO(2)=  100.500       N(2)  =     4000
 


--------------------------------------------------------------------------------------------------------


 ion  position               nearest neighbor table
   1  0.000  0.000  0.000-   2 2.73   3 2.73   4 2.73   3 2.73   4 2.73   2 2.73   4 2.73   4 2.73
                             2 2.73   3 2.73   3 2.73   2 2.73
   2  0.500  0.500  0.000-   1 2.73   3 2.73   4 2.73   3 2.73   4 2.73   1 2.73   3 2.73   3 2.73
                             1 2.73   4 2.73   4 2.73   1 2.73
   3  0.500  0.000  0.500-   1 2.73   2 2.73   4 2.73   1 2.73   2 2.73   2 2.73   4 2.73   2 2.73
                             1 2.73   4 2.73   1 2.73   4 2.73
   4  0.000  0.500  0.500-   1 2.73   2 2.73   3 2.73   1 2.73   2 2.73   1 2.73   3 2.73   1 2.73
                             2 2.73   3 2.73   2 2.73   3 2.73
 
  LATTYP: Found a simple cubic cell.
 ALAT       =     3.8660000000
  
  Lattice vectors:
  
 A1 = (   3.8660000000,   0.0000000000,   0.0000000000)
 A2 = (   0.0000000000,   3.8660000000,   0.0000000000)
 A3 = (   0.0000000000,   0.0000000000,   3.8660000000)


Analysis of symmetry for initial positions (statically):
=====================================================================
 Subroutine PRICEL returns:
 Original cell was already a primitive cell.
 

 Routine SETGRP: Setting up the symmetry group for a 
 simple cubic supercell.


 Subroutine GETGRP returns: Found  8 space group operations
 (whereof  8 operations were pure point group operations)
 out of a pool of 48 trial point group operations.


The static configuration has the point symmetry D_2h.


Analysis of symmetry for dynamics (positions and initial velocities):
=====================================================================
 Subroutine PRICEL returns:
 Original cell was already a primitive cell.
 

 Routine SETGRP: Setting up the symmetry group for a 
 simple cubic supercell.


 Subroutine GETGRP returns: Found  8 space group operations
 (whereof  8 operations were pure point group operations)
 out of a pool of 48 trial point group operations.


The dynamic configuration has the point symmetry D_2h.


 Subroutine INISYM returns: Found  8 space group operations
 (whereof  8 operations are pure point group operations),
 and found     1 'primitive' translations


----------------------------------------------------------------------------------------

                                     Primitive cell                                     

  volume of cell :      57.7811

  direct lattice vectors                    reciprocal lattice vectors
     3.866000000  0.000000000  0.000000000     0.258665287  0.000000000  0.000000000
     0.000000000  3.866000000  0.000000000     0.000000000  0.258665287  0.000000000
     0.000000000  0.000000000  3.866000000     0.000000000  0.000000000  0.258665287

  length of vectors
     3.866000000  3.866000000  3.866000000     0.258665287  0.258665287  0.258665287

  position of ions in fractional coordinates (direct lattice)
     0.000000000  0.000000000  0.000000000
     0.500000000  0.500000000  0.000000000
     0.500000000  0.000000000  0.500000000
     0.000000000  0.500000000  0.500000000

  ion indices of the primitive-cell ions
   primitive index   ion index
                 1           1
                 2           2
                 3           3
                 4           4

----------------------------------------------------------------------------------------

 
 
 KPOINTS: KPOINTS created by Atomic Simulation Env

Automatic generation of k-mesh.
 Grid dimensions read from file:
 generate k-points for:    5    5    5

 Generating k-lattice:

  Cartesian coordinates                     Fractional coordinates (reciprocal lattice)
     0.051733057  0.000000000  0.000000000     0.200000000  0.000000000  0.000000000
     0.000000000  0.051733057  0.000000000     0.000000000  0.200000000  0.000000000
     0.000000000  0.000000000  0.051733057     0.000000000  0.000000000  0.200000000

  Length of vectors
     0.051733057  0.051733057  0.051733057

  Shift w.r.t. Gamma in fractional coordinates (k-lattice)
     0.000000000  0.000000000  0.000000000

 
 Subroutine IBZKPT returns following result:
 ===========================================
 
 Found     27 irreducible k-points:
 
 Following reciprocal coordinates:
            Coordinates               Weight
  0.000000  0.000000  0.000000      1.000000
  0.200000  0.000000  0.000000      2.000000
  0.000000  0.200000  0.000000      2.000000
  0.000000  0.000000  0.200000      2.000000
  0.400000  0.000000  0.000000      2.000000
  0.000000  0.400000  0.000000      2.000000
  0.000000  0.000000  0.400000      2.000000
  0.200000  0.200000  0.000000      4.000000
  0.000000  0.200000  0.200000      4.000000
  0.200000  0.000000  0.200000      4.000000
  0.400000  0.200000  0.000000      4.000000
  0.000000  0.400000  0.200000      4.000000
  0.200000  0.000000  0.400000      4.000000
 -0.200000  0.400000  0.000000      4.000000
 -0.400000  0.000000  0.200000      4.000000
  0.000000  0.200000  0.400000      4.000000
  0.400000  0.400000  0.000000      4.000000
  0.000000  0.400000  0.400000      4.000000
  0.400000  0.000000  0.400000      4.000000
  0.200000  0.200000  0.200000      8.000000
  0.400000  0.200000  0.200000      8.000000
  0.200000  0.400000  0.200000      8.000000
  0.200000  0.200000  0.400000      8.000000
  0.400000  0.400000  0.200000      8.000000
  0.200000  0.400000  0.400000      8.000000
  0.400000  0.200000  0.400000      8.000000
  0.400000  0.400000  0.400000      8.000000
 
 Following cartesian coordinates:
            Coordinates               Weight
  0.000000  0.000000  0.000000      1.000000
  0.051733  0.000000  0.000000      2.000000
  0.000000  0.051733  0.000000      2.000000
  0.000000  0.000000  0.051733      2.000000
  0.103466  0.000000  0.000000      2.000000
  0.000000  0.103466  0.000000      2.000000
  0.000000  0.000000  0.103466      2.000000
  0.051733  0.051733  0.000000      4.000000
  0.000000  0.051733  0.051733      4.000000
  0.051733  0.000000  0.051733      4.000000
  0.103466  0.051733  0.000000      4.000000
  0.000000  0.103466  0.051733      4.000000
  0.051733  0.000000  0.103466      4.000000
 -0.051733  0.103466  0.000000      4.000000
 -0.103466  0.000000  0.051733      4.000000
  0.000000  0.051733  0.103466      4.000000
  0.103466  0.103466  0.000000      4.000000
  0.000000  0.103466  0.103466      4.000000
  0.103466  0.000000  0.103466      4.000000
  0.051733  0.051733  0.051733      8.000000
  0.103466  0.051733  0.051733      8.000000
  0.051733  0.103466  0.051733      8.000000
  0.051733  0.051733  0.103466      8.000000
  0.103466  0.103466  0.051733      8.000000
  0.051733  0.103466  0.103466      8.000000
  0.103466  0.051733  0.103466      8.000000
  0.103466  0.103466  0.103466      8.000000
 


--------------------------------------------------------------------------------------------------------




 Dimension of arrays:
   k-points           NKPTS =     27   k-points in BZ     NKDIM =     27   number of bands    NBANDS=     30
   number of dos      NEDOS =    301   number of ions     NIONS =      4
   non local maximal  LDIM  =      6   non local SUM 2l+1 LMDIM =     18
   total plane-waves  NPLWV =   1728
   max r-space proj   IRMAX =      1   max aug-charges    IRDMAX=   2362
   dimension x,y,z NGX =    12 NGY =   12 NGZ =   12
   dimension x,y,z NGXF=    24 NGYF=   24 NGZF=   24
   support grid    NGXF=    24 NGYF=   24 NGZF=   24
   ions per type =               1   1   1   1
   NGX,Y,Z   is equivalent  to a cutoff of   5.16,  5.16,  5.16 a.u.
   NGXF,Y,Z  is equivalent  to a cutoff of  10.32, 10.32, 10.32 a.u.

 SYSTEM =  unknown system                          
 POSCAR =  Pd Ir Pt Cu                             

 Startparameter for this run:
   NWRITE =      2    write-flag & timer
   PREC   = normal    normal or accurate (medium, high low for compatibility)
   ISTART =      1    job   : 0-new  1-cont  2-samecut
   ICHARG =      1    charge: 1-file 2-atom 10-const
   ISPIN  =      1    spin polarized calculation?
   LNONCOLLINEAR =      F non collinear calculations
   LSORBIT =      F    spin-orbit coupling
   INIWAV =      1    electr: 0-lowe 1-rand  2-diag
   LASPH  =      F    aspherical Exc in radial PAW
   METAGGA=      F    non-selfconsistent MetaGGA calc.

 Electronic Relaxation 1
   ENCUT  =  130.0 eV   9.55 Ry    3.09 a.u.   3.59  3.59  3.59*2*pi/ulx,y,z
   ENINI  =  130.0     initial cutoff
   ENAUG  =  587.0 eV  augmentation charge cutoff
   NELM   =     60;   NELMIN=  2; NELMDL=  0     # of ELM steps 
   EDIFF  = 0.1E-05   stopping-criterion for ELM
   LREAL  =      F    real-space projection
   NLSPLINE    = F    spline interpolate recip. space projectors
   LCOMPAT=      F    compatible to vasp.4.4
   GGA_COMPAT  = T    GGA compatible to vasp.4.4-vasp.4.6
   LMAXPAW     = -100 max onsite density
   LMAXMIX     =    2 max onsite mixed and CHGCAR
   VOSKOWN=      0    Vosko Wilk Nusair interpolation
   ROPT   =    0.00000   0.00000   0.00000   0.00000
 Ionic relaxation
   EDIFFG = 0.1E-04   stopping-criterion for IOM
   NSW    =      0    number of steps for IOM
   NBLOCK =      1;   KBLOCK =      1    inner block; outer block 
   IBRION =     -1    ionic relax: 0-MD 1-quasi-New 2-CG
   NFREE  =      0    steps in history (QN), initial steepest desc. (CG)
   ISIF   =      2    stress and relaxation
   IWAVPR =      0    prediction:  0-non 1-charg 2-wave 3-comb
   ISYM   =      2    0-nonsym 1-usesym 2-fastsym
   LCORR  =      T    Harris-Foulkes like correction to forces

   POTIM  = 0.5000    time-step for ionic-motion
   TEIN   =    0.0    initial temperature
   TEBEG  =    0.0;   TEEND  =   0.0 temperature during run
   SMASS  =  -3.00    Nose mass-parameter (am)
   estimated Nose-frequenzy (Omega)   =  0.10E-29 period in steps = 0.13E+47 mass=  -0.342E-27a.u.
   SCALEE = 1.0000    scale energy and forces
   NPACO  =    256;   APACO  = 16.0  distance and # of slots for P.C.
   PSTRESS=    0.0 pullay stress

  Mass of Ions in am
   POMASS = 106.42192.22195.08 63.55
  Ionic Valenz
   ZVAL   =  10.00  9.00 10.00 11.00
  Atomic Wigner-Seitz radii
   RWIGS  =  -1.00 -1.00 -1.00 -1.00
  virtual crystal weights 
   VCA    =   1.00  1.00  1.00  1.00
   NELECT =      40.0000    total number of electrons
   NUPDOWN=      -1.0000    fix difference up-down

 DOS related values:
   EMIN   =  10.00;   EMAX   =-10.00  energy-range for DOS
   EFERMI =   0.00
   ISMEAR =     1;   SIGMA  =   0.20  broadening in eV -4-tet -1-fermi 0-gaus

 Electronic relaxation 2 (details)
   IALGO  =     38    algorithm
   LDIAG  =      T    sub-space diagonalisation (order eigenvalues)
   LSUBROT=      F    optimize rotation matrix (better conditioning)
   TURBO    =      0    0=normal 1=particle mesh
   IRESTART =      0    0=no restart 2=restart with 2 vectors
   NREBOOT  =      0    no. of reboots
   NMIN     =      0    reboot dimension
   EREF     =   0.00    reference energy to select bands
   IMIX   =      4    mixing-type and parameters
     AMIX     =   0.40;   BMIX     =  1.00
     AMIX_MAG =   1.60;   BMIX_MAG =  1.00
     AMIN     =   0.10
     WC   =   100.;   INIMIX=   1;  MIXPRE=   1;  MAXMIX= -45

 Intra band minimization:
   WEIMIN = 0.0000     energy-eigenvalue tresh-hold
   EBREAK =  0.83E-08  absolut break condition
   DEPER  =   0.30     relativ break condition  

   TIME   =   0.40     timestep for ELM

  volume/ion in A,a.u.               =      14.45        97.48
  Fermi-wavevector in a.u.,A,eV,Ry     =   1.448215  2.736729 28.535854  2.097326
  Thomas-Fermi vector in A             =   2.566081
 
 Write flags
   LWAVE        =      T    write WAVECAR
   LDOWNSAMPLE  =      F    k-point downsampling of WAVECAR
   LCHARG       =      T    write CHGCAR
   LVTOT        =      F    write LOCPOT, total local potential
   LVHAR        =      F    write LOCPOT, Hartree potential only
   LELF         =      F    write electronic localiz. function (ELF)
   LORBIT       =      0    0 simple, 1 ext, 2 COOP (PROOUT), +10 PAW based schemes


 Dipole corrections
   LMONO  =      F    monopole corrections only (constant potential shift)
   LDIPOL =      F    correct potential (dipole corrections)
   IDIPOL =      0    1-x, 2-y, 3-z, 4-all directions 
   EPSILON=  1.0000000 bulk dielectric constant

 Exchange correlation treatment:
   GGA     =    PE    GGA type
   LEXCH   =     8    internal setting for exchange type
   VOSKOWN=      0    Vosko Wilk Nusair interpolation
   LHFCALC =     F    Hartree Fock is set to
   LHFONE  =     F    Hartree Fock one center treatment
   AEXX    =    0.0000 exact exchange contribution

 Linear response parameters
   LEPSILON=     F    determine dielectric tensor
   LRPA    =     F    only Hartree local field effects (RPA)
   LNABLA  =     F    use nabla operator in PAW spheres
   LVEL    =     F    velocity operator in full k-point grid
   LINTERFAST=   F  fast interpolation
   KINTER  =     0    interpolate to denser k-point grid
   CSHIFT  =0.1000    complex shift for real part using Kramers Kronig
   OMEGAMAX=  -1.0    maximum frequency
   DEG_THRESHOLD= 0.2000000E-02 threshold for treating states as degnerate
   RTIME   =   -0.100 relaxation time in fs
  (WPLASMAI=    0.000 imaginary part of plasma frequency in eV, 0.658/RTIME)
   DFIELD  = 0.0000000 0.0000000 0.0000000 field for delta impulse in time
 
 Orbital magnetization related:
   ORBITALMAG=     F  switch on orbital magnetization
   LCHIMAG   =     F  perturbation theory with respect to B field
   DQ        =  0.001000  dq finite difference perturbation B field
   LLRAUG    =     F  two centre corrections for induced B field



--------------------------------------------------------------------------------------------------------


 Static calculation
 charge density and potential will be updated during run
 non-spin polarized calculation
 Variant of blocked Davidson
 Davidson routine will perform the subspace rotation
 perform sub-space diagonalisation
    after iterative eigenvector-optimisation
 modified Broyden-mixing scheme, WC =      100.0
 initial mixing is a Kerker type mixing with AMIX =  0.4000 and BMIX =      1.0000
 Hartree-type preconditioning will be used
 using additional bands           10
 reciprocal scheme for non local part
 use partial core corrections
 calculate Harris-corrections to forces 
   (improved forces if not selfconsistent)
 use gradient corrections 
 use of overlap-Matrix (Vanderbilt PP)
 Methfessel and Paxton  Order N= 1 SIGMA  =   0.20


--------------------------------------------------------------------------------------------------------


  energy-cutoff  :      130.00
  volume of cell :       57.78
      direct lattice vectors                 reciprocal lattice vectors
     3.866000000  0.000000000  0.000000000     0.258665287  0.000000000  0.000000000
     0.000000000  3.866000000  0.000000000     0.000000000  0.258665287  0.000000000
     0.000000000  0.000000000  3.866000000     0.000000000  0.000000000  0.258665287

  length of vectors
     3.866000000  3.866000000  3.866000000     0.258665287  0.258665287  0.258665287


 
 old parameters found on file WAVECAR:
  energy-cutoff  :      130.00
  volume of cell :       57.78
      direct lattice vectors                 reciprocal lattice vectors
     3.866000000  0.000000000  0.000000000     0.258665287  0.000000000  0.000000000
     0.000000000  3.866000000  0.000000000     0.000000000  0.258665287  0.000000000
     0.000000000  0.000000000  3.866000000     0.000000000  0.000000000  0.258665287

  length of vectors

 
 k-points in units of 2pi/SCALE and weight: KPOINTS created by Atomic Simulation Env
   0.00000000  0.00000000  0.00000000       0.008
   0.05173306  0.00000000  0.00000000       0.016
   0.00000000  0.05173306  0.00000000       0.016
   0.00000000  0.00000000  0.05173306       0.016
   0.10346611  0.00000000  0.00000000       0.016
   0.00000000  0.10346611  0.00000000       0.016
   0.00000000  0.00000000  0.10346611       0.016
   0.05173306  0.05173306  0.00000000       0.032
   0.00000000  0.05173306  0.05173306       0.032
   0.05173306  0.00000000  0.05173306       0.032
   0.10346611  0.05173306  0.00000000       0.032
   0.00000000  0.10346611  0.05173306       0.032
   0.05173306  0.00000000  0.10346611       0.032
  -0.05173306  0.10346611  0.00000000       0.032
  -0.10346611  0.00000000  0.05173306       0.032
   0.00000000  0.05173306  0.10346611       0.032
   0.10346611  0.10346611  0.00000000       0.032
   0.00000000  0.10346611  0.10346611       0.032
   0.10346611  0.00000000  0.10346611       0.032
   0.05173306  0.05173306  0.05173306       0.064
   0.10346611  0.05173306  0.05173306       0.064
   0.05173306  0.10346611  0.05173306       0.064
   0.05173306  0.05173306  0.10346611       0.064
   0.10346611  0.10346611  0.05173306       0.064
   0.05173306  0.10346611  0.10346611       0.064
   0.10346611  0.05173306  0.10346611       0.064
   0.10346611  0.10346611  0.10346611       0.064
 
 k-points in reciprocal lattice and weights: KPOINTS created by Atomic Simulation Env
   0.00000000  0.00000000  0.00000000       0.008
   0.20000000  0.00000000  0.00000000       0.016
   0.00000000  0.20000000  0.00000000       0.016
   0.00000000  0.00000000  0.20000000       0.016
   0.40000000  0.00000000  0.00000000       0.016
   0.00000000  0.40000000  0.00000000       0.016
   0.00000000  0.00000000  0.40000000       0.016
   0.20000000  0.20000000  0.00000000       0.032
   0.00000000  0.20000000  0.20000000       0.032
   0.20000000  0.00000000  0.20000000       0.032
   0.40000000  0.20000000  0.00000000       0.032
   0.00000000  0.40000000  0.20000000       0.032
   0.20000000  0.00000000  0.40000000       0.032
  -0.20000000  0.40000000  0.00000000       0.032
  -0.40000000  0.00000000  0.20000000       0.032
   0.00000000  0.20000000  0.40000000       0.032
   0.40000000  0.40000000  0.00000000       0.032
   0.00000000  0.40000000  0.40000000       0.032
   0.40000000  0.00000000  0.40000000       0.032
   0.20000000  0.20000000  0.20000000       0.064
   0.40000000  0.20000000  0.20000000       0.064
   0.20000000  0.40000000  0.20000000       0.064
   0.20000000  0.20000000  0.40000000       0.064
   0.40000000  0.40000000  0.20000000       0.064
   0.20000000  0.40000000  0.40000000       0.064
   0.40000000  0.20000000  0.40000000       0.064
   0.40000000  0.40000000  0.40000000       0.064
 
 position of ions in fractional coordinates (direct lattice) 
   0.00000000  0.00000000  0.00000000
   0.50000000  0.50000000  0.00000000
   0.50000000  0.00000000  0.50000000
   0.00000000  0.50000000  0.50000000
 
 position of ions in cartesian coordinates  (Angst):
   0.00000000  0.00000000  0.00000000
   1.93300000  1.93300000  0.00000000
   1.93300000  0.00000000  1.93300000
   0.00000000  1.93300000  1.93300000
 


--------------------------------------------------------------------------------------------------------


 k-point   1 :   0.0000 0.0000 0.0000  plane waves:     179
 k-point   2 :   0.2000 0.0000 0.0000  plane waves:     195
 k-point   3 :   0.0000 0.2000 0.0000  plane waves:     195
 k-point   4 :   0.0000 0.0000 0.2000  plane waves:     195
 k-point   5 :   0.4000 0.0000 0.0000  plane waves:     195
 k-point   6 :   0.0000 0.4000 0.0000  plane waves:     195
 k-point   7 :   0.0000 0.0000 0.4000  plane waves:     195
 k-point   8 :   0.2000 0.2000 0.0000  plane waves:     201
 k-point   9 :   0.0000 0.2000 0.2000  plane waves:     201
 k-point  10 :   0.2000 0.0000 0.2000  plane waves:     201
 k-point  11 :   0.4000 0.2000 0.0000  plane waves:     196
 k-point  12 :   0.0000 0.4000 0.2000  plane waves:     196
 k-point  13 :   0.2000 0.0000 0.4000  plane waves:     196
 k-point  14 :  -0.2000 0.4000 0.0000  plane waves:     196
 k-point  15 :  -0.4000 0.0000 0.2000  plane waves:     196
 k-point  16 :   0.0000 0.2000 0.4000  plane waves:     196
 k-point  17 :   0.4000 0.4000 0.0000  plane waves:     193
 k-point  18 :   0.0000 0.4000 0.4000  plane waves:     193
 k-point  19 :   0.4000 0.0000 0.4000  plane waves:     193
 k-point  20 :   0.2000 0.2000 0.2000  plane waves:     196
 k-point  21 :   0.4000 0.2000 0.2000  plane waves:     193
 k-point  22 :   0.2000 0.4000 0.2000  plane waves:     193
 k-point  23 :   0.2000 0.2000 0.4000  plane waves:     193
 k-point  24 :   0.4000 0.4000 0.2000  plane waves:     189
 k-point  25 :   0.2000 0.4000 0.4000  plane waves:     189
 k-point  26 :   0.4000 0.2000 0.4000  plane waves:     189
 k-point  27 :   0.4000 0.4000 0.4000  plane waves:     190

 maximum number of plane-waves:       201
 maximum index in each direction: 
   IXMAX=    3   IYMAX=    3   IZMAX=    3
   IXMIN=   -3   IYMIN=   -3   IZMIN=   -3


 total amount of memory used by VASP MPI-rank0    37869. kBytes
=======================================================================

   base      :      30000. kBytes
   nonl-proj :       3138. kBytes
   grid      :       1131. kBytes
   one-center:         62. kBytes
   wavefun   :       3538. kBytes
 
     INWAV:  cpu time    0.0038: real time    0.0038
 Broyden mixing: mesh for mixing (old mesh)
   NGX =  7   NGY =  7   NGZ =  7
  (NGX  = 24   NGY  = 24   NGZ  = 24)
  gives a total of    343 points

 initial charge density was supplied:
 number of electron      39.9998848 magnetization 
 keeping initial charge density in first step


--------------------------------------------------------------------------------------------------------


 Maximum index for augmentation-charges         2103 (set IRDMAX)


--------------------------------------------------------------------------------------------------------


 First call to EWALD:  gamma=   0.458
 Maximum number of real-space cells 3x 3x 3
 Maximum number of reciprocal cells 3x 3x 3

    FEWALD:  cpu time    0.0009: real time    0.0009


--------------------------------------- Iteration      1(   1)  ---------------------------------------


    POTLOK:  cpu time    0.0036: real time    0.0036
    SETDIJ:  cpu time    0.0037: real time    0.0037
     EDDAV:  cpu time    0.1817: real time    0.1831
       DOS:  cpu time    0.0025: real time    0.0025
    CHARGE:  cpu time    0.0105: real time    0.0105
    MIXING:  cpu time    0.0001: real time    0.0001
    --------------------------------------------
      LOOP:  cpu time    0.2020: real time    0.2035

 eigenvalue-minimisations  :  1784
 total energy-change (2. order) : 0.5314148E+02  (-0.2578660E-03)
 number of electron      39.9998849 magnetization 
 augmentation part       14.2694525 magnetization 

 Broyden mixing:
  rms(total) = 0.60286E-02    rms(broyden)= 0.48493E-02
  rms(prec ) = 0.80808E-02
  weight for this iteration     100.00
  WARNING: grid for Broyden might be to small

 Free energy of the ion-electron system (eV)
  ---------------------------------------------------
  alpha Z        PSCENC =       244.65455147
  Ewald energy   TEWEN  =     -3423.86860972
  -Hartree energ DENC   =      -475.71308149
  -exchange      EXHF   =         0.00000000
  -V(xc)+E(xc)   XCENC  =        -2.90426541
  PAW double counting   =      7190.83375685    -7137.89328145
  entropy T*S    EENTRO =        -0.00738750
  eigenvalues    EBANDS =       211.96554497
  atomic energy  EATOM  =      3446.07425524
  Solvation  Ediel_sol  =         0.00000000
  ---------------------------------------------------
  free energy    TOTEN  =        53.14148294 eV

  energy without entropy =       53.14887045  energy(sigma->0) =       53.14394544


--------------------------------------------------------------------------------------------------------




--------------------------------------- Iteration      1(   2)  ---------------------------------------


    POTLOK:  cpu time    0.0035: real time    0.0035
    SETDIJ:  cpu time    0.0036: real time    0.0036
     EDDAV:  cpu time    0.1449: real time    0.1449
       DOS:  cpu time    0.0022: real time    0.0022
    CHARGE:  cpu time    0.0103: real time    0.0103
    MIXING:  cpu time    0.0002: real time    0.0002
    --------------------------------------------
      LOOP:  cpu time    0.1647: real time    0.1647

 eigenvalue-minimisations  :  1790
 total energy-change (2. order) : 0.1850594E-01  (-0.2966181E-03)
 number of electron      39.9998848 magnetization 
 augmentation part       14.2717130 magnetization 

 Broyden mixing:
  rms(total) = 0.57828E-02    rms(broyden)= 0.48901E-02
  rms(prec ) = 0.11610E-01
  weight for this iteration     100.00
  WARNING: grid for Broyden might be to small

 eigenvalues of (default mixing * dielectric matrix)
  average eigenvalue GAMMA=   0.5037
  0.5037

 Free energy of the ion-electron system (eV)
  ---------------------------------------------------
  alpha Z        PSCENC =       244.65455147
  Ewald energy   TEWEN  =     -3423.86860972
  -Hartree energ DENC   =      -475.69654225
  -exchange      EXHF   =         0.00000000
  -V(xc)+E(xc)   XCENC  =        -2.90311649
  PAW double counting   =      7190.82723291    -7137.91108479
  entropy T*S    EENTRO =        -0.00924778
  eigenvalues    EBANDS =       211.99255029
  atomic energy  EATOM  =      3446.07425524
  Solvation  Ediel_sol  =         0.00000000
  ---------------------------------------------------
  free energy    TOTEN  =        53.15998889 eV

  energy without entropy =       53.16923666  energy(sigma->0) =       53.16307148


--------------------------------------------------------------------------------------------------------




--------------------------------------- Iteration      1(   3)  ---------------------------------------


    POTLOK:  cpu time    0.0034: real time    0.0034
    SETDIJ:  cpu time    0.0035: real time    0.0035
     EDDAV:  cpu time    0.1368: real time    0.1369
       DOS:  cpu time    0.0023: real time    0.0023
    CHARGE:  cpu time    0.0104: real time    0.0104
    MIXING:  cpu time    0.0002: real time    0.0002
    --------------------------------------------
      LOOP:  cpu time    0.1566: real time    0.1566

 eigenvalue-minimisations  :  1668
 total energy-change (2. order) : 0.4692972E-04  (-0.9939479E-05)
 number of electron      39.9998848 magnetization 
 augmentation part       14.2712985 magnetization 

 Broyden mixing:
  rms(total) = 0.27477E-02    rms(broyden)= 0.27117E-02
  rms(prec ) = 0.42198E-02
  weight for this iteration     100.00

 eigenvalues of (default mixing * dielectric matrix)
  average eigenvalue GAMMA=   0.4831
  0.4831  0.4831

 Free energy of the ion-electron system (eV)
  ---------------------------------------------------
  alpha Z        PSCENC =       244.65455147
  Ewald energy   TEWEN  =     -3423.86860972
  -Hartree energ DENC   =      -475.70839327
  -exchange      EXHF   =         0.00000000
  -V(xc)+E(xc)   XCENC  =        -2.90397112
  PAW double counting   =      7191.03503995    -7138.11384598
  entropy T*S    EENTRO =        -0.00913705
  eigenvalues    EBANDS =       212.00014631
  atomic energy  EATOM  =      3446.07425524
  Solvation  Ediel_sol  =         0.00000000
  ---------------------------------------------------
  free energy    TOTEN  =        53.16003581 eV

  energy without entropy =       53.16917286  energy(sigma->0) =       53.16308150


--------------------------------------------------------------------------------------------------------




--------------------------------------- Iteration      1(   4)  ---------------------------------------


    POTLOK:  cpu time    0.0034: real time    0.0034
    SETDIJ:  cpu time    0.0036: real time    0.0036
     EDDAV:  cpu time    0.1184: real time    0.1185
       DOS:  cpu time    0.0024: real time    0.0024
    CHARGE:  cpu time    0.0103: real time    0.0103
    MIXING:  cpu time    0.0002: real time    0.0002
    --------------------------------------------
      LOOP:  cpu time    0.1381: real time    0.1382

 eigenvalue-minimisations  :  1322
 total energy-change (2. order) : 0.1624612E-05  (-0.2129272E-06)
 number of electron      39.9998848 magnetization 
 augmentation part       14.2712509 magnetization 

 Broyden mixing:
  rms(total) = 0.20652E-02    rms(broyden)= 0.20631E-02
  rms(prec ) = 0.35342E-02
  weight for this iteration     100.00

 eigenvalues of (default mixing * dielectric matrix)
  average eigenvalue GAMMA=   0.5235
  0.5973  0.5973  0.3758

 Free energy of the ion-electron system (eV)
  ---------------------------------------------------
  alpha Z        PSCENC =       244.65455147
  Ewald energy   TEWEN  =     -3423.86860972
  -Hartree energ DENC   =      -475.70651954
  -exchange      EXHF   =         0.00000000
  -V(xc)+E(xc)   XCENC  =        -2.90428961
  PAW double counting   =      7190.96794774    -7138.04458109
  entropy T*S    EENTRO =        -0.00914903
  eigenvalues    EBANDS =       211.99643198
  atomic energy  EATOM  =      3446.07425524
  Solvation  Ediel_sol  =         0.00000000
  ---------------------------------------------------
  free energy    TOTEN  =        53.16003744 eV

  energy without entropy =       53.16918647  energy(sigma->0) =       53.16308712


--------------------------------------------------------------------------------------------------------




--------------------------------------- Iteration      1(   5)  ---------------------------------------


    POTLOK:  cpu time    0.0034: real time    0.0034
    SETDIJ:  cpu time    0.0035: real time    0.0035
     EDDAV:  cpu time    0.1086: real time    0.1086
       DOS:  cpu time    0.0024: real time    0.0024
    --------------------------------------------
      LOOP:  cpu time    0.1178: real time    0.1179

 eigenvalue-minimisations  :   858
 total energy-change (2. order) : 0.2298289E-06  (-0.4233024E-07)
 number of electron      39.9998848 magnetization 
 augmentation part       14.2712509 magnetization 

 Free energy of the ion-electron system (eV)
  ---------------------------------------------------
  alpha Z        PSCENC =       244.65455147
  Ewald energy   TEWEN  =     -3423.86860972
  -Hartree energ DENC   =      -475.70938683
  -exchange      EXHF   =         0.00000000
  -V(xc)+E(xc)   XCENC  =        -2.90423989
  PAW double counting   =      7190.94245280    -7138.01892944
  entropy T*S    EENTRO =        -0.00913812
  eigenvalues    EBANDS =       211.99908217
  atomic energy  EATOM  =      3446.07425524
  Solvation  Ediel_sol  =         0.00000000
  ---------------------------------------------------
  free energy    TOTEN  =        53.16003767 eV

  energy without entropy =       53.16917579  energy(sigma->0) =       53.16308371


--------------------------------------------------------------------------------------------------------




 average (electrostatic) potential at core
  the test charge radii are     1.1199  1.2793  1.2059  0.9430
  (the norm of the test charge is              1.0000)
       1 -77.0046       2 -50.9887       3 -68.2591       4 -75.6163
 
 
 
 E-fermi :   9.7585     XC(G=0): -13.2375     alpha+bet :-15.1862

 Fermi energy:         9.7584958786

 k-point     1 :       0.0000    0.0000    0.0000
  band No.  band energies     occupation 
      1       0.1213      2.00000
      2       2.5430      2.00000
      3       2.6608      2.00000
      4       3.0442      2.00000
      5       3.1323      2.00000
      6       3.5879      2.00000
      7       3.5976      2.00000
      8       3.9771      2.00000
      9       4.1937      2.00000
     10       4.2640      2.00000
     11       4.7021      2.00000
     12       4.8988      2.00000
     13       9.6985      1.48322
     14      10.5095     -0.00000
     15      10.8040     -0.00000
     16      11.2575     -0.00000
     17      11.2946     -0.00000
     18      11.3018     -0.00000
     19      12.7761     -0.00000
     20      13.8882     -0.00000
     21      14.1996     -0.00000
     22      14.8516     -0.00000
     23      15.8167      0.00000
     24      16.0484      0.00000
     25      16.8149      0.00000
     26      17.8927      0.00000
     27      19.5113      0.00000
     28      19.9244      0.00000
     29      20.1320      0.00000
     30      20.4692      0.00000

 k-point     2 :       0.2000    0.0000    0.0000
  band No.  band energies     occupation 
      1       0.5824      2.00000
      2       1.4687      2.00000
      3       1.7825      2.00000
      4       2.3323      2.00000
      5       2.5291      2.00000
      6       2.9214      2.00000
      7       3.1863      2.00000
      8       3.1936      2.00000
      9       3.5974      2.00000
     10       3.6870      2.00000
     11       4.1046      2.00000
     12       4.5001      2.00000
     13       6.7418      2.00000
     14       7.2355      2.00000
     15       7.6406      2.00000
     16       8.9480      2.00000
     17       9.4348      2.04442
     18      10.3352     -0.00035
     19      10.4892     -0.00000
     20      10.7538     -0.00000
     21      12.9587     -0.00000
     22      13.0771     -0.00000
     23      13.8842     -0.00000
     24      14.4964     -0.00000
     25      16.7128      0.00000
     26      17.7062      0.00000
     27      19.7862      0.00000
     28      20.1941      0.00000
     29      20.2575      0.00000
     30      21.1169      0.00000

 k-point     3 :       0.0000    0.2000    0.0000
  band No.  band energies     occupation 
      1       0.6217      2.00000
      2       1.1282      2.00000
      3       1.2877      2.00000
      4       2.6504      2.00000
      5       2.8169      2.00000
      6       2.9963      2.00000
      7       3.0731      2.00000
      8       3.4728      2.00000
      9       3.6350      2.00000
     10       3.7437      2.00000
     11       4.1381      2.00000
     12       4.8078      2.00000
     13       7.0920      2.00000
     14       7.3593      2.00000
     15       8.1164      2.00000
     16       8.6115      2.00000
     17       9.6625      1.71761
     18       9.8421      0.35657
     19      10.3130     -0.00063
     20      10.4833     -0.00000
     21      12.4721     -0.00000
     22      13.1585     -0.00000
     23      13.3961     -0.00000
     24      14.6620     -0.00000
     25      16.2209      0.00000
     26      18.2684      0.00000
     27      20.0733      0.00000
     28      20.1106      0.00000
     29      20.1614      0.00000
     30      21.3332      0.00000

 k-point     4 :       0.0000    0.0000    0.2000
  band No.  band energies     occupation 
      1       0.6210      2.00000
      2       1.2288      2.00000
      3       1.6826      2.00000
      4       2.4836      2.00000
      5       2.8125      2.00000
      6       3.0822      2.00000
      7       3.1627      2.00000
      8       3.2044      2.00000
      9       3.6034      2.00000
     10       3.7876      2.00000
     11       3.9095      2.00000
     12       4.6378      2.00000
     13       6.7853      2.00000
     14       7.5313      2.00000
     15       7.7194      2.00000
     16       9.2016      2.00059
     17       9.3041      2.00604
     18      10.0676     -0.05119
     19      10.2684     -0.00185
     20      10.6977     -0.00000
     21      13.0311     -0.00000
     22      13.3976     -0.00000
     23      13.4249     -0.00000
     24      13.7623     -0.00000
     25      15.8617      0.00000
     26      18.6027      0.00000
     27      20.1133      0.00000
     28      20.2233      0.00000
     29      20.2238      0.00000
     30      21.2750      0.00000

 k-point     5 :       0.4000    0.0000    0.0000
  band No.  band energies     occupation 
      1       1.5100      2.00000
      2       1.7480      2.00000
      3       2.2919      2.00000
      4       2.3224      2.00000
      5       2.3570      2.00000
      6       3.1929      2.00000
      7       3.6459      2.00000
      8       3.6903      2.00000
      9       4.4732      2.00000
     10       4.5666      2.00000
     11       4.6518      2.00000
     12       5.3035      2.00000
     13       5.5552      2.00000
     14       5.7371      2.00000
     15       7.0972      2.00000
     16       7.1560      2.00000
     17       7.8929      2.00000
     18       8.0399      2.00000
     19       8.6408      2.00000
     20       8.8661      2.00000
     21      13.9035     -0.00000
     22      14.0214     -0.00000
     23      15.3743      0.00000
     24      15.4666      0.00000
     25      15.7512      0.00000
     26      17.8938      0.00000
     27      18.1754      0.00000
     28      18.3214      0.00000
     29      19.0610      0.00000
     30      21.7206      0.00000

 k-point     6 :       0.0000    0.4000    0.0000
  band No.  band energies     occupation 
      1       1.6453      2.00000
      2       2.0015      2.00000
      3       2.2911      2.00000
      4       2.2994      2.00000
      5       3.0129      2.00000
      6       3.0540      2.00000
      7       3.4002      2.00000
      8       4.1446      2.00000
      9       4.3092      2.00000
     10       4.3294      2.00000
     11       5.3672      2.00000
     12       5.7762      2.00000
     13       6.2976      2.00000
     14       6.4747      2.00000
     15       6.7780      2.00000
     16       6.9566      2.00000
     17       7.1712      2.00000
     18       7.2933      2.00000
     19       8.0145      2.00000
     20       8.5327      2.00000
     21      12.4260     -0.00000
     22      14.1907     -0.00000
     23      15.4448      0.00000
     24      15.5618      0.00000
     25      15.6149      0.00000
     26      18.0505      0.00000
     27      18.2101      0.00000
     28      18.2176      0.00000
     29      20.3657      0.00000
     30      20.8971      0.00000

 k-point     7 :       0.0000    0.0000    0.4000
  band No.  band energies     occupation 
      1       1.5545      2.00000
      2       2.0013      2.00000
      3       2.2915      2.00000
      4       2.3487      2.00000
      5       2.8426      2.00000
      6       3.0722      2.00000
      7       3.6105      2.00000
      8       3.7575      2.00000
      9       4.4065      2.00000
     10       4.5179      2.00000
     11       4.9840      2.00000
     12       5.3707      2.00000
     13       5.7324      2.00000
     14       6.0621      2.00000
     15       6.9456      2.00000
     16       7.3308      2.00000
     17       7.4932      2.00000
     18       7.7344      2.00000
     19       7.9665      2.00000
     20       8.7594      2.00000
     21      13.0846     -0.00000
     22      13.5565     -0.00000
     23      14.9199     -0.00000
     24      15.5378      0.00000
     25      15.6802      0.00000
     26      18.0125      0.00000
     27      18.3374      0.00000
     28      18.8275      0.00000
     29      19.9826      0.00000
     30      21.1955      0.00000

 k-point     8 :       0.2000    0.2000    0.0000
  band No.  band energies     occupation 
      1       1.0461      2.00000
      2       1.3451      2.00000
      3       1.5519      2.00000
      4       2.1425      2.00000
      5       2.3899      2.00000
      6       2.6510      2.00000
      7       2.9248      2.00000
      8       3.4045      2.00000
      9       3.8895      2.00000
     10       3.9014      2.00000
     11       3.9729      2.00000
     12       4.5931      2.00000
     13       6.6085      2.00000
     14       6.6292      2.00000
     15       7.3722      2.00000
     16       7.7780      2.00000
     17       8.6251      2.00000
     18       8.7599      2.00000
     19       8.9578      2.00000
     20       9.4332      2.04367
     21      10.4082     -0.00004
     22      10.5628     -0.00000
     23      12.2922     -0.00000
     24      14.4900     -0.00000
     25      16.1910      0.00000
     26      18.4973      0.00000
     27      19.3799      0.00000
     28      19.9112      0.00000
     29      21.0195      0.00000
     30      21.4373      0.00000

 k-point     9 :       0.0000    0.2000    0.2000
  band No.  band energies     occupation 
      1       1.0463      2.00000
      2       1.4143      2.00000
      3       1.5391      2.00000
      4       2.1489      2.00000
      5       2.1994      2.00000
      6       2.7551      2.00000
      7       2.9574      2.00000
      8       3.4504      2.00000
      9       3.8290      2.00000
     10       3.8848      2.00000
     11       4.0868      2.00000
     12       4.6501      2.00000
     13       6.6036      2.00000
     14       6.7430      2.00000
     15       7.5852      2.00000
     16       7.7372      2.00000
     17       8.3021      2.00000
     18       8.3367      2.00000
     19       8.8803      2.00000
     20       9.4657      2.05846
     21      10.4728     -0.00001
     22      10.5396     -0.00000
     23      12.8248     -0.00000
     24      14.3175     -0.00000
     25      15.9478      0.00000
     26      18.5245      0.00000
     27      18.9165      0.00000
     28      20.7206      0.00000
     29      21.0878      0.00000
     30      21.3736      0.00000

 k-point    10 :       0.2000    0.0000    0.2000
  band No.  band energies     occupation 
      1       1.0449      2.00000
      2       1.2864      2.00000
      3       1.6141      2.00000
      4       2.1416      2.00000
      5       2.3728      2.00000
      6       2.6799      2.00000
      7       2.9244      2.00000
      8       3.5825      2.00000
      9       3.7540      2.00000
     10       3.9173      2.00000
     11       4.1050      2.00000
     12       4.4256      2.00000
     13       6.2212      2.00000
     14       6.7634      2.00000
     15       7.2628      2.00000
     16       7.5776      2.00000
     17       8.8172      2.00000
     18       8.9623      2.00000
     19       9.2404      2.00153
     20       9.3747      2.02058
     21      10.7147     -0.00000
     22      10.7270     -0.00000
     23      11.7323     -0.00000
     24      14.5083     -0.00000
     25      16.0878      0.00000
     26      18.4890      0.00000
     27      19.2468      0.00000
     28      20.1540      0.00000
     29      21.1722      0.00000
     30      21.5642      0.00000

 k-point    11 :       0.4000    0.2000    0.0000
  band No.  band energies     occupation 
      1       1.9921      2.00000
      2       2.0558      2.00000
      3       2.2088      2.00000
      4       3.1337      2.00000
      5       3.1436      2.00000
      6       3.5054      2.00000
      7       3.8625      2.00000
      8       4.1070      2.00000
      9       4.4985      2.00000
     10       4.7060      2.00000
     11       4.7767      2.00000
     12       5.4777      2.00000
     13       5.6971      2.00000
     14       5.8581      2.00000
     15       6.7128      2.00000
     16       6.8439      2.00000
     17       7.3447      2.00000
     18       8.4860      2.00000
     19       8.5892      2.00000
     20       9.1807      2.00034
     21       9.5511      2.05710
     22      10.2003     -0.00768
     23      12.7806     -0.00000
     24      14.5432     -0.00000
     25      16.7351      0.00000
     26      17.2017      0.00000
     27      19.3443      0.00000
     28      19.6472      0.00000
     29      21.6211      0.00000
     30      22.8951      0.00000

 k-point    12 :       0.0000    0.4000    0.2000
  band No.  band energies     occupation 
      1       2.0426      2.00000
      2       2.2179      2.00000
      3       2.3344      2.00000
      4       3.1697      2.00000
      5       3.3518      2.00000
      6       3.3975      2.00000
      7       3.6226      2.00000
      8       3.7740      2.00000
      9       4.2697      2.00000
     10       4.4446      2.00000
     11       5.0936      2.00000
     12       5.4946      2.00000
     13       6.0580      2.00000
     14       6.1581      2.00000
     15       7.1315      2.00000
     16       7.3261      2.00000
     17       7.4320      2.00000
     18       8.1749      2.00000
     19       8.3693      2.00000
     20       8.7127      2.00000
     21       9.2811      2.00378
     22       9.3729      2.02004
     23      13.1554     -0.00000
     24      14.6133     -0.00000
     25      16.4846      0.00000
     26      17.6096      0.00000
     27      19.0964      0.00000
     28      19.3045      0.00000
     29      21.4617      0.00000
     30      23.4311      0.00000

 k-point    13 :       0.2000    0.0000    0.4000
  band No.  band energies     occupation 
      1       1.9903      2.00000
      2       2.0684      2.00000
      3       2.3786      2.00000
      4       3.0818      2.00000
      5       3.1858      2.00000
      6       3.5070      2.00000
      7       3.7064      2.00000
      8       4.0015      2.00000
      9       4.5191      2.00000
     10       4.8049      2.00000
     11       4.8700      2.00000
     12       5.5445      2.00000
     13       5.6756      2.00000
     14       5.7222      2.00000
     15       6.9112      2.00000
     16       7.3526      2.00000
     17       7.4540      2.00000
     18       8.1826      2.00000
     19       8.5926      2.00000
     20       8.8244      2.00000
     21       9.2403      2.00153
     22       9.7867      0.76393
     23      12.8723     -0.00000
     24      14.5690     -0.00000
     25      16.5770      0.00000
     26      17.1658      0.00000
     27      19.1543      0.00000
     28      19.9768      0.00000
     29      21.6179      0.00000
     30      22.8427      0.00000

 k-point    14 :      -0.2000    0.4000    0.0000
  band No.  band energies     occupation 
      1       1.9936      2.00000
      2       2.2335      2.00000
      3       2.4115      2.00000
      4       3.0833      2.00000
      5       3.3479      2.00000
      6       3.4067      2.00000
      7       3.6338      2.00000
      8       3.6809      2.00000
      9       4.2707      2.00000
     10       4.5807      2.00000
     11       5.1194      2.00000
     12       5.6023      2.00000
     13       5.9940      2.00000
     14       6.1096      2.00000
     15       7.0034      2.00000
     16       7.5723      2.00000
     17       7.7117      2.00000
     18       8.1451      2.00000
     19       8.4207      2.00000
     20       8.4681      2.00000
     21       9.1622      2.00021
     22       9.1859      2.00039
     23      12.9970     -0.00000
     24      14.6209     -0.00000
     25      16.5471      0.00000
     26      17.5570      0.00000
     27      19.1079      0.00000
     28      19.5918      0.00000
     29      21.6344      0.00000
     30      22.8295      0.00000

 k-point    15 :      -0.4000    0.0000    0.2000
  band No.  band energies     occupation 
      1       1.9746      2.00000
      2       2.0400      2.00000
      3       2.1990      2.00000
      4       3.0850      2.00000
      5       3.0985      2.00000
      6       3.5197      2.00000
      7       3.8078      2.00000
      8       4.0836      2.00000
      9       4.5571      2.00000
     10       4.6308      2.00000
     11       4.9728      2.00000
     12       5.5541      2.00000
     13       5.5834      2.00000
     14       5.6092      2.00000
     15       6.8014      2.00000
     16       7.0971      2.00000
     17       7.4013      2.00000
     18       8.3797      2.00000
     19       8.6834      2.00000
     20       9.1496      2.00015
     21       9.6229      1.90407
     22      10.1511     -0.01799
     23      12.6304     -0.00000
     24      14.6100     -0.00000
     25      16.6854      0.00000
     26      17.1482      0.00000
     27      19.2357      0.00000
     28      19.5008      0.00000
     29      21.7077      0.00000
     30      22.8232      0.00000

 k-point    16 :       0.0000    0.2000    0.4000
  band No.  band energies     occupation 
      1       2.0554      2.00000
      2       2.0728      2.00000
      3       2.3247      2.00000
      4       3.2271      2.00000
      5       3.2758      2.00000
      6       3.3709      2.00000
      7       3.8465      2.00000
      8       4.0735      2.00000
      9       4.4594      2.00000
     10       4.5632      2.00000
     11       4.9482      2.00000
     12       5.2499      2.00000
     13       5.8407      2.00000
     14       6.0207      2.00000
     15       6.8298      2.00000
     16       6.9519      2.00000
     17       7.2033      2.00000
     18       8.4064      2.00000
     19       8.5864      2.00000
     20       8.7996      2.00000
     21       9.3713      2.01955
     22       9.9695     -0.05988
     23      13.1479     -0.00000
     24      14.4970     -0.00000
     25      16.5657      0.00000
     26      17.2589      0.00000
     27      19.2547      0.00000
     28      19.8205      0.00000
     29      21.3755      0.00000
     30      23.4198      0.00000

 k-point    17 :       0.4000    0.4000    0.0000
  band No.  band energies     occupation 
      1       2.2413      2.00000
      2       3.1100      2.00000
      3       3.2250      2.00000
      4       3.2502      2.00000
      5       3.5095      2.00000
      6       4.3490      2.00000
      7       4.4019      2.00000
      8       4.7308      2.00000
      9       4.8853      2.00000
     10       5.0774      2.00000
     11       5.1796      2.00000
     12       5.3342      2.00000
     13       5.5023      2.00000
     14       5.7810      2.00000
     15       6.4761      2.00000
     16       6.8745      2.00000
     17       7.5873      2.00000
     18       7.8348      2.00000
     19       8.3673      2.00000
     20       8.5705      2.00000
     21       9.0114      2.00000
     22       9.6954      1.50582
     23      11.9455     -0.00000
     24      12.9051     -0.00000
     25      17.8734      0.00000
     26      18.6752      0.00000
     27      20.5066      0.00000
     28      20.8205      0.00000
     29      21.0728      0.00000
     30      21.8086      0.00000

 k-point    18 :       0.0000    0.4000    0.4000
  band No.  band energies     occupation 
      1       2.0907      2.00000
      2       3.0665      2.00000
      3       3.1405      2.00000
      4       3.1819      2.00000
      5       3.4287      2.00000
      6       3.9297      2.00000
      7       4.6409      2.00000
      8       4.7920      2.00000
      9       4.9454      2.00000
     10       5.0709      2.00000
     11       5.0930      2.00000
     12       5.4354      2.00000
     13       5.4375      2.00000
     14       5.8057      2.00000
     15       6.3238      2.00000
     16       7.0954      2.00000
     17       7.7521      2.00000
     18       7.9829      2.00000
     19       8.5405      2.00000
     20       8.9157      2.00000
     21       9.0250      2.00000
     22       9.3808      2.02253
     23      12.7144     -0.00000
     24      12.9480     -0.00000
     25      17.6942      0.00000
     26      18.3928      0.00000
     27      20.2833      0.00000
     28      20.3929      0.00000
     29      20.7139      0.00000
     30      22.0455      0.00000

 k-point    19 :       0.4000    0.0000    0.4000
  band No.  band energies     occupation 
      1       2.4141      2.00000
      2       3.1503      2.00000
      3       3.2419      2.00000
      4       3.2964      2.00000
      5       3.6188      2.00000
      6       4.2502      2.00000
      7       4.4018      2.00000
      8       4.7236      2.00000
      9       4.8321      2.00000
     10       5.0523      2.00000
     11       5.1553      2.00000
     12       5.2253      2.00000
     13       5.5366      2.00000
     14       5.7335      2.00000
     15       6.5375      2.00000
     16       6.9065      2.00000
     17       7.4342      2.00000
     18       7.7228      2.00000
     19       8.4496      2.00000
     20       8.9397      2.00000
     21       9.1421      2.00012
     22      10.1354     -0.02280
     23      11.4230     -0.00000
     24      12.5900     -0.00000
     25      17.7720      0.00000
     26      18.6394      0.00000
     27      20.2946      0.00000
     28      20.9347      0.00000
     29      21.2946      0.00000
     30      21.6520      0.00000

 k-point    20 :       0.2000    0.2000    0.2000
  band No.  band energies     occupation 
      1       1.4698      2.00000
      2       2.2725      2.00000
      3       2.3583      2.00000
      4       2.5190      2.00000
      5       2.8468      2.00000
      6       3.0745      2.00000
      7       3.3395      2.00000
      8       4.1233      2.00000
      9       4.3616      2.00000
     10       4.4806      2.00000
     11       4.7294      2.00000
     12       4.8067      2.00000
     13       6.0440      2.00000
     14       6.7702      2.00000
     15       6.8749      2.00000
     16       7.2624      2.00000
     17       7.8589      2.00000
     18       8.3090      2.00000
     19       9.1659      2.00023
     20       9.7451      1.11279
     21      11.0282     -0.00000
     22      11.2518     -0.00000
     23      12.6541     -0.00000
     24      13.0819     -0.00000
     25      17.0234      0.00000
     26      17.6312      0.00000
     27      18.3116      0.00000
     28      20.8784      0.00000
     29      21.1345      0.00000
     30      21.2091      0.00000

 k-point    21 :       0.4000    0.2000    0.2000
  band No.  band energies     occupation 
      1       2.3533      2.00000
      2       2.4332      2.00000
      3       2.4761      2.00000
      4       3.0458      2.00000
      5       3.3366      2.00000
      6       3.7920      2.00000
      7       4.0825      2.00000
      8       4.5262      2.00000
      9       4.7252      2.00000
     10       4.8203      2.00000
     11       5.0388      2.00000
     12       5.5221      2.00000
     13       5.5844      2.00000
     14       5.8552      2.00000
     15       6.1864      2.00000
     16       7.3756      2.00000
     17       8.1743      2.00000
     18       8.5269      2.00000
     19       9.2408      2.00154
     20       9.6197      1.91568
     21       9.8919      0.10444
     22      10.8856     -0.00000
     23      13.5417     -0.00000
     24      13.8161     -0.00000
     25      15.4595      0.00000
     26      15.5998      0.00000
     27      19.9624      0.00000
     28      20.9184      0.00000
     29      21.9917      0.00000
     30      22.2342      0.00000

 k-point    22 :       0.2000    0.4000    0.2000
  band No.  band energies     occupation 
      1       2.4378      2.00000
      2       2.5022      2.00000
      3       2.8598      2.00000
      4       3.0989      2.00000
      5       3.3055      2.00000
      6       3.4218      2.00000
      7       3.9138      2.00000
      8       4.2361      2.00000
      9       4.5755      2.00000
     10       5.0032      2.00000
     11       5.6379      2.00000
     12       5.7170      2.00000
     13       5.9377      2.00000
     14       5.9714      2.00000
     15       6.1924      2.00000
     16       6.9770      2.00000
     17       7.8118      2.00000
     18       8.2041      2.00000
     19       8.9784      2.00000
     20       9.3537      2.01478
     21      10.5071     -0.00000
     22      10.6679     -0.00000
     23      13.3728     -0.00000
     24      14.0015     -0.00000
     25      14.9867     -0.00000
     26      15.9861      0.00000
     27      20.0458      0.00000
     28      21.0446      0.00000
     29      22.1512      0.00000
     30      22.2496      0.00000

 k-point    23 :       0.2000    0.2000    0.4000
  band No.  band energies     occupation 
      1       2.4236      2.00000
      2       2.4934      2.00000
      3       2.7232      2.00000
      4       2.9412      2.00000
      5       3.3080      2.00000
      6       3.6669      2.00000
      7       3.9900      2.00000
      8       4.4362      2.00000
      9       4.7518      2.00000
     10       4.9328      2.00000
     11       5.3310      2.00000
     12       5.5545      2.00000
     13       5.6197      2.00000
     14       5.8211      2.00000
     15       6.1879      2.00000
     16       7.2260      2.00000
     17       7.9461      2.00000
     18       8.4352      2.00000
     19       9.2142      2.00081
     20       9.4750      2.06225
     21       9.9108      0.04088
     22      10.9694     -0.00000
     23      13.3660     -0.00000
     24      13.9263     -0.00000
     25      14.9571     -0.00000
     26      16.1963      0.00000
     27      19.8906      0.00000
     28      20.7797      0.00000
     29      22.1550      0.00000
     30      22.3236      0.00000

 k-point    24 :       0.4000    0.4000    0.2000
  band No.  band energies     occupation 
      1       2.4607      2.00000
      2       3.0096      2.00000
      3       3.2324      2.00000
      4       3.4180      2.00000
      5       3.6928      2.00000
      6       3.8939      2.00000
      7       4.4202      2.00000
      8       4.6385      2.00000
      9       4.9656      2.00000
     10       5.1410      2.00000
     11       5.4985      2.00000
     12       5.8069      2.00000
     13       6.0731      2.00000
     14       6.1324      2.00000
     15       6.5269      2.00000
     16       7.6752      2.00000
     17       8.7252      2.00000
     18       8.8567      2.00000
     19       9.6688      1.68119
     20       9.7729      0.87824
     21       9.8742      0.17983
     22      10.3661     -0.00015
     23      12.0993     -0.00000
     24      13.4621     -0.00000
     25      15.5135      0.00000
     26      17.2723      0.00000
     27      17.6250      0.00000
     28      19.6737      0.00000
     29      22.3859      0.00000
     30      24.4517      0.00000

 k-point    25 :       0.2000    0.4000    0.4000
  band No.  band energies     occupation 
      1       2.4532      2.00000
      2       3.0111      2.00000
      3       3.2352      2.00000
      4       3.3633      2.00000
      5       3.6864      2.00000
      6       3.8380      2.00000
      7       4.1880      2.00000
      8       4.4974      2.00000
      9       5.0178      2.00000
     10       5.2803      2.00000
     11       5.6692      2.00000
     12       5.8039      2.00000
     13       5.9635      2.00000
     14       6.1701      2.00000
     15       6.4951      2.00000
     16       7.6776      2.00000
     17       8.8087      2.00000
     18       9.0095      2.00000
     19       9.6451      1.80935
     20       9.7357      1.19139
     21       9.8962      0.08840
     22      10.4200     -0.00003
     23      12.6617     -0.00000
     24      13.6582     -0.00000
     25      15.1801     -0.00000
     26      16.7293      0.00000
     27      17.5287      0.00000
     28      19.8250      0.00000
     29      22.4738      0.00000
     30      24.3216      0.00000

 k-point    26 :       0.4000    0.2000    0.4000
  band No.  band energies     occupation 
      1       2.4827      2.00000
      2       3.0330      2.00000
      3       3.2356      2.00000
      4       3.3149      2.00000
      5       3.6854      2.00000
      6       4.0751      2.00000
      7       4.2425      2.00000
      8       4.8107      2.00000
      9       4.9185      2.00000
     10       5.1232      2.00000
     11       5.2778      2.00000
     12       5.7171      2.00000
     13       5.8584      2.00000
     14       6.3517      2.00000
     15       6.7821      2.00000
     16       7.7611      2.00000
     17       8.7509      2.00000
     18       9.1441      2.00012
     19       9.4138      2.03508
     20       9.5762      2.02666
     21      10.3930     -0.00007
     22      10.5340     -0.00000
     23      11.4577     -0.00000
     24      13.3491     -0.00000
     25      15.4351      0.00000
     26      17.2534      0.00000
     27      17.7397      0.00000
     28      19.7496      0.00000
     29      22.2454      0.00000
     30      24.2868      0.00000

 k-point    27 :       0.4000    0.4000    0.4000
  band No.  band energies     occupation 
      1       2.2037      2.00000
      2       2.2890      2.00000
      3       2.3799      2.00000
      4       2.8036      2.00000
      5       3.7570      2.00000
      6       3.9594      2.00000
      7       4.0951      2.00000
      8       4.7239      2.00000
      9       5.1254      2.00000
     10       5.2824      2.00000
     11       5.4800      2.00000
     12       5.7111      2.00000
     13       7.1815      2.00000
     14       7.9117      2.00000
     15       8.0284      2.00000
     16       8.1073      2.00000
     17       8.4172      2.00000
     18       9.0109      2.00000
     19      10.2295     -0.00432
     20      10.4503     -0.00001
     21      10.4906     -0.00000
     22      10.6143     -0.00000
     23      11.6882     -0.00000
     24      11.9730     -0.00000
     25      14.5264     -0.00000
     26      14.6130     -0.00000
     27      15.6339      0.00000
     28      17.4378      0.00000
     29      25.5072      0.00000
     30      25.8059      0.00000


--------------------------------------------------------------------------------------------------------


 soft charge-density along one line, spin component           1
         0         1         2         3         4         5         6         7         8         9
x    25.7286    0.0000   -0.7071    0.0000    0.9949    0.0000    0.0987    0.0000   -0.3581    0.0000
x    -0.0256    0.0000    0.0000    0.0000
y    25.7286    0.0000    1.0411    0.0000    0.9924    0.0000   -0.3222   -0.0000   -0.3478    0.0000
y     0.0595    0.0000    0.0000    0.0000
z    25.7286    0.0000   -0.0362   -0.0000    1.0046    0.0000   -0.1083   -0.0000   -0.3524    0.0000
z     0.0301    0.0000    0.0000    0.0000
 total charge-density along one line
x    39.9999    0.0000    3.6306    0.0000    9.5051   -0.0000    2.5132    0.0000    1.2158   -0.0000
x     0.3330   -0.0000    0.0297    0.0000   -0.0209   -0.0000   -0.0013    0.0000    0.0048    0.0000
x     0.0018    0.0000   -0.0009   -0.0000   -0.0016    0.0000
y    39.9999    0.0000   -0.8559    0.0000    9.5123   -0.0000   -1.5596    0.0000    1.2339   -0.0000
y    -0.2167    0.0000    0.0173   -0.0000    0.0376    0.0000   -0.0053   -0.0000   -0.0066    0.0000
y     0.0019   -0.0000    0.0016    0.0000   -0.0016    0.0000
z    39.9999    0.0000   -2.6168    0.0000    9.5087   -0.0000   -1.7061    0.0000    1.2146    0.0000
z    -0.2727    0.0000    0.0219   -0.0000    0.0257    0.0000   -0.0027    0.0000   -0.0054    0.0000
z     0.0019   -0.0000    0.0012    0.0000   -0.0016    0.0000
 
 pseudopotential strength for first ion, spin component:           1
 -5.111   0.000  -0.000  -0.000   0.000  -5.220   0.000  -0.000
  0.000  -5.069  -0.000   0.000   0.000   0.000  -5.179  -0.000
 -0.000  -0.000  -5.059   0.000  -0.013  -0.000  -0.000  -5.169
 -0.000   0.000   0.000  -5.096   0.000  -0.000   0.000   0.000
  0.000   0.000  -0.013   0.000  -5.047   0.000  -0.000  -0.013
 -5.220   0.000  -0.000  -0.000   0.000  -5.300   0.000  -0.000
  0.000  -5.179  -0.000   0.000  -0.000   0.000  -5.261  -0.000
 -0.000  -0.000  -5.169   0.000  -0.013  -0.000  -0.000  -5.252
 -0.000   0.000   0.000  -5.205   0.000  -0.000   0.000   0.000
  0.000  -0.000  -0.013   0.000  -5.158   0.000  -0.000  -0.012
 -0.000   0.000  -0.004  -0.000   0.003  -0.000   0.000  -0.004
 -0.000   0.000  -0.008  -0.000   0.005  -0.000   0.000  -0.007
  0.000   0.000   0.000  -0.000   0.000   0.000   0.000   0.000
 -0.000   0.000   0.000   0.000  -0.000  -0.000   0.000   0.000
 -0.000  -0.000  -0.000   0.000   0.000  -0.000  -0.000  -0.000
  0.000   0.000   0.000  -0.000   0.000   0.000   0.000   0.000
 -0.000   0.000   0.000   0.000  -0.000  -0.000   0.000   0.000
 -0.000  -0.000  -0.000   0.000   0.000  -0.000  -0.000  -0.000
 total augmentation occupancy for first ion, spin component:           1
  7.928   0.000   0.000   0.000  -0.000 -11.215   0.000   0.000   0.000   0.000   0.000   0.000   0.000   0.000   0.000   0.000
  0.000   7.738   0.000   0.000   0.000   0.000 -10.724   0.000   0.000   0.000   0.000   0.000   0.000   0.000   0.000   0.000
  0.000   0.000   7.374   0.000  -0.409   0.000   0.000 -10.659   0.000   0.454   0.930  -0.481   0.000   0.000   0.000   0.000
  0.000   0.000   0.000   7.727   0.000   0.000   0.000   0.000 -10.921   0.000   0.000   0.000   0.000   0.000   0.000   0.000
  0.000   0.000  -0.409   0.000   8.050  -0.000   0.000   0.447   0.000 -11.349  -1.628   0.925   0.000   0.000   0.000   0.000
-11.215   0.000   0.000   0.000  -0.000  16.287   0.000   0.000   0.000   0.000   0.000  -0.000   0.000   0.000   0.000   0.000
  0.000 -10.724   0.000  -0.000   0.000   0.000  15.664   0.000   0.000   0.000   0.000   0.000   0.000   0.000   0.000   0.000
  0.000   0.000 -10.659   0.000   0.447   0.000   0.000  15.931   0.000  -0.556  -1.009   0.543   0.000   0.000   0.000   0.000
  0.000   0.000   0.000 -10.921   0.000   0.000   0.000   0.000  15.938   0.000   0.000   0.000   0.000   0.000   0.000   0.000
  0.000   0.000   0.454   0.000 -11.349   0.000   0.000  -0.556   0.000  16.714   1.743  -1.037   0.000   0.000   0.000   0.000
  0.000   0.000   0.930   0.000  -1.628   0.000   0.000  -1.009   0.000   1.743  20.750 -10.856   0.000   0.000   0.000   0.000
 -0.000   0.000  -0.481   0.000   0.925   0.000   0.000   0.543   0.000  -1.037 -10.856   6.074   0.000   0.000   0.000   0.000
  0.000   0.000   0.000   0.000   0.000   0.000   0.000   0.000   0.000   0.000   0.000   0.000   0.708   0.000   0.000  -0.279
  0.000   0.000   0.000   0.000   0.000   0.000   0.000   0.000   0.000   0.000   0.000   0.000   0.000   0.683   0.000   0.000
  0.000   0.000   0.000   0.000   0.000   0.000   0.000   0.000   0.000   0.000   0.000   0.000   0.000   0.000   0.619  -0.000
  0.000   0.000   0.000   0.000   0.000   0.000   0.000   0.000   0.000   0.000   0.000   0.000  -0.279   0.000  -0.000   0.180
  0.000   0.000   0.000   0.000   0.000   0.000   0.000   0.000   0.000   0.000   0.000   0.000   0.000  -0.275   0.000   0.000
  0.000   0.000   0.000   0.000   0.000   0.000   0.000   0.000   0.000   0.000   0.000   0.000  -0.000   0.000  -0.197  -0.000


------------------------ aborting loop because EDIFF is reached ----------------------------------------


    CHARGE:  cpu time    0.0102: real time    0.0102
    FORLOC:  cpu time    0.0006: real time    0.0006
    FORNL :  cpu time    0.0374: real time    0.0374
    STRESS:  cpu time    0.0683: real time    0.0683
    FORCOR:  cpu time    0.0040: real time    0.0040
    FORHAR:  cpu time    0.0012: real time    0.0012
    MIXING:  cpu time    0.0002: real time    0.0002

  FORCE on cell =-STRESS in cart. coord.  units (eV):
  Direction    XX          YY          ZZ          XY          YZ          ZX
  --------------------------------------------------------------------------------------
  Alpha Z   244.65455   244.65455   244.65455
  Ewald   -1143.04101 -1137.78808 -1143.04101     0.00000     0.00000     0.00000
  Hartree   153.72984   164.51149   157.48640    -0.00000    -0.00000    -0.00000
  E(xc)    -198.58919  -198.65847  -198.66886    -0.00000     0.00000    -0.00000
  Local     109.42700    94.13028   106.04085     0.00000     0.00000     0.00000
  n-local  -532.12157  -528.69027  -531.94380    -0.27285     0.82996     0.79581
  augment   260.21750   259.47702   260.56189     0.00000    -0.00000    -0.00000
  Kinetic   619.20957   618.03047   619.28342     6.47971     6.01037     6.41926
  Fock        0.00000     0.00000     0.00000     0.00000     0.00000     0.00000
  -------------------------------------------------------------------------------------
  Total    -486.51331  -484.33302  -485.62656     0.00000     0.00000     0.00000
  in kB  -13490.24254-13429.78647-13465.65456     0.00000     0.00000     0.00000
  external pressure =   -13461.89 kB  Pullay stress =        0.00 kB


 VOLUME and BASIS-vectors are now :
 -----------------------------------------------------------------------------
  energy-cutoff  :      130.00
  volume of cell :       57.78
      direct lattice vectors                 reciprocal lattice vectors
     3.866000000  0.000000000  0.000000000     0.258665287  0.000000000  0.000000000
     0.000000000  3.866000000  0.000000000     0.000000000  0.258665287  0.000000000
     0.000000000  0.000000000  3.866000000     0.000000000  0.000000000  0.258665287

  length of vectors
     3.866000000  3.866000000  3.866000000     0.258665287  0.258665287  0.258665287


 FORCES acting on ions
    electron-ion (+dipol)            ewald-force                    non-local-force                 convergence-correction
 -----------------------------------------------------------------------------------------------
   -.882E-13 -.501E-14 -.262E-14   0.892E-14 -.838E-14 -.466E-14   -.659E-25 -.376E-25 -.205E-25   -.933E-14 -.238E-14 -.113E-12
   0.198E-13 0.797E-13 -.172E-13   0.112E-14 0.145E-13 -.285E-14   -.130E-24 -.243E-25 -.142E-25   0.332E-13 -.918E-14 -.110E-14
   0.524E-13 -.129E-13 0.143E-12   -.749E-14 -.139E-13 0.598E-14   -.504E-25 0.365E-26 -.114E-24   0.353E-13 -.295E-13 0.802E-14
   -.217E-12 0.676E-12 0.677E-12   -.120E-14 0.656E-14 0.190E-14   -.100E-25 -.906E-25 0.769E-25   -.124E-12 -.132E-12 -.112E-12
 -----------------------------------------------------------------------------------------------
   -.233E-12 0.738E-12 0.800E-12   0.135E-14 -.120E-14 0.371E-15   -.256E-24 -.149E-24 -.720E-25   -.645E-13 -.173E-12 -.218E-12
 
 
 POSITION                                       TOTAL-FORCE (eV/Angst)
 -----------------------------------------------------------------------------------
      0.00000      0.00000      0.00000         0.000000      0.000000      0.000000
      1.93300      1.93300      0.00000        -0.000000      0.000000      0.000000
      1.93300      0.00000      1.93300        -0.000000      0.000000      0.000000
      0.00000      1.93300      1.93300        -0.000000     -0.000000     -0.000000
 -----------------------------------------------------------------------------------
    total drift:                               -0.000000      0.000000      0.000000


--------------------------------------------------------------------------------------------------------



  FREE ENERGIE OF THE ION-ELECTRON SYSTEM (eV)
  ---------------------------------------------------
  free  energy   TOTEN  =        53.16003767 eV

  energy  without entropy=       53.16917579  energy(sigma->0) =       53.16308371
 


--------------------------------------------------------------------------------------------------------


    POTLOK:  cpu time    0.0070: real time    0.0070


--------------------------------------------------------------------------------------------------------


 writing wavefunctions
     LOOP+:  cpu time    0.9256: real time    0.9271
    4ORBIT:  cpu time    0.0000: real time    0.0000

 total amount of memory used by VASP MPI-rank0    37869. kBytes
=======================================================================

   base      :      30000. kBytes
   nonl-proj :       3138. kBytes
   grid      :       1131. kBytes
   one-center:         62. kBytes
   wavefun   :       3538. kBytes
 
  
  
 General timing and accounting informations for this job:
 ========================================================
  
                  Total CPU time used (sec):        1.085
                            User time (sec):        1.057
                          System time (sec):        0.028
                         Elapsed time (sec):        1.080
  
                   Maximum memory used (kb):       44264.
                   Average memory used (kb):          N/A
  
                          Minor page faults:         4672
                          Major page faults:            0
                 Voluntary context switches:           26
