<?xml version="1.0" encoding="ISO-8859-1"?>
<modeling>
 <generator>
  <i name="program" type="string">vasp </i>
  <i name="version" type="string">6.2.0  </i>
  <i name="subversion" type="string">18Jan21 (build Mar 17 2021 09:06:54) complex                          serial </i>
  <i name="platform" type="string">LinuxIFC </i>
  <i name="date" type="string">2021 06 11 </i>
  <i name="time" type="string">12:20:37 </i>
 </generator>
 <incar>
  <i type="string" name="PREC">normal</i>
  <i type="int" name="ICHARG">     1</i>
  <i type="int" name="IBRION">    -1</i>
  <i name="EDIFF">      0.00000100</i>
  <i type="int" name="NSW">     0</i>
  <i name="ENCUT">    130.00000000</i>
  <i type="int" name="NBANDS">    30</i>
  <i type="int" name="ISMEAR">     1</i>
  <i name="SIGMA">      0.20000000</i>
  <i type="logical" name="LCHARG"> T  </i>
  <i type="int" name="KPAR">     1</i>
  <i type="int" name="NCORE">     1</i>
  <i type="string" name="GGA">PE</i>
 </incar>
 <primitive_cell>
  <structure name="primitive_cell" >
   <crystal>
    <varray name="basis" >
     <v>       3.86600000       0.00000000       0.00000000 </v>
     <v>       0.00000000       3.86600000       0.00000000 </v>
     <v>       0.00000000       0.00000000       3.86600000 </v>
    </varray>
    <i name="volume">     57.78106590 </i>
    <varray name="rec_basis" >
     <v>       0.25866529       0.00000000       0.00000000 </v>
     <v>       0.00000000       0.25866529       0.00000000 </v>
     <v>       0.00000000       0.00000000       0.25866529 </v>
    </varray>
   </crystal>
   <varray name="positions" >
    <v>       0.00000000       0.00000000       0.00000000 </v>
    <v>       0.50000000       0.50000000       0.00000000 </v>
    <v>       0.50000000       0.00000000       0.50000000 </v>
    <v>       0.00000000       0.50000000       0.50000000 </v>
   </varray>
  </structure>
  <varray name="primitive_index" >
   <v type="int" >        1 </v>
   <v type="int" >        2 </v>
   <v type="int" >        3 </v>
   <v type="int" >        4 </v>
  </varray>
 </primitive_cell>
 <kpoints>
  <generation param="Monkhorst-Pack">
   <v type="int" name="divisions">       5        5        5 </v>
   <v name="usershift">      0.00000000       0.00000000       0.00000000 </v>
   <v name="genvec1">      0.20000000       0.00000000       0.00000000 </v>
   <v name="genvec2">      0.00000000       0.20000000       0.00000000 </v>
   <v name="genvec3">      0.00000000       0.00000000       0.20000000 </v>
   <v name="shift">      0.00000000       0.00000000       0.00000000 </v>
  </generation>
  <varray name="kpointlist" >
   <v>       0.00000000       0.00000000       0.00000000 </v>
   <v>       0.20000000       0.00000000       0.00000000 </v>
   <v>       0.00000000       0.20000000       0.00000000 </v>
   <v>       0.00000000       0.00000000       0.20000000 </v>
   <v>       0.40000000       0.00000000       0.00000000 </v>
   <v>       0.00000000       0.40000000       0.00000000 </v>
   <v>       0.00000000       0.00000000       0.40000000 </v>
   <v>       0.20000000       0.20000000       0.00000000 </v>
   <v>       0.00000000       0.20000000       0.20000000 </v>
   <v>       0.20000000       0.00000000       0.20000000 </v>
   <v>       0.40000000       0.20000000       0.00000000 </v>
   <v>       0.00000000       0.40000000       0.20000000 </v>
   <v>       0.20000000       0.00000000       0.40000000 </v>
   <v>      -0.20000000       0.40000000       0.00000000 </v>
   <v>      -0.40000000       0.00000000       0.20000000 </v>
   <v>       0.00000000       0.20000000       0.40000000 </v>
   <v>       0.40000000       0.40000000       0.00000000 </v>
   <v>       0.00000000       0.40000000       0.40000000 </v>
   <v>       0.40000000       0.00000000       0.40000000 </v>
   <v>       0.20000000       0.20000000       0.20000000 </v>
   <v>       0.40000000       0.20000000       0.20000000 </v>
   <v>       0.20000000       0.40000000       0.20000000 </v>
   <v>       0.20000000       0.20000000       0.40000000 </v>
   <v>       0.40000000       0.40000000       0.20000000 </v>
   <v>       0.20000000       0.40000000       0.40000000 </v>
   <v>       0.40000000       0.20000000       0.40000000 </v>
   <v>       0.40000000       0.40000000       0.40000000 </v>
  </varray>
  <varray name="weights" >
   <v>       0.00800000 </v>
   <v>       0.01600000 </v>
   <v>       0.01600000 </v>
   <v>       0.01600000 </v>
   <v>       0.01600000 </v>
   <v>       0.01600000 </v>
   <v>       0.01600000 </v>
   <v>       0.03200000 </v>
   <v>       0.03200000 </v>
   <v>       0.03200000 </v>
   <v>       0.03200000 </v>
   <v>       0.03200000 </v>
   <v>       0.03200000 </v>
   <v>       0.03200000 </v>
   <v>       0.03200000 </v>
   <v>       0.03200000 </v>
   <v>       0.03200000 </v>
   <v>       0.03200000 </v>
   <v>       0.03200000 </v>
   <v>       0.06400000 </v>
   <v>       0.06400000 </v>
   <v>       0.06400000 </v>
   <v>       0.06400000 </v>
   <v>       0.06400000 </v>
   <v>       0.06400000 </v>
   <v>       0.06400000 </v>
   <v>       0.06400000 </v>
  </varray>
 </kpoints>
 <parameters>
  <separator name="general" >
   <i type="string" name="SYSTEM">unknown system</i>
   <i type="logical" name="LCOMPAT"> F  </i>
  </separator>
  <separator name="electronic" >
   <i type="string" name="PREC">normal</i>
   <i name="ENMAX">    130.00000000</i>
   <i name="ENAUG">    586.98000000</i>
   <i name="EDIFF">      0.00000100</i>
   <i type="int" name="IALGO">    38</i>
   <i type="int" name="IWAVPR">     0</i>
   <i type="int" name="NBANDS">    30</i>
   <i type="int" name="NBANDSLOW">    -1</i>
   <i type="int" name="NBANDSHIGH">    -1</i>
   <i name="NELECT">     40.00000000</i>
   <i type="int" name="TURBO">     0</i>
   <i type="int" name="IRESTART">     0</i>
   <i type="int" name="NREBOOT">     0</i>
   <i type="int" name="NMIN">     0</i>
   <i name="EREF">      0.00000000</i>
   <separator name="electronic smearing" >
    <i type="int" name="ISMEAR">     1</i>
    <i name="SIGMA">      0.20000000</i>
    <i name="KSPACING">      0.50000000</i>
    <i type="logical" name="KGAMMA"> T  </i>
    <i type="logical" name="KBLOWUP"> T  </i>
   </separator>
   <separator name="electronic projectors" >
    <i type="logical" name="LREAL"> F  </i>
    <v name="ROPT">      0.00000000      0.00000000      0.00000000      0.00000000</v>
    <i type="int" name="LMAXPAW">  -100</i>
    <i type="int" name="LMAXMIX">     2</i>
    <i type="logical" name="NLSPLINE"> F  </i>
   </separator>
   <separator name="electronic startup" >
    <i type="int" name="ISTART">     1</i>
    <i type="int" name="ICHARG">     1</i>
    <i type="int" name="INIWAV">     1</i>
   </separator>
   <separator name="electronic spin" >
    <i type="int" name="ISPIN">     1</i>
    <i type="logical" name="LNONCOLLINEAR"> F  </i>
    <v name="MAGMOM">      1.00000000      1.00000000      1.00000000      1.00000000</v>
    <i name="NUPDOWN">     -1.00000000</i>
    <i type="logical" name="LSORBIT"> F  </i>
    <v name="SAXIS">      0.00000000      0.00000000      1.00000000</v>
    <i type="logical" name="LSPIRAL"> F  </i>
    <v name="QSPIRAL">      0.00000000      0.00000000      0.00000000</v>
    <i type="logical" name="LZEROZ"> F  </i>
   </separator>
   <separator name="electronic exchange-correlation" >
    <i type="logical" name="LASPH"> F  </i>
    <i type="logical" name="LMETAGGA"> F  </i>
   </separator>
   <separator name="electronic convergence" >
    <i type="int" name="NELM">    60</i>
    <i type="int" name="NELMDL">     0</i>
    <i type="int" name="NELMIN">     2</i>
    <i name="ENINI">    130.00000000</i>
    <separator name="electronic convergence detail" >
     <i type="logical" name="LDIAG"> T  </i>
     <i type="logical" name="LSUBROT"> F  </i>
     <i name="WEIMIN">      0.00000000</i>
     <i name="EBREAK">      0.00000001</i>
     <i name="DEPER">      0.30000000</i>
     <i type="int" name="NRMM">     4</i>
     <i name="TIME">      0.40000000</i>
    </separator>
   </separator>
   <separator name="electronic mixer" >
    <i name="AMIX">      0.40000000</i>
    <i name="BMIX">      1.00000000</i>
    <i name="AMIN">      0.10000000</i>
    <i name="AMIX_MAG">      1.60000000</i>
    <i name="BMIX_MAG">      1.00000000</i>
    <separator name="electronic mixer details" >
     <i type="int" name="IMIX">     4</i>
     <i type="logical" name="MIXFIRST"> F  </i>
     <i type="int" name="MAXMIX">   -45</i>
     <i name="WC">    100.00000000</i>
     <i type="int" name="INIMIX">     1</i>
     <i type="int" name="MIXPRE">     1</i>
     <i type="int" name="MREMOVE">     5</i>
    </separator>
   </separator>
   <separator name="electronic dipolcorrection" >
    <i type="logical" name="LDIPOL"> F  </i>
    <i type="logical" name="LMONO"> F  </i>
    <i type="int" name="IDIPOL">     0</i>
    <i name="EPSILON">      1.00000000</i>
    <v name="DIPOL">   -100.00000000   -100.00000000   -100.00000000</v>
    <i name="EFIELD">      0.00000000</i>
   </separator>
  </separator>
  <separator name="grids" >
   <i type="int" name="NGX">    12</i>
   <i type="int" name="NGY">    12</i>
   <i type="int" name="NGZ">    12</i>
   <i type="int" name="NGXF">    24</i>
   <i type="int" name="NGYF">    24</i>
   <i type="int" name="NGZF">    24</i>
   <i type="logical" name="ADDGRID"> F  </i>
  </separator>
  <separator name="ionic" >
   <i type="int" name="NSW">     0</i>
   <i type="int" name="IBRION">    -1</i>
   <i type="int" name="MDALGO">     0</i>
   <i type="int" name="ISIF">     2</i>
   <i name="PSTRESS">      0.00000000</i>
   <i name="EDIFFG">      0.00001000</i>
   <i type="int" name="NFREE">     0</i>
   <i name="POTIM">      0.50000000</i>
   <i name="SMASS">     -3.00000000</i>
   <i name="SCALEE">      1.00000000</i>
  </separator>
  <separator name="ionic md" >
   <i name="TEBEG">      0.00010000</i>
   <i name="TEEND">      0.00010000</i>
   <i type="int" name="NBLOCK">     1</i>
   <i type="int" name="KBLOCK">     1</i>
   <i type="int" name="NPACO">   256</i>
   <i name="APACO">     16.00000000</i>
  </separator>
  <separator name="symmetry" >
   <i type="int" name="ISYM">     2</i>
   <i name="SYMPREC">      0.00001000</i>
  </separator>
  <separator name="dos" >
   <i type="int" name="LORBIT">     0</i>
   <v name="RWIGS">     -1.00000000     -1.00000000     -1.00000000     -1.00000000</v>
   <i type="int" name="NEDOS">   301</i>
   <i name="EMIN">     10.00000000</i>
   <i name="EMAX">    -10.00000000</i>
   <i name="EFERMI">      0.00000000</i>
  </separator>
  <separator name="writing" >
   <i type="int" name="NWRITE">     2</i>
   <i type="logical" name="LWAVE"> T  </i>
   <i type="logical" name="LDOWNSAMPLE"> F  </i>
   <i type="logical" name="LCHARG"> T  </i>
   <i type="logical" name="LPARD"> F  </i>
   <i type="logical" name="LVTOT"> F  </i>
   <i type="logical" name="LVHAR"> F  </i>
   <i type="logical" name="LELF"> F  </i>
   <i type="logical" name="LOPTICS"> F  </i>
   <v name="STM">      0.00000000      0.00000000      0.00000000      0.00000000      0.00000000      0.00000000      0.00000000</v>
  </separator>
  <separator name="performance" >
   <i type="int" name="NPAR">     1</i>
   <i type="int" name="NSIM">     4</i>
   <i type="int" name="NBLK">    -1</i>
   <i type="logical" name="LPLANE"> T  </i>
   <i type="logical" name="LSCALAPACK"> F  </i>
   <i type="logical" name="LSCAAWARE"> F  </i>
   <i type="logical" name="LSCALU"> F  </i>
   <i type="logical" name="LASYNC"> F  </i>
   <i type="logical" name="LORBITALREAL"> F  </i>
  </separator>
  <separator name="miscellaneous" >
   <i type="int" name="IDIOT">     3</i>
   <i type="int" name="PHON_NSTRUCT">    -1</i>
   <i type="logical" name="LMUSIC"> F  </i>
   <v name="POMASS">    106.42000000    192.22000000    195.08000000     63.54600000</v>
   <v name="DARWINR">      0.00000000      0.00000000      0.00000000      0.00000000</v>
   <v name="DARWINV">      1.00000000      1.00000000      1.00000000      1.00000000</v>
   <i type="logical" name="LCORR"> T  </i>
  </separator>
  <i type="logical" name="GGA_COMPAT"> T  </i>
  <i type="logical" name="LBERRY"> F  </i>
  <i type="int" name="ICORELEVEL">     0</i>
  <i type="logical" name="LDAU"> F  </i>
  <i type="int" name="I_CONSTRAINED_M">     0</i>
  <separator name="electronic exchange-correlation" >
   <i type="string" name="GGA">PE</i>
   <i type="int" name="VOSKOWN">     0</i>
   <i type="logical" name="LHFCALC"> F  </i>
   <i type="string" name="PRECFOCK"></i>
   <i type="logical" name="LSYMGRAD"> F  </i>
   <i type="logical" name="LHFONE"> F  </i>
   <i type="logical" name="LRHFCALC"> F  </i>
   <i type="logical" name="LTHOMAS"> F  </i>
   <i type="logical" name="LMODELHF"> F  </i>
   <i type="logical" name="LFOCKACE"> F  </i>
   <i name="ENCUT4O">     -1.00000000</i>
   <i type="int" name="EXXOEP">     0</i>
   <i type="int" name="FOURORBIT">     0</i>
   <i name="AEXX">      0.00000000</i>
   <i name="HFALPHA">      0.00000000</i>
   <i name="MCALPHA">      0.00000000</i>
   <i name="ALDAX">      1.00000000</i>
   <i name="AGGAX">      1.00000000</i>
   <i name="ALDAC">      1.00000000</i>
   <i name="AGGAC">      1.00000000</i>
   <i type="int" name="NKREDX">     1</i>
   <i type="int" name="NKREDY">     1</i>
   <i type="int" name="NKREDZ">     1</i>
   <i type="logical" name="SHIFTRED"> F  </i>
   <i type="logical" name="ODDONLY"> F  </i>
   <i type="logical" name="EVENONLY"> F  </i>
   <i type="int" name="LMAXFOCK">     0</i>
   <i type="int" name="NMAXFOCKAE">     0</i>
   <i type="logical" name="LFOCKAEDFT"> F  </i>
   <i name="HFSCREEN">      0.00000000</i>
   <i name="HFSCREENC">      0.00000000</i>
   <i type="int" name="NBANDSGWLOW">     0</i>
  </separator>
  <separator name="vdW DFT" >
   <i type="logical" name="LUSE_VDW"> F  </i>
   <i name="Zab_VDW">     -0.84910000</i>
   <i name="PARAM1">      0.12340000</i>
   <i name="PARAM2">      1.00000000</i>
   <i name="PARAM3">      0.00000000</i>
  </separator>
  <separator name="model GW" >
   <i type="int" name="MODEL_GW">     0</i>
   <i name="MODEL_EPS0">      8.66715988</i>
   <i name="MODEL_ALPHA">      1.00000000</i>
  </separator>
  <separator name="linear response parameters" >
   <i type="logical" name="LEPSILON"> F  </i>
   <i type="logical" name="LRPA"> F  </i>
   <i type="logical" name="LNABLA"> F  </i>
   <i type="logical" name="LVEL"> F  </i>
   <i type="int" name="KINTER">     0</i>
   <i name="CSHIFT">      0.10000000</i>
   <i name="OMEGAMAX">     -1.00000000</i>
   <i name="DEG_THRESHOLD">      0.00200000</i>
   <i name="RTIME">     -0.10000000</i>
   <i name="WPLASMAI">      0.00000000</i>
   <v name="DFIELD">      0.00000000      0.00000000      0.00000000</v>
   <v name="WPLASMA">      0.00000000      0.00000000      0.00000000      0.00000000      0.00000000      0.00000000      0.00000000      0.00000000      0.00000000</v>
  </separator>
  <separator name="orbital magnetization" >
   <i type="logical" name="NUCIND"> F  </i>
   <v name="MAGPOS">      0.00000000      0.00000000      0.00000000</v>
   <i type="logical" name="LNICSALL"> T  </i>
   <i type="logical" name="ORBITALMAG"> F  </i>
   <i type="logical" name="LMAGBLOCH"> F  </i>
   <i type="logical" name="LCHIMAG"> F  </i>
   <i type="logical" name="LGAUGE"> T  </i>
   <i type="int" name="MAGATOM">     0</i>
   <v name="MAGDIPOL">      0.00000000      0.00000000      0.00000000</v>
   <v name="AVECCONST">      0.00000000      0.00000000      0.00000000</v>
  </separator>
  <separator name="response functions" >
   <i type="logical" name="LFINITE_TEMPERATURE"> F  </i>
   <i type="logical" name="LADDER"> F  </i>
   <i type="logical" name="LRPAFORCE"> F  </i>
   <i type="logical" name="LFXC"> F  </i>
   <i type="logical" name="LHARTREE"> T  </i>
   <i type="int" name="IBSE">     0</i>
   <v type="int" name="KPOINT">    -1     0     0     0</v>
   <i type="logical" name="LTCTC"> F  </i>
   <i type="logical" name="LTCTE"> F  </i>
   <i type="logical" name="LTETE"> F  </i>
   <i type="logical" name="LTRIPLET"> F  </i>
   <i type="logical" name="LFXCEPS"> F  </i>
   <i type="logical" name="LFXHEG"> F  </i>
   <i type="int" name="NATURALO">     2</i>
   <i type="logical" name="LHOLEGF"> F  </i>
   <i type="logical" name="L2ORDER"> F  </i>
   <i type="logical" name="LDMP1"> F  </i>
   <i type="logical" name="LMP2LT"> F  </i>
   <i type="logical" name="LSMP2LT"> F  </i>
   <i type="logical" name="LGWLF"> F  </i>
   <i name="ENCUTGW">     -2.00000000</i>
   <i name="ENCUTGWSOFT">     -2.00000000</i>
   <i name="ENCUTLF">     -1.00000000</i>
   <i type="logical" name="LESF_SPLINES"> F  </i>
   <i type="int" name="LMAXMP2">    -1</i>
   <i name="SCISSOR">      0.00000000</i>
   <i type="int" name="NOMEGA">     0</i>
   <i type="int" name="NOMEGAR">     0</i>
   <i type="int" name="NBANDSGW">    -1</i>
   <i type="int" name="NBANDSO">    -1</i>
   <i type="int" name="NBANDSV">    -1</i>
   <i type="int" name="NELM">     1</i>
   <i type="int" name="NELMHF">     1</i>
   <i type="int" name="DIM">     3</i>
   <i type="int" name="IESPILON">     4</i>
   <i type="int" name="ANTIRES">     0</i>
   <i name="OMEGAMAX">    -30.00000000</i>
   <i name="OMEGAMIN">    -30.00000000</i>
   <i name="OMEGATL">   -200.00000000</i>
   <i type="int" name="OMEGAGRID">     0</i>
   <i name="CSHIFT">     -0.10000000</i>
   <i type="logical" name="LSELFENERGY"> F  </i>
   <i type="logical" name="LSPECTRAL"> F  </i>
   <i type="logical" name="LSPECTRALGW"> F  </i>
   <i type="logical" name="LSINGLES"> F  </i>
   <i type="logical" name="LFERMIGW"> F  </i>
   <i type="logical" name="ODDONLYGW"> F  </i>
   <i type="logical" name="EVENONLYGW"> F  </i>
   <i type="int" name="NKREDLFX">     1</i>
   <i type="int" name="NKREDLFY">     1</i>
   <i type="int" name="NKREDLFZ">     1</i>
   <i type="int" name="MAXMEM">  2800</i>
   <i type="int" name="TELESCOPE">     0</i>
   <i type="int" name="NTAUPAR">    -1</i>
   <i type="int" name="NOMEGAPAR">    -1</i>
   <i name="DAMP_NEWTON">      0.80000001</i>
   <i name="LAMBDA">      1.00000000</i>
  </separator>
  <separator name="External order field" >
   <i name="OFIELD_KAPPA">      0.00000000</i>
   <v name="OFIELD_K">      0.00000000      0.00000000      0.00000000</v>
   <i name="OFIELD_Q6_NEAR">      0.00000000</i>
   <i name="OFIELD_Q6_FAR">      0.00000000</i>
   <i name="OFIELD_A">      0.00000000</i>
  </separator>
 </parameters>
 <atominfo>
  <atoms>       4 </atoms>
  <types>       4 </types>
  <array name="atoms" >
   <dimension dim="1">ion</dimension>
   <field type="string">element</field>
   <field type="int">atomtype</field>
   <set>
    <rc><c>Pd</c><c>   1</c></rc>
    <rc><c>Ir</c><c>   2</c></rc>
    <rc><c>Pt</c><c>   3</c></rc>
    <rc><c>Cu</c><c>   4</c></rc>
   </set>
  </array>
  <array name="atomtypes" >
   <dimension dim="1">type</dimension>
   <field type="int">atomspertype</field>
   <field type="string">element</field>
   <field>mass</field>
   <field>valence</field>
   <field type="string">pseudopotential</field>
   <set>
    <rc><c>   1</c><c>Pd</c><c>    106.42000000</c><c>     10.00000000</c><c>  PAW_PBE Pd 04Jan2005                  </c></rc>
    <rc><c>   1</c><c>Ir</c><c>    192.22000000</c><c>      9.00000000</c><c>  PAW_PBE Ir 06Sep2000                  </c></rc>
    <rc><c>   1</c><c>Pt</c><c>    195.08000000</c><c>     10.00000000</c><c>  PAW_PBE Pt 04Feb2005                  </c></rc>
    <rc><c>   1</c><c>Cu</c><c>     63.54600000</c><c>     11.00000000</c><c>  PAW_PBE Cu 22Jun2005                  </c></rc>
   </set>
  </array>
 </atominfo>
 <structure name="initialpos" >
  <crystal>
   <varray name="basis" >
    <v>       3.86600000       0.00000000       0.00000000 </v>
    <v>       0.00000000       3.86600000       0.00000000 </v>
    <v>       0.00000000       0.00000000       3.86600000 </v>
   </varray>
   <i name="volume">     57.78106590 </i>
   <varray name="rec_basis" >
    <v>       0.25866529       0.00000000       0.00000000 </v>
    <v>       0.00000000       0.25866529       0.00000000 </v>
    <v>       0.00000000       0.00000000       0.25866529 </v>
   </varray>
  </crystal>
  <varray name="positions" >
   <v>       0.00000000       0.00000000       0.00000000 </v>
   <v>       0.50000000       0.50000000       0.00000000 </v>
   <v>       0.50000000       0.00000000       0.50000000 </v>
   <v>       0.00000000       0.50000000       0.50000000 </v>
  </varray>
 </structure>
 <calculation>
  <scstep>
   <time name="dav">    0.18    0.18</time>
   <time name="total">    0.20    0.20</time>
   <energy>
    <i name="alphaZ">    244.65455147 </i>
    <i name="ewald">  -3423.86860972 </i>
    <i name="hartreedc">   -475.71308149 </i>
    <i name="XCdc">     -2.90426541 </i>
    <i name="pawpsdc">   7190.83375685 </i>
    <i name="pawaedc">  -7137.89328145 </i>
    <i name="eentropy">     -0.00738750 </i>
    <i name="bandstr">    211.96554497 </i>
    <i name="atom">   3446.07425524 </i>
    <i name="e_fr_energy">     53.14148294 </i>
    <i name="e_wo_entrp">     53.14887045 </i>
    <i name="e_0_energy">     53.14394544 </i>
   </energy>
  </scstep>
  <scstep>
   <time name="dav">    0.14    0.14</time>
   <time name="total">    0.16    0.16</time>
   <energy>
    <i name="e_fr_energy">     53.15998889 </i>
    <i name="e_wo_entrp">     53.16923666 </i>
    <i name="e_0_energy">     53.16307148 </i>
   </energy>
  </scstep>
  <scstep>
   <time name="dav">    0.14    0.14</time>
   <time name="total">    0.16    0.16</time>
   <energy>
    <i name="e_fr_energy">     53.16003581 </i>
    <i name="e_wo_entrp">     53.16917286 </i>
    <i name="e_0_energy">     53.16308150 </i>
   </energy>
  </scstep>
  <scstep>
   <time name="dav">    0.12    0.12</time>
   <time name="total">    0.14    0.14</time>
   <energy>
    <i name="e_fr_energy">     53.16003744 </i>
    <i name="e_wo_entrp">     53.16918647 </i>
    <i name="e_0_energy">     53.16308712 </i>
   </energy>
  </scstep>
  <scstep>
   <time name="dav">    0.11    0.11</time>
   <time name="total">    0.12    0.12</time>
   <energy>
    <i name="alphaZ">    244.65455147 </i>
    <i name="ewald">  -3423.86860972 </i>
    <i name="hartreedc">   -475.70938683 </i>
    <i name="XCdc">     -2.90423989 </i>
    <i name="pawpsdc">   7190.94245280 </i>
    <i name="pawaedc">  -7138.01892944 </i>
    <i name="eentropy">     -0.00913812 </i>
    <i name="bandstr">    211.99908217 </i>
    <i name="atom">   3446.07425524 </i>
    <i name="e_fr_energy">     53.16003767 </i>
    <i name="e_wo_entrp">     53.16917579 </i>
    <i name="e_0_energy">     53.16308371 </i>
   </energy>
  </scstep>
  <structure>
   <crystal>
    <varray name="basis" >
     <v>       3.86600000       0.00000000       0.00000000 </v>
     <v>       0.00000000       3.86600000       0.00000000 </v>
     <v>       0.00000000       0.00000000       3.86600000 </v>
    </varray>
    <i name="volume">     57.78106590 </i>
    <varray name="rec_basis" >
     <v>       0.25866529       0.00000000       0.00000000 </v>
     <v>       0.00000000       0.25866529       0.00000000 </v>
     <v>       0.00000000       0.00000000       0.25866529 </v>
    </varray>
   </crystal>
   <varray name="positions" >
    <v>       0.00000000       0.00000000       0.00000000 </v>
    <v>       0.50000000       0.50000000       0.00000000 </v>
    <v>       0.50000000       0.00000000       0.50000000 </v>
    <v>       0.00000000       0.50000000       0.50000000 </v>
   </varray>
  </structure>
  <varray name="forces" >
   <v>       0.00000000       0.00000000       0.00000000 </v>
   <v>      -0.00000000       0.00000000       0.00000000 </v>
   <v>      -0.00000000       0.00000000       0.00000000 </v>
   <v>      -0.00000000      -0.00000000      -0.00000000 </v>
  </varray>
  <varray name="stress" >
   <v>  -13490.24253839      -0.00000000       0.00000000 </v>
   <v>       0.00000000  -13429.78646971       0.00000000 </v>
   <v>       0.00000000       0.00000000  -13465.65455550 </v>
  </varray>
  <energy>
   <i name="e_fr_energy">     53.16003767 </i>
   <i name="e_wo_entrp">     53.16917579 </i>
   <i name="e_0_energy">     53.16308371 </i>
  </energy>
  <time name="totalsc">    0.93    0.93</time>
  <eigenvalues>
   <array>
    <dimension dim="1">band</dimension>
    <dimension dim="2">kpoint</dimension>
    <dimension dim="3">spin</dimension>
    <field>eigene</field>
    <field>occ</field>
    <set>
     <set comment="spin 1">
      <set comment="kpoint 1">
       <r>    0.1213    1.0000 </r>
       <r>    2.5430    1.0000 </r>
       <r>    2.6608    1.0000 </r>
       <r>    3.0442    1.0000 </r>
       <r>    3.1323    1.0000 </r>
       <r>    3.5879    1.0000 </r>
       <r>    3.5976    1.0000 </r>
       <r>    3.9771    1.0000 </r>
       <r>    4.1937    1.0000 </r>
       <r>    4.2640    1.0000 </r>
       <r>    4.7021    1.0000 </r>
       <r>    4.8988    1.0000 </r>
       <r>    9.6985    0.7416 </r>
       <r>   10.5095   -0.0000 </r>
       <r>   10.8040   -0.0000 </r>
       <r>   11.2575   -0.0000 </r>
       <r>   11.2946   -0.0000 </r>
       <r>   11.3018   -0.0000 </r>
       <r>   12.7761   -0.0000 </r>
       <r>   13.8882   -0.0000 </r>
       <r>   14.1996   -0.0000 </r>
       <r>   14.8516   -0.0000 </r>
       <r>   15.8167    0.0000 </r>
       <r>   16.0484    0.0000 </r>
       <r>   16.8149    0.0000 </r>
       <r>   17.8927    0.0000 </r>
       <r>   19.5113    0.0000 </r>
       <r>   19.9244    0.0000 </r>
       <r>   20.1320    0.0000 </r>
       <r>   20.4692    0.0000 </r>
      </set>
      <set comment="kpoint 2">
       <r>    0.5824    1.0000 </r>
       <r>    1.4687    1.0000 </r>
       <r>    1.7825    1.0000 </r>
       <r>    2.3323    1.0000 </r>
       <r>    2.5291    1.0000 </r>
       <r>    2.9214    1.0000 </r>
       <r>    3.1863    1.0000 </r>
       <r>    3.1936    1.0000 </r>
       <r>    3.5974    1.0000 </r>
       <r>    3.6870    1.0000 </r>
       <r>    4.1046    1.0000 </r>
       <r>    4.5001    1.0000 </r>
       <r>    6.7418    1.0000 </r>
       <r>    7.2355    1.0000 </r>
       <r>    7.6406    1.0000 </r>
       <r>    8.9480    1.0000 </r>
       <r>    9.4348    1.0222 </r>
       <r>   10.3352   -0.0002 </r>
       <r>   10.4892   -0.0000 </r>
       <r>   10.7538   -0.0000 </r>
       <r>   12.9587   -0.0000 </r>
       <r>   13.0771   -0.0000 </r>
       <r>   13.8842   -0.0000 </r>
       <r>   14.4964   -0.0000 </r>
       <r>   16.7128    0.0000 </r>
       <r>   17.7062    0.0000 </r>
       <r>   19.7862    0.0000 </r>
       <r>   20.1941    0.0000 </r>
       <r>   20.2575    0.0000 </r>
       <r>   21.1169    0.0000 </r>
      </set>
      <set comment="kpoint 3">
       <r>    0.6217    1.0000 </r>
       <r>    1.1282    1.0000 </r>
       <r>    1.2877    1.0000 </r>
       <r>    2.6504    1.0000 </r>
       <r>    2.8169    1.0000 </r>
       <r>    2.9963    1.0000 </r>
       <r>    3.0731    1.0000 </r>
       <r>    3.4728    1.0000 </r>
       <r>    3.6350    1.0000 </r>
       <r>    3.7437    1.0000 </r>
       <r>    4.1381    1.0000 </r>
       <r>    4.8078    1.0000 </r>
       <r>    7.0920    1.0000 </r>
       <r>    7.3593    1.0000 </r>
       <r>    8.1164    1.0000 </r>
       <r>    8.6115    1.0000 </r>
       <r>    9.6625    0.8588 </r>
       <r>    9.8421    0.1783 </r>
       <r>   10.3130   -0.0003 </r>
       <r>   10.4833   -0.0000 </r>
       <r>   12.4721   -0.0000 </r>
       <r>   13.1585   -0.0000 </r>
       <r>   13.3961   -0.0000 </r>
       <r>   14.6620   -0.0000 </r>
       <r>   16.2209    0.0000 </r>
       <r>   18.2684    0.0000 </r>
       <r>   20.0733    0.0000 </r>
       <r>   20.1106    0.0000 </r>
       <r>   20.1614    0.0000 </r>
       <r>   21.3332    0.0000 </r>
      </set>
      <set comment="kpoint 4">
       <r>    0.6210    1.0000 </r>
       <r>    1.2288    1.0000 </r>
       <r>    1.6826    1.0000 </r>
       <r>    2.4836    1.0000 </r>
       <r>    2.8125    1.0000 </r>
       <r>    3.0822    1.0000 </r>
       <r>    3.1627    1.0000 </r>
       <r>    3.2044    1.0000 </r>
       <r>    3.6034    1.0000 </r>
       <r>    3.7876    1.0000 </r>
       <r>    3.9095    1.0000 </r>
       <r>    4.6378    1.0000 </r>
       <r>    6.7853    1.0000 </r>
       <r>    7.5313    1.0000 </r>
       <r>    7.7194    1.0000 </r>
       <r>    9.2016    1.0003 </r>
       <r>    9.3041    1.0030 </r>
       <r>   10.0676   -0.0256 </r>
       <r>   10.2684   -0.0009 </r>
       <r>   10.6977   -0.0000 </r>
       <r>   13.0311   -0.0000 </r>
       <r>   13.3976   -0.0000 </r>
       <r>   13.4249   -0.0000 </r>
       <r>   13.7623   -0.0000 </r>
       <r>   15.8617    0.0000 </r>
       <r>   18.6027    0.0000 </r>
       <r>   20.1133    0.0000 </r>
       <r>   20.2233    0.0000 </r>
       <r>   20.2238    0.0000 </r>
       <r>   21.2750    0.0000 </r>
      </set>
      <set comment="kpoint 5">
       <r>    1.5100    1.0000 </r>
       <r>    1.7480    1.0000 </r>
       <r>    2.2919    1.0000 </r>
       <r>    2.3224    1.0000 </r>
       <r>    2.3570    1.0000 </r>
       <r>    3.1929    1.0000 </r>
       <r>    3.6459    1.0000 </r>
       <r>    3.6903    1.0000 </r>
       <r>    4.4732    1.0000 </r>
       <r>    4.5666    1.0000 </r>
       <r>    4.6518    1.0000 </r>
       <r>    5.3035    1.0000 </r>
       <r>    5.5552    1.0000 </r>
       <r>    5.7371    1.0000 </r>
       <r>    7.0972    1.0000 </r>
       <r>    7.1560    1.0000 </r>
       <r>    7.8929    1.0000 </r>
       <r>    8.0399    1.0000 </r>
       <r>    8.6408    1.0000 </r>
       <r>    8.8661    1.0000 </r>
       <r>   13.9035   -0.0000 </r>
       <r>   14.0214   -0.0000 </r>
       <r>   15.3743    0.0000 </r>
       <r>   15.4666    0.0000 </r>
       <r>   15.7512    0.0000 </r>
       <r>   17.8938    0.0000 </r>
       <r>   18.1754    0.0000 </r>
       <r>   18.3214    0.0000 </r>
       <r>   19.0610    0.0000 </r>
       <r>   21.7206    0.0000 </r>
      </set>
      <set comment="kpoint 6">
       <r>    1.6453    1.0000 </r>
       <r>    2.0015    1.0000 </r>
       <r>    2.2911    1.0000 </r>
       <r>    2.2994    1.0000 </r>
       <r>    3.0129    1.0000 </r>
       <r>    3.0540    1.0000 </r>
       <r>    3.4002    1.0000 </r>
       <r>    4.1446    1.0000 </r>
       <r>    4.3092    1.0000 </r>
       <r>    4.3294    1.0000 </r>
       <r>    5.3672    1.0000 </r>
       <r>    5.7762    1.0000 </r>
       <r>    6.2976    1.0000 </r>
       <r>    6.4747    1.0000 </r>
       <r>    6.7780    1.0000 </r>
       <r>    6.9566    1.0000 </r>
       <r>    7.1712    1.0000 </r>
       <r>    7.2933    1.0000 </r>
       <r>    8.0145    1.0000 </r>
       <r>    8.5327    1.0000 </r>
       <r>   12.4260   -0.0000 </r>
       <r>   14.1907   -0.0000 </r>
       <r>   15.4448    0.0000 </r>
       <r>   15.5618    0.0000 </r>
       <r>   15.6149    0.0000 </r>
       <r>   18.0505    0.0000 </r>
       <r>   18.2101    0.0000 </r>
       <r>   18.2176    0.0000 </r>
       <r>   20.3657    0.0000 </r>
       <r>   20.8971    0.0000 </r>
      </set>
      <set comment="kpoint 7">
       <r>    1.5545    1.0000 </r>
       <r>    2.0013    1.0000 </r>
       <r>    2.2915    1.0000 </r>
       <r>    2.3487    1.0000 </r>
       <r>    2.8426    1.0000 </r>
       <r>    3.0722    1.0000 </r>
       <r>    3.6105    1.0000 </r>
       <r>    3.7575    1.0000 </r>
       <r>    4.4065    1.0000 </r>
       <r>    4.5179    1.0000 </r>
       <r>    4.9840    1.0000 </r>
       <r>    5.3707    1.0000 </r>
       <r>    5.7324    1.0000 </r>
       <r>    6.0621    1.0000 </r>
       <r>    6.9456    1.0000 </r>
       <r>    7.3308    1.0000 </r>
       <r>    7.4932    1.0000 </r>
       <r>    7.7344    1.0000 </r>
       <r>    7.9665    1.0000 </r>
       <r>    8.7594    1.0000 </r>
       <r>   13.0846   -0.0000 </r>
       <r>   13.5565   -0.0000 </r>
       <r>   14.9199   -0.0000 </r>
       <r>   15.5378    0.0000 </r>
       <r>   15.6802    0.0000 </r>
       <r>   18.0125    0.0000 </r>
       <r>   18.3374    0.0000 </r>
       <r>   18.8275    0.0000 </r>
       <r>   19.9826    0.0000 </r>
       <r>   21.1955    0.0000 </r>
      </set>
      <set comment="kpoint 8">
       <r>    1.0461    1.0000 </r>
       <r>    1.3451    1.0000 </r>
       <r>    1.5519    1.0000 </r>
       <r>    2.1425    1.0000 </r>
       <r>    2.3899    1.0000 </r>
       <r>    2.6510    1.0000 </r>
       <r>    2.9248    1.0000 </r>
       <r>    3.4045    1.0000 </r>
       <r>    3.8895    1.0000 </r>
       <r>    3.9014    1.0000 </r>
       <r>    3.9729    1.0000 </r>
       <r>    4.5931    1.0000 </r>
       <r>    6.6085    1.0000 </r>
       <r>    6.6292    1.0000 </r>
       <r>    7.3722    1.0000 </r>
       <r>    7.7780    1.0000 </r>
       <r>    8.6251    1.0000 </r>
       <r>    8.7599    1.0000 </r>
       <r>    8.9578    1.0000 </r>
       <r>    9.4332    1.0218 </r>
       <r>   10.4082   -0.0000 </r>
       <r>   10.5628   -0.0000 </r>
       <r>   12.2922   -0.0000 </r>
       <r>   14.4900   -0.0000 </r>
       <r>   16.1910    0.0000 </r>
       <r>   18.4973    0.0000 </r>
       <r>   19.3799    0.0000 </r>
       <r>   19.9112    0.0000 </r>
       <r>   21.0195    0.0000 </r>
       <r>   21.4373    0.0000 </r>
      </set>
      <set comment="kpoint 9">
       <r>    1.0463    1.0000 </r>
       <r>    1.4143    1.0000 </r>
       <r>    1.5391    1.0000 </r>
       <r>    2.1489    1.0000 </r>
       <r>    2.1994    1.0000 </r>
       <r>    2.7551    1.0000 </r>
       <r>    2.9574    1.0000 </r>
       <r>    3.4504    1.0000 </r>
       <r>    3.8290    1.0000 </r>
       <r>    3.8848    1.0000 </r>
       <r>    4.0868    1.0000 </r>
       <r>    4.6501    1.0000 </r>
       <r>    6.6036    1.0000 </r>
       <r>    6.7430    1.0000 </r>
       <r>    7.5852    1.0000 </r>
       <r>    7.7372    1.0000 </r>
       <r>    8.3021    1.0000 </r>
       <r>    8.3367    1.0000 </r>
       <r>    8.8803    1.0000 </r>
       <r>    9.4657    1.0292 </r>
       <r>   10.4728   -0.0000 </r>
       <r>   10.5396   -0.0000 </r>
       <r>   12.8248   -0.0000 </r>
       <r>   14.3175   -0.0000 </r>
       <r>   15.9478    0.0000 </r>
       <r>   18.5245    0.0000 </r>
       <r>   18.9165    0.0000 </r>
       <r>   20.7206    0.0000 </r>
       <r>   21.0878    0.0000 </r>
       <r>   21.3736    0.0000 </r>
      </set>
      <set comment="kpoint 10">
       <r>    1.0449    1.0000 </r>
       <r>    1.2864    1.0000 </r>
       <r>    1.6141    1.0000 </r>
       <r>    2.1416    1.0000 </r>
       <r>    2.3728    1.0000 </r>
       <r>    2.6799    1.0000 </r>
       <r>    2.9244    1.0000 </r>
       <r>    3.5825    1.0000 </r>
       <r>    3.7540    1.0000 </r>
       <r>    3.9173    1.0000 </r>
       <r>    4.1050    1.0000 </r>
       <r>    4.4256    1.0000 </r>
       <r>    6.2212    1.0000 </r>
       <r>    6.7634    1.0000 </r>
       <r>    7.2628    1.0000 </r>
       <r>    7.5776    1.0000 </r>
       <r>    8.8172    1.0000 </r>
       <r>    8.9623    1.0000 </r>
       <r>    9.2404    1.0008 </r>
       <r>    9.3747    1.0103 </r>
       <r>   10.7147   -0.0000 </r>
       <r>   10.7270   -0.0000 </r>
       <r>   11.7323   -0.0000 </r>
       <r>   14.5083   -0.0000 </r>
       <r>   16.0878    0.0000 </r>
       <r>   18.4890    0.0000 </r>
       <r>   19.2468    0.0000 </r>
       <r>   20.1540    0.0000 </r>
       <r>   21.1722    0.0000 </r>
       <r>   21.5642    0.0000 </r>
      </set>
      <set comment="kpoint 11">
       <r>    1.9921    1.0000 </r>
       <r>    2.0558    1.0000 </r>
       <r>    2.2088    1.0000 </r>
       <r>    3.1337    1.0000 </r>
       <r>    3.1436    1.0000 </r>
       <r>    3.5054    1.0000 </r>
       <r>    3.8625    1.0000 </r>
       <r>    4.1070    1.0000 </r>
       <r>    4.4985    1.0000 </r>
       <r>    4.7060    1.0000 </r>
       <r>    4.7767    1.0000 </r>
       <r>    5.4777    1.0000 </r>
       <r>    5.6971    1.0000 </r>
       <r>    5.8581    1.0000 </r>
       <r>    6.7128    1.0000 </r>
       <r>    6.8439    1.0000 </r>
       <r>    7.3447    1.0000 </r>
       <r>    8.4860    1.0000 </r>
       <r>    8.5892    1.0000 </r>
       <r>    9.1807    1.0002 </r>
       <r>    9.5511    1.0286 </r>
       <r>   10.2003   -0.0038 </r>
       <r>   12.7806   -0.0000 </r>
       <r>   14.5432   -0.0000 </r>
       <r>   16.7351    0.0000 </r>
       <r>   17.2017    0.0000 </r>
       <r>   19.3443    0.0000 </r>
       <r>   19.6472    0.0000 </r>
       <r>   21.6211    0.0000 </r>
       <r>   22.8951    0.0000 </r>
      </set>
      <set comment="kpoint 12">
       <r>    2.0426    1.0000 </r>
       <r>    2.2179    1.0000 </r>
       <r>    2.3344    1.0000 </r>
       <r>    3.1697    1.0000 </r>
       <r>    3.3518    1.0000 </r>
       <r>    3.3975    1.0000 </r>
       <r>    3.6226    1.0000 </r>
       <r>    3.7740    1.0000 </r>
       <r>    4.2697    1.0000 </r>
       <r>    4.4446    1.0000 </r>
       <r>    5.0936    1.0000 </r>
       <r>    5.4946    1.0000 </r>
       <r>    6.0580    1.0000 </r>
       <r>    6.1581    1.0000 </r>
       <r>    7.1315    1.0000 </r>
       <r>    7.3261    1.0000 </r>
       <r>    7.4320    1.0000 </r>
       <r>    8.1749    1.0000 </r>
       <r>    8.3693    1.0000 </r>
       <r>    8.7127    1.0000 </r>
       <r>    9.2811    1.0019 </r>
       <r>    9.3729    1.0100 </r>
       <r>   13.1554   -0.0000 </r>
       <r>   14.6133   -0.0000 </r>
       <r>   16.4846    0.0000 </r>
       <r>   17.6096    0.0000 </r>
       <r>   19.0964    0.0000 </r>
       <r>   19.3045    0.0000 </r>
       <r>   21.4617    0.0000 </r>
       <r>   23.4311    0.0000 </r>
      </set>
      <set comment="kpoint 13">
       <r>    1.9903    1.0000 </r>
       <r>    2.0684    1.0000 </r>
       <r>    2.3786    1.0000 </r>
       <r>    3.0818    1.0000 </r>
       <r>    3.1858    1.0000 </r>
       <r>    3.5070    1.0000 </r>
       <r>    3.7064    1.0000 </r>
       <r>    4.0015    1.0000 </r>
       <r>    4.5191    1.0000 </r>
       <r>    4.8049    1.0000 </r>
       <r>    4.8700    1.0000 </r>
       <r>    5.5445    1.0000 </r>
       <r>    5.6756    1.0000 </r>
       <r>    5.7222    1.0000 </r>
       <r>    6.9112    1.0000 </r>
       <r>    7.3526    1.0000 </r>
       <r>    7.4540    1.0000 </r>
       <r>    8.1826    1.0000 </r>
       <r>    8.5926    1.0000 </r>
       <r>    8.8244    1.0000 </r>
       <r>    9.2403    1.0008 </r>
       <r>    9.7867    0.3820 </r>
       <r>   12.8723   -0.0000 </r>
       <r>   14.5690   -0.0000 </r>
       <r>   16.5770    0.0000 </r>
       <r>   17.1658    0.0000 </r>
       <r>   19.1543    0.0000 </r>
       <r>   19.9768    0.0000 </r>
       <r>   21.6179    0.0000 </r>
       <r>   22.8427    0.0000 </r>
      </set>
      <set comment="kpoint 14">
       <r>    1.9936    1.0000 </r>
       <r>    2.2335    1.0000 </r>
       <r>    2.4115    1.0000 </r>
       <r>    3.0833    1.0000 </r>
       <r>    3.3479    1.0000 </r>
       <r>    3.4067    1.0000 </r>
       <r>    3.6338    1.0000 </r>
       <r>    3.6809    1.0000 </r>
       <r>    4.2707    1.0000 </r>
       <r>    4.5807    1.0000 </r>
       <r>    5.1194    1.0000 </r>
       <r>    5.6023    1.0000 </r>
       <r>    5.9940    1.0000 </r>
       <r>    6.1096    1.0000 </r>
       <r>    7.0034    1.0000 </r>
       <r>    7.5723    1.0000 </r>
       <r>    7.7117    1.0000 </r>
       <r>    8.1451    1.0000 </r>
       <r>    8.4207    1.0000 </r>
       <r>    8.4681    1.0000 </r>
       <r>    9.1622    1.0001 </r>
       <r>    9.1859    1.0002 </r>
       <r>   12.9970   -0.0000 </r>
       <r>   14.6209   -0.0000 </r>
       <r>   16.5471    0.0000 </r>
       <r>   17.5570    0.0000 </r>
       <r>   19.1079    0.0000 </r>
       <r>   19.5918    0.0000 </r>
       <r>   21.6344    0.0000 </r>
       <r>   22.8295    0.0000 </r>
      </set>
      <set comment="kpoint 15">
       <r>    1.9746    1.0000 </r>
       <r>    2.0400    1.0000 </r>
       <r>    2.1990    1.0000 </r>
       <r>    3.0850    1.0000 </r>
       <r>    3.0985    1.0000 </r>
       <r>    3.5197    1.0000 </r>
       <r>    3.8078    1.0000 </r>
       <r>    4.0836    1.0000 </r>
       <r>    4.5571    1.0000 </r>
       <r>    4.6308    1.0000 </r>
       <r>    4.9728    1.0000 </r>
       <r>    5.5541    1.0000 </r>
       <r>    5.5834    1.0000 </r>
       <r>    5.6092    1.0000 </r>
       <r>    6.8014    1.0000 </r>
       <r>    7.0971    1.0000 </r>
       <r>    7.4013    1.0000 </r>
       <r>    8.3797    1.0000 </r>
       <r>    8.6834    1.0000 </r>
       <r>    9.1496    1.0001 </r>
       <r>    9.6229    0.9520 </r>
       <r>   10.1511   -0.0090 </r>
       <r>   12.6304   -0.0000 </r>
       <r>   14.6100   -0.0000 </r>
       <r>   16.6854    0.0000 </r>
       <r>   17.1482    0.0000 </r>
       <r>   19.2357    0.0000 </r>
       <r>   19.5008    0.0000 </r>
       <r>   21.7077    0.0000 </r>
       <r>   22.8232    0.0000 </r>
      </set>
      <set comment="kpoint 16">
       <r>    2.0554    1.0000 </r>
       <r>    2.0728    1.0000 </r>
       <r>    2.3247    1.0000 </r>
       <r>    3.2271    1.0000 </r>
       <r>    3.2758    1.0000 </r>
       <r>    3.3709    1.0000 </r>
       <r>    3.8465    1.0000 </r>
       <r>    4.0735    1.0000 </r>
       <r>    4.4594    1.0000 </r>
       <r>    4.5632    1.0000 </r>
       <r>    4.9482    1.0000 </r>
       <r>    5.2499    1.0000 </r>
       <r>    5.8407    1.0000 </r>
       <r>    6.0207    1.0000 </r>
       <r>    6.8298    1.0000 </r>
       <r>    6.9519    1.0000 </r>
       <r>    7.2033    1.0000 </r>
       <r>    8.4064    1.0000 </r>
       <r>    8.5864    1.0000 </r>
       <r>    8.7996    1.0000 </r>
       <r>    9.3713    1.0098 </r>
       <r>    9.9695   -0.0299 </r>
       <r>   13.1479   -0.0000 </r>
       <r>   14.4970   -0.0000 </r>
       <r>   16.5657    0.0000 </r>
       <r>   17.2589    0.0000 </r>
       <r>   19.2547    0.0000 </r>
       <r>   19.8205    0.0000 </r>
       <r>   21.3755    0.0000 </r>
       <r>   23.4198    0.0000 </r>
      </set>
      <set comment="kpoint 17">
       <r>    2.2413    1.0000 </r>
       <r>    3.1100    1.0000 </r>
       <r>    3.2250    1.0000 </r>
       <r>    3.2502    1.0000 </r>
       <r>    3.5095    1.0000 </r>
       <r>    4.3490    1.0000 </r>
       <r>    4.4019    1.0000 </r>
       <r>    4.7308    1.0000 </r>
       <r>    4.8853    1.0000 </r>
       <r>    5.0774    1.0000 </r>
       <r>    5.1796    1.0000 </r>
       <r>    5.3342    1.0000 </r>
       <r>    5.5023    1.0000 </r>
       <r>    5.7810    1.0000 </r>
       <r>    6.4761    1.0000 </r>
       <r>    6.8745    1.0000 </r>
       <r>    7.5873    1.0000 </r>
       <r>    7.8348    1.0000 </r>
       <r>    8.3673    1.0000 </r>
       <r>    8.5705    1.0000 </r>
       <r>    9.0114    1.0000 </r>
       <r>    9.6954    0.7529 </r>
       <r>   11.9455   -0.0000 </r>
       <r>   12.9051   -0.0000 </r>
       <r>   17.8734    0.0000 </r>
       <r>   18.6752    0.0000 </r>
       <r>   20.5066    0.0000 </r>
       <r>   20.8205    0.0000 </r>
       <r>   21.0728    0.0000 </r>
       <r>   21.8086    0.0000 </r>
      </set>
      <set comment="kpoint 18">
       <r>    2.0907    1.0000 </r>
       <r>    3.0665    1.0000 </r>
       <r>    3.1405    1.0000 </r>
       <r>    3.1819    1.0000 </r>
       <r>    3.4287    1.0000 </r>
       <r>    3.9297    1.0000 </r>
       <r>    4.6409    1.0000 </r>
       <r>    4.7920    1.0000 </r>
       <r>    4.9454    1.0000 </r>
       <r>    5.0709    1.0000 </r>
       <r>    5.0930    1.0000 </r>
       <r>    5.4354    1.0000 </r>
       <r>    5.4375    1.0000 </r>
       <r>    5.8057    1.0000 </r>
       <r>    6.3238    1.0000 </r>
       <r>    7.0954    1.0000 </r>
       <r>    7.7521    1.0000 </r>
       <r>    7.9829    1.0000 </r>
       <r>    8.5405    1.0000 </r>
       <r>    8.9157    1.0000 </r>
       <r>    9.0250    1.0000 </r>
       <r>    9.3808    1.0113 </r>
       <r>   12.7144   -0.0000 </r>
       <r>   12.9480   -0.0000 </r>
       <r>   17.6942    0.0000 </r>
       <r>   18.3928    0.0000 </r>
       <r>   20.2833    0.0000 </r>
       <r>   20.3929    0.0000 </r>
       <r>   20.7139    0.0000 </r>
       <r>   22.0455    0.0000 </r>
      </set>
      <set comment="kpoint 19">
       <r>    2.4141    1.0000 </r>
       <r>    3.1503    1.0000 </r>
       <r>    3.2419    1.0000 </r>
       <r>    3.2964    1.0000 </r>
       <r>    3.6188    1.0000 </r>
       <r>    4.2502    1.0000 </r>
       <r>    4.4018    1.0000 </r>
       <r>    4.7236    1.0000 </r>
       <r>    4.8321    1.0000 </r>
       <r>    5.0523    1.0000 </r>
       <r>    5.1553    1.0000 </r>
       <r>    5.2253    1.0000 </r>
       <r>    5.5366    1.0000 </r>
       <r>    5.7335    1.0000 </r>
       <r>    6.5375    1.0000 </r>
       <r>    6.9065    1.0000 </r>
       <r>    7.4342    1.0000 </r>
       <r>    7.7228    1.0000 </r>
       <r>    8.4496    1.0000 </r>
       <r>    8.9397    1.0000 </r>
       <r>    9.1421    1.0001 </r>
       <r>   10.1354   -0.0114 </r>
       <r>   11.4230   -0.0000 </r>
       <r>   12.5900   -0.0000 </r>
       <r>   17.7720    0.0000 </r>
       <r>   18.6394    0.0000 </r>
       <r>   20.2946    0.0000 </r>
       <r>   20.9347    0.0000 </r>
       <r>   21.2946    0.0000 </r>
       <r>   21.6520    0.0000 </r>
      </set>
      <set comment="kpoint 20">
       <r>    1.4698    1.0000 </r>
       <r>    2.2725    1.0000 </r>
       <r>    2.3583    1.0000 </r>
       <r>    2.5190    1.0000 </r>
       <r>    2.8468    1.0000 </r>
       <r>    3.0745    1.0000 </r>
       <r>    3.3395    1.0000 </r>
       <r>    4.1233    1.0000 </r>
       <r>    4.3616    1.0000 </r>
       <r>    4.4806    1.0000 </r>
       <r>    4.7294    1.0000 </r>
       <r>    4.8067    1.0000 </r>
       <r>    6.0440    1.0000 </r>
       <r>    6.7702    1.0000 </r>
       <r>    6.8749    1.0000 </r>
       <r>    7.2624    1.0000 </r>
       <r>    7.8589    1.0000 </r>
       <r>    8.3090    1.0000 </r>
       <r>    9.1659    1.0001 </r>
       <r>    9.7451    0.5564 </r>
       <r>   11.0282   -0.0000 </r>
       <r>   11.2518   -0.0000 </r>
       <r>   12.6541   -0.0000 </r>
       <r>   13.0819   -0.0000 </r>
       <r>   17.0234    0.0000 </r>
       <r>   17.6312    0.0000 </r>
       <r>   18.3116    0.0000 </r>
       <r>   20.8784    0.0000 </r>
       <r>   21.1345    0.0000 </r>
       <r>   21.2091    0.0000 </r>
      </set>
      <set comment="kpoint 21">
       <r>    2.3533    1.0000 </r>
       <r>    2.4332    1.0000 </r>
       <r>    2.4761    1.0000 </r>
       <r>    3.0458    1.0000 </r>
       <r>    3.3366    1.0000 </r>
       <r>    3.7920    1.0000 </r>
       <r>    4.0825    1.0000 </r>
       <r>    4.5262    1.0000 </r>
       <r>    4.7252    1.0000 </r>
       <r>    4.8203    1.0000 </r>
       <r>    5.0388    1.0000 </r>
       <r>    5.5221    1.0000 </r>
       <r>    5.5844    1.0000 </r>
       <r>    5.8552    1.0000 </r>
       <r>    6.1864    1.0000 </r>
       <r>    7.3756    1.0000 </r>
       <r>    8.1743    1.0000 </r>
       <r>    8.5269    1.0000 </r>
       <r>    9.2408    1.0008 </r>
       <r>    9.6197    0.9578 </r>
       <r>    9.8919    0.0522 </r>
       <r>   10.8856   -0.0000 </r>
       <r>   13.5417   -0.0000 </r>
       <r>   13.8161   -0.0000 </r>
       <r>   15.4595    0.0000 </r>
       <r>   15.5998    0.0000 </r>
       <r>   19.9624    0.0000 </r>
       <r>   20.9184    0.0000 </r>
       <r>   21.9917    0.0000 </r>
       <r>   22.2342    0.0000 </r>
      </set>
      <set comment="kpoint 22">
       <r>    2.4378    1.0000 </r>
       <r>    2.5022    1.0000 </r>
       <r>    2.8598    1.0000 </r>
       <r>    3.0989    1.0000 </r>
       <r>    3.3055    1.0000 </r>
       <r>    3.4218    1.0000 </r>
       <r>    3.9138    1.0000 </r>
       <r>    4.2361    1.0000 </r>
       <r>    4.5755    1.0000 </r>
       <r>    5.0032    1.0000 </r>
       <r>    5.6379    1.0000 </r>
       <r>    5.7170    1.0000 </r>
       <r>    5.9377    1.0000 </r>
       <r>    5.9714    1.0000 </r>
       <r>    6.1924    1.0000 </r>
       <r>    6.9770    1.0000 </r>
       <r>    7.8118    1.0000 </r>
       <r>    8.2041    1.0000 </r>
       <r>    8.9784    1.0000 </r>
       <r>    9.3537    1.0074 </r>
       <r>   10.5071   -0.0000 </r>
       <r>   10.6679   -0.0000 </r>
       <r>   13.3728   -0.0000 </r>
       <r>   14.0015   -0.0000 </r>
       <r>   14.9867   -0.0000 </r>
       <r>   15.9861    0.0000 </r>
       <r>   20.0458    0.0000 </r>
       <r>   21.0446    0.0000 </r>
       <r>   22.1512    0.0000 </r>
       <r>   22.2496    0.0000 </r>
      </set>
      <set comment="kpoint 23">
       <r>    2.4236    1.0000 </r>
       <r>    2.4934    1.0000 </r>
       <r>    2.7232    1.0000 </r>
       <r>    2.9412    1.0000 </r>
       <r>    3.3080    1.0000 </r>
       <r>    3.6669    1.0000 </r>
       <r>    3.9900    1.0000 </r>
       <r>    4.4362    1.0000 </r>
       <r>    4.7518    1.0000 </r>
       <r>    4.9328    1.0000 </r>
       <r>    5.3310    1.0000 </r>
       <r>    5.5545    1.0000 </r>
       <r>    5.6197    1.0000 </r>
       <r>    5.8211    1.0000 </r>
       <r>    6.1879    1.0000 </r>
       <r>    7.2260    1.0000 </r>
       <r>    7.9461    1.0000 </r>
       <r>    8.4352    1.0000 </r>
       <r>    9.2142    1.0004 </r>
       <r>    9.4750    1.0311 </r>
       <r>    9.9108    0.0204 </r>
       <r>   10.9694   -0.0000 </r>
       <r>   13.3660   -0.0000 </r>
       <r>   13.9263   -0.0000 </r>
       <r>   14.9571   -0.0000 </r>
       <r>   16.1963    0.0000 </r>
       <r>   19.8906    0.0000 </r>
       <r>   20.7797    0.0000 </r>
       <r>   22.1550    0.0000 </r>
       <r>   22.3236    0.0000 </r>
      </set>
      <set comment="kpoint 24">
       <r>    2.4607    1.0000 </r>
       <r>    3.0096    1.0000 </r>
       <r>    3.2324    1.0000 </r>
       <r>    3.4180    1.0000 </r>
       <r>    3.6928    1.0000 </r>
       <r>    3.8939    1.0000 </r>
       <r>    4.4202    1.0000 </r>
       <r>    4.6385    1.0000 </r>
       <r>    4.9656    1.0000 </r>
       <r>    5.1410    1.0000 </r>
       <r>    5.4985    1.0000 </r>
       <r>    5.8069    1.0000 </r>
       <r>    6.0731    1.0000 </r>
       <r>    6.1324    1.0000 </r>
       <r>    6.5269    1.0000 </r>
       <r>    7.6752    1.0000 </r>
       <r>    8.7252    1.0000 </r>
       <r>    8.8567    1.0000 </r>
       <r>    9.6688    0.8406 </r>
       <r>    9.7729    0.4391 </r>
       <r>    9.8742    0.0899 </r>
       <r>   10.3661   -0.0001 </r>
       <r>   12.0993   -0.0000 </r>
       <r>   13.4621   -0.0000 </r>
       <r>   15.5135    0.0000 </r>
       <r>   17.2723    0.0000 </r>
       <r>   17.6250    0.0000 </r>
       <r>   19.6737    0.0000 </r>
       <r>   22.3859    0.0000 </r>
       <r>   24.4517    0.0000 </r>
      </set>
      <set comment="kpoint 25">
       <r>    2.4532    1.0000 </r>
       <r>    3.0111    1.0000 </r>
       <r>    3.2352    1.0000 </r>
       <r>    3.3633    1.0000 </r>
       <r>    3.6864    1.0000 </r>
       <r>    3.8380    1.0000 </r>
       <r>    4.1880    1.0000 </r>
       <r>    4.4974    1.0000 </r>
       <r>    5.0178    1.0000 </r>
       <r>    5.2803    1.0000 </r>
       <r>    5.6692    1.0000 </r>
       <r>    5.8039    1.0000 </r>
       <r>    5.9635    1.0000 </r>
       <r>    6.1701    1.0000 </r>
       <r>    6.4951    1.0000 </r>
       <r>    7.6776    1.0000 </r>
       <r>    8.8087    1.0000 </r>
       <r>    9.0095    1.0000 </r>
       <r>    9.6451    0.9047 </r>
       <r>    9.7357    0.5957 </r>
       <r>    9.8962    0.0442 </r>
       <r>   10.4200   -0.0000 </r>
       <r>   12.6617   -0.0000 </r>
       <r>   13.6582   -0.0000 </r>
       <r>   15.1801   -0.0000 </r>
       <r>   16.7293    0.0000 </r>
       <r>   17.5287    0.0000 </r>
       <r>   19.8250    0.0000 </r>
       <r>   22.4738    0.0000 </r>
       <r>   24.3216    0.0000 </r>
      </set>
      <set comment="kpoint 26">
       <r>    2.4827    1.0000 </r>
       <r>    3.0330    1.0000 </r>
       <r>    3.2356    1.0000 </r>
       <r>    3.3149    1.0000 </r>
       <r>    3.6854    1.0000 </r>
       <r>    4.0751    1.0000 </r>
       <r>    4.2425    1.0000 </r>
       <r>    4.8107    1.0000 </r>
       <r>    4.9185    1.0000 </r>
       <r>    5.1232    1.0000 </r>
       <r>    5.2778    1.0000 </r>
       <r>    5.7171    1.0000 </r>
       <r>    5.8584    1.0000 </r>
       <r>    6.3517    1.0000 </r>
       <r>    6.7821    1.0000 </r>
       <r>    7.7611    1.0000 </r>
       <r>    8.7509    1.0000 </r>
       <r>    9.1441    1.0001 </r>
       <r>    9.4138    1.0175 </r>
       <r>    9.5762    1.0133 </r>
       <r>   10.3930   -0.0000 </r>
       <r>   10.5340   -0.0000 </r>
       <r>   11.4577   -0.0000 </r>
       <r>   13.3491   -0.0000 </r>
       <r>   15.4351    0.0000 </r>
       <r>   17.2534    0.0000 </r>
       <r>   17.7397    0.0000 </r>
       <r>   19.7496    0.0000 </r>
       <r>   22.2454    0.0000 </r>
       <r>   24.2868    0.0000 </r>
      </set>
      <set comment="kpoint 27">
       <r>    2.2037    1.0000 </r>
       <r>    2.2890    1.0000 </r>
       <r>    2.3799    1.0000 </r>
       <r>    2.8036    1.0000 </r>
       <r>    3.7570    1.0000 </r>
       <r>    3.9594    1.0000 </r>
       <r>    4.0951    1.0000 </r>
       <r>    4.7239    1.0000 </r>
       <r>    5.1254    1.0000 </r>
       <r>    5.2824    1.0000 </r>
       <r>    5.4800    1.0000 </r>
       <r>    5.7111    1.0000 </r>
       <r>    7.1815    1.0000 </r>
       <r>    7.9117    1.0000 </r>
       <r>    8.0284    1.0000 </r>
       <r>    8.1073    1.0000 </r>
       <r>    8.4172    1.0000 </r>
       <r>    9.0109    1.0000 </r>
       <r>   10.2295   -0.0022 </r>
       <r>   10.4503   -0.0000 </r>
       <r>   10.4906   -0.0000 </r>
       <r>   10.6143   -0.0000 </r>
       <r>   11.6882   -0.0000 </r>
       <r>   11.9730   -0.0000 </r>
       <r>   14.5264   -0.0000 </r>
       <r>   14.6130   -0.0000 </r>
       <r>   15.6339    0.0000 </r>
       <r>   17.4378    0.0000 </r>
       <r>   25.5072    0.0000 </r>
       <r>   25.8059    0.0000 </r>
      </set>
     </set>
    </set>
   </array>
  </eigenvalues>
  <separator name="orbital magnetization" >
   <v name="MAGDIPOLOUT">      0.00000000      0.00000000      0.00000000</v>
  </separator>
  <dos>
   <i name="efermi">      9.75849588 </i>
   <total>
    <array>
     <dimension dim="1">gridpoints</dimension>
     <dimension dim="2">spin</dimension>
     <field>energy</field>
     <field>total</field>
     <field>integrated</field>
     <set>
      <set comment="spin 1">
       <r>    -1.8787     0.0000     0.0000 </r>
       <r>    -1.7798     0.0000     0.0000 </r>
       <r>    -1.6808     0.0000     0.0000 </r>
       <r>    -1.5819     0.0000     0.0000 </r>
       <r>    -1.4829    -0.0000    -0.0000 </r>
       <r>    -1.3840    -0.0000    -0.0000 </r>
       <r>    -1.2850    -0.0000    -0.0000 </r>
       <r>    -1.1861    -0.0000    -0.0000 </r>
       <r>    -1.0871    -0.0000    -0.0000 </r>
       <r>    -0.9882    -0.0000    -0.0000 </r>
       <r>    -0.8892    -0.0000    -0.0000 </r>
       <r>    -0.7903    -0.0000    -0.0000 </r>
       <r>    -0.6913    -0.0000    -0.0000 </r>
       <r>    -0.5924    -0.0000    -0.0000 </r>
       <r>    -0.4935    -0.0000    -0.0000 </r>
       <r>    -0.3945    -0.0001    -0.0000 </r>
       <r>    -0.2956    -0.0008    -0.0001 </r>
       <r>    -0.1966    -0.0028    -0.0004 </r>
       <r>    -0.0977    -0.0014    -0.0005 </r>
       <r>     0.0013     0.0181     0.0013 </r>
       <r>     0.1002     0.0527     0.0065 </r>
       <r>     0.1992     0.0575     0.0122 </r>
       <r>     0.2981     0.0156     0.0137 </r>
       <r>     0.3971     0.0015     0.0139 </r>
       <r>     0.4960     0.1219     0.0259 </r>
       <r>     0.5950     0.3244     0.0580 </r>
       <r>     0.6939     0.3419     0.0918 </r>
       <r>     0.7929     0.1378     0.1055 </r>
       <r>     0.8918     0.1021     0.1156 </r>
       <r>     0.9908     0.4694     0.1620 </r>
       <r>     1.0897     0.8570     0.2468 </r>
       <r>     1.1887     0.8897     0.3349 </r>
       <r>     1.2876     0.9085     0.4248 </r>
       <r>     1.3866     1.2750     0.5509 </r>
       <r>     1.4855     1.7604     0.7251 </r>
       <r>     1.5845     1.8252     0.9057 </r>
       <r>     1.6834     1.2574     1.0301 </r>
       <r>     1.7824     0.5621     1.0857 </r>
       <r>     1.8813     0.6238     1.1475 </r>
       <r>     1.9803     1.8861     1.3341 </r>
       <r>     2.0792     3.5512     1.6855 </r>
       <r>     2.1782     4.8759     2.1679 </r>
       <r>     2.2771     6.5525     2.8163 </r>
       <r>     2.3761     8.6373     3.6710 </r>
       <r>     2.4750     8.9781     4.5593 </r>
       <r>     2.5740     6.2850     5.1812 </r>
       <r>     2.6729     3.1309     5.4910 </r>
       <r>     2.7719     2.2825     5.7169 </r>
       <r>     2.8708     3.3215     6.0455 </r>
       <r>     2.9698     5.2123     6.5613 </r>
       <r>     3.0687     7.4495     7.2984 </r>
       <r>     3.1677     9.0237     8.1913 </r>
       <r>     3.2666     9.4986     9.1312 </r>
       <r>     3.3656     8.8670    10.0085 </r>
       <r>     3.4645     6.9771    10.6989 </r>
       <r>     3.5634     5.3172    11.2250 </r>
       <r>     3.6624     5.5713    11.7763 </r>
       <r>     3.7613     6.6493    12.4343 </r>
       <r>     3.8603     6.9422    13.1212 </r>
       <r>     3.9592     6.6018    13.7744 </r>
       <r>     4.0582     6.2234    14.3902 </r>
       <r>     4.1571     5.7102    14.9552 </r>
       <r>     4.2561     4.9248    15.4425 </r>
       <r>     4.3550     4.7921    15.9167 </r>
       <r>     4.4540     5.7847    16.4891 </r>
       <r>     4.5529     6.7043    17.1525 </r>
       <r>     4.6519     6.9218    17.8374 </r>
       <r>     4.7508     7.0193    18.5319 </r>
       <r>     4.8498     6.8981    19.2145 </r>
       <r>     4.9487     6.5131    19.8590 </r>
       <r>     5.0477     6.3069    20.4830 </r>
       <r>     5.1466     5.8841    21.0652 </r>
       <r>     5.2456     4.9366    21.5537 </r>
       <r>     5.3445     4.1407    21.9634 </r>
       <r>     5.4435     4.4462    22.4034 </r>
       <r>     5.5424     5.9598    22.9931 </r>
       <r>     5.6414     7.3570    23.7211 </r>
       <r>     5.7403     7.6295    24.4760 </r>
       <r>     5.8393     6.8497    25.1538 </r>
       <r>     5.9382     5.5905    25.7069 </r>
       <r>     6.0372     4.8885    26.1906 </r>
       <r>     6.1361     4.8603    26.6716 </r>
       <r>     6.2351     4.2568    27.0928 </r>
       <r>     6.3340     2.8180    27.3716 </r>
       <r>     6.4330     1.9209    27.5617 </r>
       <r>     6.5319     2.0343    27.7630 </r>
       <r>     6.6309     2.4305    28.0035 </r>
       <r>     6.7298     3.1151    28.3117 </r>
       <r>     6.8288     3.9845    28.7060 </r>
       <r>     6.9277     4.0109    29.1028 </r>
       <r>     7.0267     3.2367    29.4231 </r>
       <r>     7.1256     2.9411    29.7141 </r>
       <r>     7.2246     3.5259    30.0630 </r>
       <r>     7.3235     4.0578    30.4645 </r>
       <r>     7.4224     3.7327    30.8339 </r>
       <r>     7.5214     2.9833    31.1291 </r>
       <r>     7.6203     3.0154    31.4274 </r>
       <r>     7.7193     3.8977    31.8131 </r>
       <r>     7.8182     4.3490    32.2434 </r>
       <r>     7.9172     3.8640    32.6258 </r>
       <r>     8.0161     3.2107    32.9435 </r>
       <r>     8.1151     2.9906    33.2394 </r>
       <r>     8.2140     3.0875    33.5449 </r>
       <r>     8.3130     3.4459    33.8859 </r>
       <r>     8.4119     4.1213    34.2937 </r>
       <r>     8.5109     4.4467    34.7337 </r>
       <r>     8.6098     4.1019    35.1395 </r>
       <r>     8.7088     3.8865    35.5241 </r>
       <r>     8.8077     4.2034    35.9400 </r>
       <r>     8.9067     4.5084    36.3861 </r>
       <r>     9.0056     4.4793    36.8293 </r>
       <r>     9.1046     4.4625    37.2709 </r>
       <r>     9.2035     4.6977    37.7357 </r>
       <r>     9.3025     4.6774    38.1986 </r>
       <r>     9.4014     4.1699    38.6112 </r>
       <r>     9.5004     3.6406    38.9714 </r>
       <r>     9.5993     3.6388    39.3314 </r>
       <r>     9.6983     4.1179    39.7389 </r>
       <r>     9.7972     4.2955    40.1639 </r>
       <r>     9.8962     3.7250    40.5325 </r>
       <r>     9.9951     2.5063    40.7805 </r>
       <r>    10.0941     1.3958    40.9186 </r>
       <r>    10.1930     1.2344    41.0408 </r>
       <r>    10.2920     2.0012    41.2388 </r>
       <r>    10.3909     3.4269    41.5779 </r>
       <r>    10.4899     4.6567    42.0386 </r>
       <r>    10.5888     4.4477    42.4787 </r>
       <r>    10.6878     3.0755    42.7831 </r>
       <r>    10.7867     1.8225    42.9634 </r>
       <r>    10.8857     1.3236    43.0944 </r>
       <r>    10.9846     1.3008    43.2231 </r>
       <r>    11.0836     1.1068    43.3326 </r>
       <r>    11.1825     0.7883    43.4106 </r>
       <r>    11.2815     0.7856    43.4883 </r>
       <r>    11.3804     0.9458    43.5819 </r>
       <r>    11.4793     0.9283    43.6738 </r>
       <r>    11.5783     0.7653    43.7495 </r>
       <r>    11.6772     0.7203    43.8208 </r>
       <r>    11.7762     0.7269    43.8927 </r>
       <r>    11.8751     0.7184    43.9638 </r>
       <r>    11.9741     0.9086    44.0537 </r>
       <r>    12.0730     1.0414    44.1567 </r>
       <r>    12.1720     0.8061    44.2365 </r>
       <r>    12.2709     0.4619    44.2822 </r>
       <r>    12.3699     0.2987    44.3117 </r>
       <r>    12.4688     0.4283    44.3541 </r>
       <r>    12.5678     1.0287    44.4559 </r>
       <r>    12.6667     1.8083    44.6348 </r>
       <r>    12.7657     2.0247    44.8352 </r>
       <r>    12.8646     1.7722    45.0105 </r>
       <r>    12.9636     1.7101    45.1797 </r>
       <r>    13.0625     1.8210    45.3599 </r>
       <r>    13.1615     1.6831    45.5265 </r>
       <r>    13.2604     1.5710    45.6819 </r>
       <r>    13.3594     2.0686    45.8866 </r>
       <r>    13.4583     2.5068    46.1346 </r>
       <r>    13.5573     2.0835    46.3408 </r>
       <r>    13.6562     1.3613    46.4755 </r>
       <r>    13.7552     1.1060    46.5849 </r>
       <r>    13.8541     1.3825    46.7217 </r>
       <r>    13.9531     1.6487    46.8849 </r>
       <r>    14.0520     1.3460    47.0181 </r>
       <r>    14.1510     0.6826    47.0856 </r>
       <r>    14.2499     0.2675    47.1121 </r>
       <r>    14.3489     0.4113    47.1528 </r>
       <r>    14.4478     1.3579    47.2871 </r>
       <r>    14.5468     2.6835    47.5527 </r>
       <r>    14.6457     2.8739    47.8370 </r>
       <r>    14.7447     1.6348    47.9988 </r>
       <r>    14.8436     0.6821    48.0663 </r>
       <r>    14.9426     0.8571    48.1511 </r>
       <r>    15.0415     1.1448    48.2644 </r>
       <r>    15.1405     0.8893    48.3524 </r>
       <r>    15.2394     0.5547    48.4073 </r>
       <r>    15.3384     0.7540    48.4819 </r>
       <r>    15.4373     1.6889    48.6490 </r>
       <r>    15.5362     2.5924    48.9055 </r>
       <r>    15.6352     2.4842    49.1513 </r>
       <r>    15.7341     1.5330    49.3030 </r>
       <r>    15.8331     0.7623    49.3784 </r>
       <r>    15.9320     0.7475    49.4524 </r>
       <r>    16.0310     1.0943    49.5607 </r>
       <r>    16.1299     1.2917    49.6885 </r>
       <r>    16.2289     1.1570    49.8029 </r>
       <r>    16.3278     0.6960    49.8718 </r>
       <r>    16.4268     0.4406    49.9154 </r>
       <r>    16.5257     0.8194    49.9965 </r>
       <r>    16.6247     1.4053    50.1356 </r>
       <r>    16.7236     1.5791    50.2918 </r>
       <r>    16.8226     1.1400    50.4046 </r>
       <r>    16.9215     0.5568    50.4597 </r>
       <r>    17.0205     0.5325    50.5124 </r>
       <r>    17.1194     1.1255    50.6237 </r>
       <r>    17.2184     1.8078    50.8026 </r>
       <r>    17.3173     1.8926    50.9899 </r>
       <r>    17.4163     1.5250    51.1408 </r>
       <r>    17.5152     1.6884    51.3079 </r>
       <r>    17.6142     2.3894    51.5443 </r>
       <r>    17.7131     2.5946    51.8010 </r>
       <r>    17.8121     1.9429    51.9933 </r>
       <r>    17.9110     1.0692    52.0990 </r>
       <r>    18.0100     0.5256    52.1511 </r>
       <r>    18.1089     0.4239    52.1930 </r>
       <r>    18.2079     0.7527    52.2675 </r>
       <r>    18.3068     1.2535    52.3915 </r>
       <r>    18.4058     1.4900    52.5389 </r>
       <r>    18.5047     1.4233    52.6798 </r>
       <r>    18.6037     1.2288    52.8014 </r>
       <r>    18.7026     0.8962    52.8900 </r>
       <r>    18.8016     0.5266    52.9421 </r>
       <r>    18.9005     0.3667    52.9784 </r>
       <r>    18.9995     0.5209    53.0300 </r>
       <r>    19.0984     0.9666    53.1256 </r>
       <r>    19.1974     1.4883    53.2729 </r>
       <r>    19.2963     1.6822    53.4393 </r>
       <r>    19.3953     1.3688    53.5748 </r>
       <r>    19.4942     0.9534    53.6691 </r>
       <r>    19.5931     1.0154    53.7696 </r>
       <r>    19.6921     1.5670    53.9246 </r>
       <r>    19.7910     2.2128    54.1436 </r>
       <r>    19.8900     2.6478    54.4056 </r>
       <r>    19.9889     2.6843    54.6712 </r>
       <r>    20.0879     2.3575    54.9045 </r>
       <r>    20.1868     1.9719    55.0996 </r>
       <r>    20.2858     1.6517    55.2630 </r>
       <r>    20.3847     1.2487    55.3866 </r>
       <r>    20.4837     0.7597    55.4617 </r>
       <r>    20.5826     0.4527    55.5065 </r>
       <r>    20.6816     0.6890    55.5747 </r>
       <r>    20.7805     1.4524    55.7184 </r>
       <r>    20.8795     2.1759    55.9337 </r>
       <r>    20.9784     2.5132    56.1824 </r>
       <r>    21.0774     2.6567    56.4453 </r>
       <r>    21.1763     2.6128    56.7038 </r>
       <r>    21.2753     2.2079    56.9223 </r>
       <r>    21.3742     1.7004    57.0906 </r>
       <r>    21.4732     1.4363    57.2327 </r>
       <r>    21.5721     1.5208    57.3832 </r>
       <r>    21.6711     1.6559    57.5470 </r>
       <r>    21.7700     1.3152    57.6772 </r>
       <r>    21.8690     0.7320    57.7496 </r>
       <r>    21.9679     0.6386    57.8128 </r>
       <r>    22.0669     1.2521    57.9367 </r>
       <r>    22.1658     2.2713    58.1614 </r>
       <r>    22.2648     2.9741    58.4557 </r>
       <r>    22.3637     2.6953    58.7224 </r>
       <r>    22.4627     1.7123    58.8918 </r>
       <r>    22.5616     0.7244    58.9635 </r>
       <r>    22.6606     0.2138    58.9847 </r>
       <r>    22.7595     0.4265    59.0269 </r>
       <r>    22.8585     0.9139    59.1173 </r>
       <r>    22.9574     0.8639    59.2028 </r>
       <r>    23.0564     0.3381    59.2362 </r>
       <r>    23.1553    -0.0203    59.2342 </r>
       <r>    23.2543    -0.0058    59.2336 </r>
       <r>    23.3532     0.2655    59.2599 </r>
       <r>    23.4522     0.5095    59.3103 </r>
       <r>    23.5511     0.4138    59.3513 </r>
       <r>    23.6500     0.1313    59.3643 </r>
       <r>    23.7490    -0.0153    59.3628 </r>
       <r>    23.8479    -0.0288    59.3599 </r>
       <r>    23.9469    -0.0388    59.3561 </r>
       <r>    24.0458    -0.0575    59.3504 </r>
       <r>    24.1448     0.0998    59.3603 </r>
       <r>    24.2437     0.6314    59.4227 </r>
       <r>    24.3427     1.2045    59.5419 </r>
       <r>    24.4416     1.2151    59.6622 </r>
       <r>    24.5406     0.7050    59.7319 </r>
       <r>    24.6395     0.1959    59.7513 </r>
       <r>    24.7385    -0.0224    59.7491 </r>
       <r>    24.8374    -0.0369    59.7454 </r>
       <r>    24.9364    -0.0125    59.7442 </r>
       <r>    25.0353    -0.0045    59.7437 </r>
       <r>    25.1343    -0.0131    59.7425 </r>
       <r>    25.2332    -0.0271    59.7398 </r>
       <r>    25.3322     0.0311    59.7429 </r>
       <r>    25.4311     0.2581    59.7684 </r>
       <r>    25.5301     0.4823    59.8161 </r>
       <r>    25.6290     0.4553    59.8612 </r>
       <r>    25.7280     0.4060    59.9013 </r>
       <r>    25.8269     0.4946    59.9503 </r>
       <r>    25.9259     0.4065    59.9905 </r>
       <r>    26.0248     0.1388    60.0042 </r>
       <r>    26.1238    -0.0123    60.0030 </r>
       <r>    26.2227    -0.0227    60.0008 </r>
       <r>    26.3217    -0.0068    60.0001 </r>
       <r>    26.4206    -0.0010    60.0000 </r>
       <r>    26.5196    -0.0001    60.0000 </r>
       <r>    26.6185    -0.0000    60.0000 </r>
       <r>    26.7175    -0.0000    60.0000 </r>
       <r>    26.8164    -0.0000    60.0000 </r>
       <r>    26.9154    -0.0000    60.0000 </r>
       <r>    27.0143    -0.0000    60.0000 </r>
       <r>    27.1133    -0.0000    60.0000 </r>
       <r>    27.2122     0.0000    60.0000 </r>
       <r>    27.3112     0.0000    60.0000 </r>
       <r>    27.4101     0.0000    60.0000 </r>
       <r>    27.5090     0.0000    60.0000 </r>
       <r>    27.6080     0.0000    60.0000 </r>
       <r>    27.7069     0.0000    60.0000 </r>
       <r>    27.8059     0.0000    60.0000 </r>
      </set>
     </set>
    </array>
   </total>
  </dos>
 </calculation>
 <structure name="finalpos" >
  <crystal>
   <varray name="basis" >
    <v>       3.86600000       0.00000000       0.00000000 </v>
    <v>       0.00000000       3.86600000       0.00000000 </v>
    <v>       0.00000000       0.00000000       3.86600000 </v>
   </varray>
   <i name="volume">     57.78106590 </i>
   <varray name="rec_basis" >
    <v>       0.25866529       0.00000000       0.00000000 </v>
    <v>       0.00000000       0.25866529       0.00000000 </v>
    <v>       0.00000000       0.00000000       0.25866529 </v>
   </varray>
  </crystal>
  <varray name="positions" >
   <v>       0.00000000       0.00000000       0.00000000 </v>
   <v>       0.50000000       0.50000000       0.00000000 </v>
   <v>       0.50000000       0.00000000       0.50000000 </v>
   <v>       0.00000000       0.50000000       0.50000000 </v>
  </varray>
 </structure>
</modeling>
