unknown system                          
   1.00000000000000     
     2.236800    0.000000    0.000000
    -1.118400    1.937126    0.000000
     0.000000    0.000000    3.798240
   Fe
     2
Direct
  0.000000  0.000000  0.000000
  0.333333  0.666667  0.500000
 
   20   20   32
  137.99      131.31      113.21      88.524      62.829      40.554      24.215      14.410      10.062      8.8818    
  8.6212      8.8818      10.062      14.410      24.215      40.554      62.829      88.524      113.21      131.31    
  131.31      131.31      118.95      97.695      72.802      49.255      30.467      17.949      11.421      9.1348    
  8.5967      8.5966      9.1347      11.421      17.948      30.466      49.254      72.804      97.699      118.95    
  113.21      118.92      113.21      97.695      76.468      54.303      35.106      21.157      12.983      9.5181    
  8.5823      8.3292      8.5821      9.5182      12.983      21.156      35.104      54.302      76.469      97.699    
  88.523      97.620      97.621      88.524      72.802      54.303      36.820      23.066      14.235      9.9550    
  8.5774      8.1194      8.1193      8.5774      9.9555      14.236      23.066      36.818      54.300      72.800    
  62.824      72.701      76.326      72.705      62.829      49.255      35.106      23.066      14.715      10.250    
  8.5894      7.9843      7.7666      7.9841      8.5894      10.251      14.716      23.068      35.106      49.252    
  40.553      49.173      54.155      54.157      49.175      40.554      30.467      21.157      14.235      10.250    
  8.5994      7.9207      7.5560      7.5560      7.9204      8.5987      10.250      14.237      21.160      30.469    
  24.219      30.438      35.024      36.712      35.022      30.435      24.215      17.949      12.983      9.9550    
  8.5894      7.9207      7.4874      7.3393      7.4875      7.9201      8.5877      9.9533      12.983      17.951    
  14.410      17.970      21.168      23.059      23.057      21.164      17.967      14.410      11.421      9.5181    
  8.5773      7.9843      7.5560      7.3393      7.3397      7.5567      7.9842      8.5756      9.5151      11.419    
  10.058      11.468      13.061      14.325      14.806      14.324      13.061      11.470      10.062      9.1348    
  8.5823      8.1194      7.7666      7.5560      7.4875      7.5567      7.7682      8.1211      8.5823      9.1322    
  8.8817      9.1903      9.6238      10.098      10.412      10.413      10.100      9.6269      9.1928      8.8818    
  8.5967      8.3292      8.1193      7.9841      7.9204      7.9201      7.9842      8.1211      8.3324      8.5992    
  8.6249      8.6581      8.6970      8.7380      8.7826      8.8050      8.7842      8.7397      8.6969      8.6556    
  8.6212      8.5966      8.5821      8.5774      8.5894      8.5987      8.5877      8.5756      8.5823      8.5992    
  8.8817      8.6581      8.4484      8.2889      8.1929      8.1519      8.1522      8.1929      8.2872      8.4452    
  8.6557      8.8818      9.1347      9.5182      9.9555      10.251      10.250      9.9533      9.5151      9.1322    
  10.058      9.1903      8.6970      8.2889      7.9820      7.8029      7.7455      7.8022      7.9804      8.2872    
  8.6970      9.1929      10.062      11.421      12.983      14.236      14.716      14.237      12.983      11.419    
  14.410      11.468      9.6238      8.7380      8.1929      7.8029      7.6073      7.6069      7.8022      8.1930    
  8.7397      9.6268      11.470      14.410      17.948      21.156      23.066      23.068      21.160      17.951    
  24.219      17.970      13.061      10.098      8.7826      8.1519      7.7455      7.6069      7.7453      8.1525    
  8.7842      10.099      13.061      17.967      24.215      30.466      35.104      36.818      35.106      30.469    
  40.553      30.438      21.168      14.325      10.412      8.8050      8.1522      7.8022      7.8022      8.1525    
  8.8057      10.412      14.323      21.165      30.436      40.554      49.254      54.302      54.300      49.252    
  62.824      49.173      35.024      23.059      14.806      10.413      8.7842      8.1929      7.9804      8.1930    
  8.7843      10.412      14.804      23.057      35.024      49.176      62.829      72.804      76.469      72.800    
  88.523      72.701      54.155      36.712      23.057      14.324      10.100      8.7397      8.2872      8.2872    
  8.7397      10.099      14.323      23.057      36.713      54.158      72.703      88.524      97.699      97.699    
  113.21      97.620      76.326      54.157      35.022      21.164      13.061      9.6269      8.6969      8.4452    
  8.6970      9.6268      13.061      21.165      35.024      54.158      76.324      97.616      113.21      118.95    
  131.31      118.92      97.621      72.705      49.175      30.435      17.967      11.470      9.1928      8.6556    
  8.6557      9.1929      11.470      17.967      30.436      49.176      72.703      97.616      118.91      131.31    
  130.46      124.15      107.05      83.707      59.395      38.340      22.961      13.816      9.8298      8.7557    
  8.4987      8.7557      9.8298      13.816      22.961      38.340      59.395      83.707      107.05      124.15    
  124.15      124.15      112.47      92.374      68.818      46.542      28.816      17.085      11.049      8.9763    
  8.4636      8.4636      8.9762      11.049      17.084      28.815      46.542      68.820      92.378      112.48    
  107.05      112.45      107.05      92.374      72.282      51.305      33.171      20.064      12.465      9.3039    
  8.4426      8.1948      8.4425      9.3039      12.466      20.064      33.170      51.304      72.284      92.378    
  83.705      92.318      92.319      83.707      68.818      51.305      34.782      21.842      13.610      9.6838    
  8.4330      7.9868      7.9867      8.4330      9.6843      13.611      21.842      34.780      51.302      68.816    
  59.390      68.747      72.182      68.751      59.395      46.542      33.171      21.842      14.049      9.9433    
  8.4371      7.8539      7.6433      7.8538      8.4371      9.9439      14.051      21.844      33.171      46.539    
  38.340      46.496      51.216      51.217      46.499      38.340      28.817      20.064      13.610      9.9433    
  8.4431      7.7918      7.4397      7.4397      7.7915      8.4425      9.9432      13.612      20.067      28.818    
  22.964      28.824      33.154      34.750      33.153      28.821      22.961      17.085      12.465      9.6838    
  8.4371      7.7918      7.3735      7.2313      7.3737      7.7912      8.4355      9.6822      12.466      17.087    
  13.816      17.138      20.138      21.916      21.914      20.134      17.136      13.816      11.049      9.3039    
  8.4330      7.8539      7.4397      7.2313      7.2317      7.4403      7.8538      8.4313      9.3010      11.046    
  9.8262      11.124      12.600      13.776      14.224      13.775      12.600      11.126      9.8298      8.9763    
  8.4426      7.9868      7.6433      7.4397      7.3737      7.4403      7.6448      7.9883      8.4426      8.9738    
  8.7557      9.0577      9.4602      9.8971      10.187      10.188      9.8991      9.4631      9.0601      8.7557    
  8.4636      8.1948      7.9867      7.8538      7.7915      7.7912      7.8538      7.9883      8.1978      8.4660    
  8.5021      8.5497      8.6050      8.6600      8.7091      8.7319      8.7106      8.6616      8.6049      8.5473    
  8.4987      8.4636      8.4425      8.4330      8.4371      8.4425      8.4355      8.4313      8.4426      8.4660    
  8.7556      8.5497      8.3605      8.2207      8.1397      8.1066      8.1069      8.1397      8.2190      8.3576    
  8.5474      8.7557      8.9762      9.3040      9.6843      9.9439      9.9432      9.6823      9.3010      8.9738    
  9.8262      9.0577      8.6050      8.2207      7.9350      7.7700      7.7175      7.7694      7.9336      8.2191    
  8.6050      9.0602      9.8298      11.049      12.466      13.611      14.051      13.612      12.466      11.046    
  13.816      11.124      9.4602      8.6600      8.1397      7.7700      7.5857      7.5853      7.7694      8.1398    
  8.6616      9.4630      11.126      13.816      17.084      20.064      21.842      21.844      20.067      17.087    
  22.964      17.138      12.600      9.8971      8.7090      8.1066      7.7175      7.5853      7.7173      8.1072    
  8.7106      9.8986      12.600      17.136      22.961      28.815      33.169      34.780      33.171      28.818    
  38.340      28.824      20.138      13.776      10.187      8.7319      8.1069      7.7694      7.7694      8.1072    
  8.7325      10.187      13.775      20.135      28.822      38.340      46.542      51.304      51.302      46.539    
  59.390      46.496      33.154      21.916      14.224      10.188      8.7106      8.1397      7.9336      8.1398    
  8.7106      10.187      14.223      21.914      33.154      46.499      59.395      68.820      72.284      68.816    
  83.705      68.747      51.216      34.750      21.914      13.775      9.8991      8.6616      8.2191      8.2191    
  8.6616      9.8986      13.775      21.914      34.752      51.218      68.750      83.707      92.378      92.378    
  107.05      92.318      72.182      51.217      33.153      20.134      12.600      9.4631      8.6049      8.3576    
  8.6050      9.4630      12.600      20.135      33.154      51.218      72.181      92.314      107.05      112.48    
  124.15      112.45      92.319      68.751      46.499      28.821      17.136      11.126      9.0601      8.5473    
  8.5474      9.0602      11.126      17.136      28.822      46.499      68.750      92.314      112.44      124.15    
  110.30      104.98      90.532      70.774      50.185      32.439      19.661      12.291      9.2442      8.4099    
  8.1654      8.4100      9.2442      12.291      19.661      32.439      50.185      70.774      90.532      104.98    
  104.98      104.98      95.109      78.094      58.127      39.288      24.444      14.840      10.105      8.5646    
  8.1032      8.1032      8.5646      10.105      14.839      24.444      39.288      58.128      78.097      95.114    
  90.535      95.106      90.532      78.094      61.048      43.277      28.030      17.205      11.144      8.7610    
  8.0634      7.8323      8.0632      8.7610      11.144      17.204      28.028      43.276      61.049      78.097    
  70.773      78.089      78.089      70.774      58.127      43.277      29.360      18.629      12.003      8.9992    
  8.0418      7.6284      7.6283      8.0418      8.9995      12.003      18.629      29.359      43.275      58.125    
  50.181      58.136      61.058      58.139      50.185      39.288      28.030      18.629      12.336      9.1683    
  8.0325      7.5003      7.3098      7.5002      8.0325      9.1687      12.337      18.630      28.030      39.286    
  32.438      39.337      43.342      43.344      39.339      32.439      24.444      17.205      12.003      9.1683    
  8.0306      7.4409      7.1242      7.1243      7.4407      8.0301      9.1682      12.004      17.207      24.446    
  19.664      24.545      28.182      29.527      28.181      24.543      19.661      14.840      11.144      8.9992    
  8.0325      7.4409      7.0644      6.9382      7.0646      7.4404      8.0312      8.9979      11.144      14.841    
  12.291      14.977      17.439      18.910      18.909      17.436      14.975      12.291      10.105      8.7610    
  8.0418      7.5003      7.1242      6.9382      6.9385      7.1248      7.5002      8.0405      8.7587      10.103    
  9.2412      10.253      11.421      12.364      12.725      12.363      11.421      10.255      9.2442      8.5646    
  8.0634      7.6284      7.3098      7.1243      7.0646      7.1248      7.3110      7.6296      8.0634      8.5626    
  8.4099      8.7111      9.0441      9.3890      9.6167      9.6171      9.3906      9.0465      8.7131      8.4099    
  8.1032      7.8323      7.6283      7.5002      7.4407      7.4404      7.5002      7.6296      7.8348      8.1052    
  8.1682      8.2504      8.3438      8.4332      8.4993      8.5249      8.5006      8.4345      8.3436      8.2484    
  8.1654      8.1032      8.0632      8.0418      8.0325      8.0301      8.0312      8.0405      8.0634      8.1052    
  8.4099      8.2504      8.1128      8.0204      7.9746      7.9599      7.9602      7.9746      8.0191      8.1104    
  8.2485      8.4100      8.5646      8.7610      8.9995      9.1687      9.1682      8.9979      8.7587      8.5626    
  9.2412      8.7111      8.3438      8.0204      7.7873      7.6564      7.6155      7.6559      7.7861      8.0191    
  8.3438      8.7132      9.2443      10.105      11.144      12.003      12.337      12.004      11.144      10.103    
  12.291      10.253      9.0441      8.4332      7.9746      7.6564      7.5002      7.4999      7.6559      7.9747    
  8.4345      9.0464      10.255      12.291      14.839      17.204      18.629      18.630      17.207      14.841    
  19.664      14.977      11.421      9.3890      8.4993      7.9599      7.6155      7.4999      7.6154      7.9603    
  8.5006      9.3902      11.421      14.975      19.661      24.444      28.028      29.359      28.030      24.446    
  32.438      24.545      17.439      12.364      9.6166      8.5249      7.9602      7.6559      7.6559      7.9603    
  8.5254      9.6167      12.362      17.436      24.543      32.439      39.288      43.276      43.275      39.286    
  50.181      39.337      28.182      18.910      12.725      9.6171      8.5006      7.9747      7.7861      7.9747    
  8.5006      9.6167      12.724      18.909      28.182      39.339      50.185      58.128      61.049      58.125    
  70.773      58.136      43.342      29.527      18.909      12.363      9.3906      8.4345      8.0191      8.0191    
  8.4345      9.3902      12.362      18.909      29.529      43.344      58.138      70.774      78.097      78.097    
  90.535      78.089      61.058      43.344      28.181      17.436      11.421      9.0465      8.3436      8.1104    
  8.3438      9.0464      11.421      17.436      28.182      43.344      61.057      78.085      90.532      95.114    
  104.98      95.106      78.089      58.139      39.339      24.543      14.975      10.255      8.7131      8.2484    
  8.2485      8.7132      10.255      14.975      24.543      39.339      58.138      78.085      95.102      104.98    
  83.472      79.448      68.504      53.521      37.958      24.721      15.480      10.457      8.5541      7.9303    
  7.7106      7.9303      8.5541      10.457      15.480      24.721      37.959      53.521      68.504      79.448    
  79.449      79.448      71.962      59.039      43.896      29.730      18.817      12.071      9.0002      8.0260    
  7.6134      7.6133      8.0259      9.0003      12.071      18.817      29.730      43.896      59.042      71.965    
  68.506      71.984      68.504      59.039      46.083      32.667      21.359      13.623      9.5724      8.1046    
  7.5450      7.3429      7.5448      8.1046      9.5726      13.622      21.358      32.667      46.084      59.041    
  53.520      59.099      59.099      53.521      43.895      32.667      22.309      14.574      10.068      8.1904    
  7.5021      7.1430      7.1429      7.5020      8.1906      10.068      14.574      22.308      32.666      43.894    
  37.956      44.006      46.234      44.008      37.958      29.730      21.359      14.574      10.264      8.2565    
  7.4794      7.0179      6.8578      7.0179      7.4794      8.2567      10.265      14.575      21.359      29.728    
  24.721      29.898      32.927      32.927      29.899      24.721      18.817      13.623      10.068      8.2565    
  7.4724      6.9596      6.6946      6.6946      6.9596      7.4721      8.2564      10.069      13.624      18.818    
  15.482      19.033      21.722      22.724      21.721      19.032      15.480      12.071      9.5724      8.1904    
  7.4794      6.9596      6.6424      6.5380      6.6425      6.9594      7.4785      8.1896      9.5726      12.072    
  10.456      12.310      14.054      15.111      15.110      14.052      12.309      10.457      9.0002      8.1046    
  7.5021      7.0179      6.6946      6.5380      6.5382      6.6949      7.0178      7.5012      8.1030      8.9988    
  8.5519      9.2363      10.022      10.665      10.914      10.665      10.022      9.2377      8.5541      8.0260    
  7.5450      7.1429      6.8578      6.6946      6.6425      6.6949      6.8585      7.1438      7.5450      8.0245    
  7.9302      8.2514      8.5414      8.7941      8.9527      8.9530      8.7951      8.5430      8.2528      7.9303    
  7.6134      7.3428      7.1429      7.0179      6.9596      6.9594      7.0178      7.1438      7.3446      7.6148    
  7.7126      7.8344      7.9680      8.0924      8.1820      8.2152      8.1829      8.0933      7.9679      7.8330    
  7.7106      7.6133      7.5448      7.5020      7.4794      7.4721      7.4785      7.5012      7.5450      7.6148    
  7.9302      7.8344      7.7618      7.7251      7.7186      7.7236      7.7238      7.7187      7.7242      7.7600    
  7.8331      7.9303      8.0259      8.1046      8.1906      8.2567      8.2564      8.1896      8.1030      8.0245    
  8.5519      8.2514      7.9680      7.7251      7.5575      7.4674      7.4402      7.4672      7.5568      7.7243    
  7.9680      8.2529      8.5541      9.0003      9.5726      10.068      10.265      10.069      9.5726      8.9988    
  10.457      9.2363      8.5414      8.0924      7.7186      7.4674      7.3467      7.3465      7.4671      7.7187    
  8.0933      8.5430      9.2377      10.457      12.071      13.622      14.574      14.575      13.624      12.072    
  15.482      12.310      10.022      8.7941      8.1820      7.7236      7.4402      7.3465      7.4401      7.7239    
  8.1829      8.7949      10.022      12.309      15.480      18.817      21.358      22.308      21.359      18.818    
  24.721      19.033      14.054      10.665      8.9527      8.2151      7.7238      7.4672      7.4671      7.7239    
  8.2155      8.9528      10.664      14.052      19.032      24.721      29.730      32.667      32.666      29.728    
  37.956      29.898      21.722      15.111      10.914      8.9530      8.1829      7.7187      7.5568      7.7187    
  8.1829      8.9528      10.913      15.110      21.722      29.899      37.959      43.896      46.084      43.894    
  53.520      44.006      32.927      22.724      15.110      10.665      8.7951      8.0933      7.7242      7.7243    
  8.0933      8.7949      10.664      15.110      22.725      32.928      44.007      53.521      59.041      59.041    
  68.506      59.099      46.234      32.927      21.721      14.052      10.022      8.5430      7.9679      7.7600    
  7.9680      8.5430      10.022      14.052      21.722      32.928      46.233      59.097      68.504      71.965    
  79.449      71.984      59.099      44.008      29.899      19.032      12.309      9.2377      8.2528      7.8330    
  7.8331      8.2529      9.2377      12.309      19.032      29.899      44.007      59.097      71.981      79.448    
  56.562      53.831      46.412      36.297      25.927      17.366      11.726      8.9459      7.9392      7.4257    
  7.2433      7.4257      7.9392      8.9459      11.726      17.366      25.927      36.297      46.412      53.831    
  53.832      53.831      48.740      39.975      29.795      20.479      13.614      9.6979      8.0982      7.4537    
  7.1084      7.1083      7.4536      8.0983      9.6980      13.614      20.479      29.796      39.976      48.742    
  46.413      48.784      46.412      39.975      31.229      22.331      15.099      10.470      8.2887      7.4728    
  7.0048      6.8413      7.0046      7.4727      8.2889      10.470      15.099      22.331      31.229      39.976    
  36.297      40.092      40.092      36.297      29.795      22.331      15.662      10.961      8.4679      7.4788    
  6.9329      6.6435      6.6434      6.9328      7.4789      8.4680      10.961      15.661      22.330      29.794    
  25.926      29.994      31.503      29.996      25.927      20.479      15.099      10.961      8.5424      7.4794    
  6.8907      6.5175      6.3924      6.5176      6.8907      7.4795      8.5427      10.961      15.099      20.478    
  17.366      20.751      22.761      22.761      20.752      17.366      13.614      10.470      8.4679      7.4794    
  6.8768      6.4575      6.2498      6.2499      6.4576      6.8767      7.4793      8.4684      10.471      13.615    
  11.727      13.932      15.647      16.293      15.646      13.931      11.726      9.6979      8.2887      7.4788    
  6.8907      6.4575      6.2042      6.1225      6.2043      6.4575      6.8902      7.4783      8.2889      9.6988    
  8.9458      10.029      11.076      11.724      11.723      11.075      10.028      8.9459      8.0982      7.4728    
  6.9329      6.5175      6.2498      6.1225      6.1225      6.2499      6.5175      6.9323      7.4718      8.0974    
  7.9378      8.4174      8.8987      9.2826      9.4308      9.2822      8.8987      8.4183      7.9392      7.4537    
  7.0048      6.6435      6.3924      6.2499      6.2043      6.2499      6.3928      6.6439      7.0048      7.4528    
  7.4256      7.7574      8.0602      8.2902      8.4152      8.4154      8.2907      8.0611      7.7582      7.4257    
  7.1084      6.8413      6.6434      6.5176      6.4576      6.4575      6.5175      6.6439      6.8424      7.1092    
  7.2445      7.4041      7.5726      7.7252      7.8332      7.8726      7.8337      7.7257      7.5724      7.4032    
  7.2433      7.1083      7.0046      6.9328      6.8907      6.8767      6.8902      6.9323      7.0048      7.1092    
  7.4256      7.4041      7.4022      7.4232      7.4557      7.4798      7.4799      7.4558      7.4227      7.4012    
  7.4033      7.4257      7.4536      7.4728      7.4789      7.4795      7.4793      7.4783      7.4718      7.4528    
  7.9378      7.7574      7.5726      7.4232      7.3280      7.2818      7.2691      7.2818      7.3277      7.4228    
  7.5726      7.7582      7.9392      8.0983      8.2889      8.4680      8.5427      8.4684      8.2889      8.0974    
  8.9458      8.4174      8.0602      7.7252      7.4557      7.2818      7.2008      7.2007      7.2817      7.4558    
  7.7258      8.0611      8.4182      8.9459      9.6980      10.470      10.961      10.961      10.471      9.6988    
  11.727      10.029      8.8987      8.2902      7.8332      7.4798      7.2691      7.2007      7.2690      7.4799    
  7.8337      8.2906      8.8986      10.028      11.726      13.614      15.099      15.661      15.099      13.615    
  17.366      13.932      11.076      9.2826      8.4152      7.8726      7.4799      7.2818      7.2817      7.4799    
  7.8727      8.4153      9.2821      11.075      13.932      17.366      20.479      22.331      22.330      20.478    
  25.926      20.751      15.647      11.724      9.4308      8.4154      7.8337      7.4558      7.3277      7.4558    
  7.8337      8.4153      9.4305      11.723      15.647      20.752      25.927      29.796      31.229      29.794    
  36.297      29.994      22.761      16.293      11.723      9.2822      8.2907      7.7257      7.4227      7.4228    
  7.7258      8.2906      9.2821      11.723      16.293      22.761      29.995      36.297      39.976      39.976    
  46.413      40.092      31.503      22.761      15.646      11.075      8.8987      8.0611      7.5724      7.4012    
  7.5726      8.0611      8.8986      11.075      15.647      22.761      31.502      40.091      46.412      48.742    
  53.832      48.784      40.092      29.996      20.752      13.931      10.028      8.4183      7.7582      7.4033    
  7.4033      7.7582      8.4182      10.028      13.932      20.752      29.995      40.091      48.783      53.831    
  34.420      32.788      28.379      22.459      16.575      11.990      9.2485      8.0271      7.3983      6.9925    
  6.8546      6.9925      7.3983      8.0271      9.2485      11.990      16.575      22.459      28.379      32.788    
  32.789      32.788      29.743      24.555      18.669      13.519      10.010      8.2265      7.4523      6.9433    
  6.6792      6.6792      6.9432      7.4524      8.2267      10.010      13.519      18.669      24.556      29.744    
  28.380      29.800      28.379      24.555      19.456      14.456      10.648      8.4504      7.4766      6.9012    
  6.5374      6.4155      6.5373      6.9011      7.4767      8.4504      10.648      14.456      19.456      24.556    
  22.459      24.706      24.706      22.459      18.669      14.456      10.897      8.6047      7.4858      6.8667    
  6.4335      6.2169      6.2169      6.4335      6.8667      7.4859      8.6047      10.897      14.455      18.669    
  16.574      18.922      19.803      18.923      16.575      13.519      10.648      8.6047      7.4900      6.8464    
  6.3701      6.0870      5.9950      6.0870      6.3701      6.8464      7.4901      8.6049      10.648      13.518    
  11.990      13.855      14.990      14.990      13.856      11.990      10.010      8.4504      7.4858      6.8464    
  6.3487      6.0234      5.8679      5.8680      6.0235      6.3487      6.8464      7.4861      8.4509      10.010    
  9.2490      10.396      11.316      11.669      11.316      10.396      9.2485      8.2265      7.4766      6.8667    
  6.3701      6.0234      5.8269      5.7644      5.8270      6.0234      6.3699      6.8666      7.4767      8.2270    
  8.0270      8.6272      9.1850      9.5302      9.5299      9.1845      8.6269      8.0271      7.4523      6.9012    
  6.4335      6.0870      5.8679      5.7644      5.7644      5.8679      6.0869      6.4333      6.9008      7.4520    
  7.3976      7.8457      8.2230      8.4803      8.5739      8.4801      8.2230      7.8461      7.3983      6.9433    
  6.5374      6.2169      5.9950      5.8680      5.8270      5.8679      5.9950      6.2171      6.5374      6.9428    
  6.9924      7.3249      7.6352      7.8764      8.0086      8.0086      7.8766      7.6355      7.3253      6.9925    
  6.6792      6.4155      6.2169      6.0870      6.0235      6.0234      6.0869      6.2171      6.4160      6.6796    
  6.8552      7.0539      7.2574      7.4379      7.5637      7.6091      7.5639      7.4380      7.2573      7.0535    
  6.8546      6.6792      6.5373      6.4335      6.3701      6.3487      6.3699      6.4333      6.5374      6.6796    
  6.9924      7.0539      7.1302      7.2149      7.2910      7.3368      7.3369      7.2910      7.2146      7.1297    
  7.0536      6.9925      6.9432      6.9011      6.8667      6.8464      6.8464      6.8666      6.9008      6.9428    
  7.3976      7.3249      7.2574      7.2149      7.2012      7.2045      7.2082      7.2045      7.2011      7.2147    
  7.2574      7.3253      7.3983      7.4524      7.4767      7.4859      7.4901      7.4861      7.4767      7.4520    
  8.0270      7.8457      7.6352      7.4379      7.2910      7.2045      7.1677      7.1677      7.2045      7.2910    
  7.4381      7.6355      7.8460      8.0271      8.2267      8.4504      8.6047      8.6049      8.4509      8.2270    
  9.2490      8.6272      8.2230      7.8764      7.5637      7.3368      7.2082      7.1677      7.2080      7.3367    
  7.5639      7.8766      8.2229      8.6267      9.2485      10.010      10.648      10.897      10.648      10.010    
  11.990      10.396      9.1850      8.4803      8.0086      7.6091      7.3369      7.2045      7.2045      7.3367    
  7.6091      8.0086      8.4801      9.1844      10.396      11.990      13.519      14.456      14.455      13.518    
  16.574      13.855      11.316      9.5302      8.5739      8.0086      7.5639      7.2910      7.2011      7.2910    
  7.5639      8.0086      8.5739      9.5300      11.316      13.856      16.575      18.669      19.456      18.669    
  22.459      18.922      14.990      11.669      9.5299      8.4801      7.8766      7.4380      7.2146      7.2147    
  7.4381      7.8766      8.4801      9.5300      11.669      14.990      18.922      22.459      24.556      24.556    
  28.380      24.706      19.803      14.990      11.316      9.1845      8.2230      7.6355      7.2573      7.1297    
  7.2574      7.6355      8.2229      9.1844      11.316      14.990      19.803      24.705      28.379      29.744    
  32.789      29.800      24.706      18.923      13.856      10.396      8.6269      7.8461      7.3253      7.0535    
  7.0536      7.3253      7.8460      8.6267      10.396      13.856      18.922      24.705      29.799      32.788    
  19.378      18.565      16.402      13.592      10.963      9.0994      8.0796      7.4614      6.9862      6.6982    
  6.6037      6.6982      6.9862      7.4614      8.0796      9.0994      10.963      13.592      16.402      18.565    
  18.565      18.565      17.050      14.528      11.796      9.5830      8.2217      7.4891      6.9421      6.5661    
  6.3810      6.3810      6.5661      6.9421      7.4892      8.2217      9.5830      11.796      14.529      17.050    
  16.402      17.109      16.402      14.528      12.119      9.9002      8.3573      7.4951      6.9029      6.4600    