unknown system                          
   1.00000000000000     
     2.236800    0.000000    0.000000
    -1.118400    1.937126    0.000000
     0.000000    0.000000    3.798240
   Fe
     2
Direct
  0.000000  0.000000  0.000000
  0.333333  0.666667  0.500000
 
   20   20   32
 0.13798727914E+03 0.13130689119E+03 0.11320610466E+03 0.88524383962E+02 0.62829448307E+02
 0.40553880325E+02 0.24214914175E+02 0.14410434720E+02 0.10062281760E+02 0.88817724522E+01
 0.86211844895E+01 0.88817977617E+01 0.10062302365E+02 0.14410433394E+02 0.24214911659E+02
 0.40553906477E+02 0.62829498318E+02 0.88524420670E+02 0.11320610526E+03 0.13130687511E+03
 0.13130938201E+03 0.13130688687E+03 0.11894893795E+03 0.97694636411E+02 0.72802224197E+02
 0.49254888083E+02 0.30467344021E+02 0.17948620761E+02 0.11421366480E+02 0.91348161771E+01
 0.85966950217E+01 0.85966172068E+01 0.91347414292E+01 0.11421342650E+02 0.17948174945E+02
 0.30466226548E+02 0.49254205383E+02 0.72803985732E+02 0.97699479216E+02 0.11895453021E+03
 0.11320979495E+03 0.11891952936E+03 0.11320609554E+03 0.97694633236E+02 0.76467568458E+02
 0.54302726166E+02 0.35105791801E+02 0.21156917509E+02 0.12982846073E+02 0.95181380103E+01
 0.85822724824E+01 0.83292162674E+01 0.85821233581E+01 0.95182270874E+01 0.12982970053E+02
 0.21156182956E+02 0.35104068986E+02 0.54301683251E+02 0.76469271932E+02 0.97698870915E+02
 0.88522670404E+02 0.97619975556E+02 0.97620555621E+02 0.88524374450E+02 0.72802219670E+02
 0.54302726118E+02 0.36819509250E+02 0.23066146397E+02 0.14235395206E+02 0.99549936079E+01
 0.85773531912E+01 0.81194172934E+01 0.81193206865E+01 0.85773536315E+01 0.99554868943E+01
 0.14236111762E+02 0.23066172495E+02 0.36818174353E+02 0.54300318317E+02 0.72799728566E+02
 0.62824073159E+02 0.72700870223E+02 0.76326190462E+02 0.72705072689E+02 0.62829442215E+02
 0.49254889221E+02 0.35105800391E+02 0.23066152118E+02 0.14714577899E+02 0.10250011475E+02
 0.85894270827E+01 0.79842605432E+01 0.77666067356E+01 0.79841418905E+01 0.85894239695E+01
 0.10250651748E+02 0.14716182203E+02 0.23067922761E+02 0.35105804451E+02 0.49251698483E+02
 0.40553187488E+02 0.49172515696E+02 0.54155271316E+02 0.54156632247E+02 0.49175010138E+02
 0.40553884871E+02 0.30467357421E+02 0.21156931906E+02 0.14235399224E+02 0.10250010820E+02
 0.85993651477E+01 0.79207425616E+01 0.75560276596E+01 0.75560028616E+01 0.79204073852E+01
 0.85986592437E+01 0.10249932758E+02 0.14237143039E+02 0.21160017146E+02 0.30469452437E+02
 0.24218601352E+02 0.30438399981E+02 0.35023987863E+02 0.36712119072E+02 0.35022308950E+02
 0.30435231111E+02 0.24214928198E+02 0.17948637638E+02 0.12982854236E+02 0.99549924580E+01
 0.85894260278E+01 0.79207406980E+01 0.74873763698E+01 0.73393240602E+01 0.74875172384E+01
 0.79201141823E+01 0.85876885041E+01 0.99533108415E+01 0.12982970053E+02 0.17951107631E+02
 0.14410456378E+02 0.17969717688E+02 0.21167937620E+02 0.23058914314E+02 0.23057203762E+02
 0.21164183113E+02 0.17966837666E+02 0.14410448630E+02 0.11421376759E+02 0.95181374201E+01
 0.85773486736E+01 0.79842544713E+01 0.75560192021E+01 0.73393211148E+01 0.73397268626E+01
 0.75567448352E+01 0.79841648746E+01 0.85755803812E+01 0.95150889031E+01 0.11418858735E+02
 0.10058469465E+02 0.11467686694E+02 0.13060812043E+02 0.14325158009E+02 0.14805631571E+02
 0.14324140480E+02 0.13060821167E+02 0.11470163692E+02 0.10062289291E+02 0.91348153812E+01
 0.85822631075E+01 0.81194068644E+01 0.77665950860E+01 0.75559962180E+01 0.74875195762E+01
 0.75567466491E+01 0.77681989947E+01 0.81210709527E+01 0.85822665645E+01 0.91322345295E+01
 0.88817026769E+01 0.91902826726E+01 0.96238240231E+01 0.10097733473E+02 0.10411924827E+02
 0.10412616795E+02 0.10099854325E+02 0.96269227484E+01 0.91927724160E+01 0.88817688459E+01
 0.85966826652E+01 0.83292034593E+01 0.81193117796E+01 0.79841364025E+01 0.79204099962E+01
 0.79201186569E+01 0.79841654584E+01 0.81210724749E+01 0.83324265524E+01 0.85992191913E+01
 0.86248741828E+01 0.86581449521E+01 0.86970430578E+01 0.87380093260E+01 0.87825664664E+01
 0.88050158279E+01 0.87842483483E+01 0.87397400252E+01 0.86969104886E+01 0.86555720011E+01
 0.86211726816E+01 0.85966059717E+01 0.85821199011E+01 0.85773532664E+01 0.85894260278E+01
 0.85986645495E+01 0.85876916173E+01 0.85755845337E+01 0.85822724824E+01 0.85992203127E+01
 0.88816998994E+01 0.86581440848E+01 0.84483639736E+01 0.82888783785E+01 0.81929491713E+01
 0.81518868088E+01 0.81521707724E+01 0.81929177369E+01 0.82871506202E+01 0.84452040730E+01
 0.86556629453E+01 0.88817913778E+01 0.91347428284E+01 0.95182329570E+01 0.99554907974E+01
 0.10250657257E+02 0.10249938922E+02 0.99533158946E+01 0.95150953630E+01 0.91322367245E+01
 0.10058467066E+02 0.91902810450E+01 0.86970426522E+01 0.82888761815E+01 0.79820078594E+01
 0.78029068344E+01 0.77454690137E+01 0.78021888052E+01 0.79804379386E+01 0.82872231731E+01
 0.86970354887E+01 0.91928675007E+01 0.10062307497E+02 0.11421353775E+02 0.12982979236E+02
 0.14236118213E+02 0.14716188365E+02 0.14237145473E+02 0.12982971073E+02 0.11418859581E+02
 0.14410456891E+02 0.11467686300E+02 0.96238223552E+01 0.87380036961E+01 0.81929433974E+01
 0.78029060142E+01 0.76072711023E+01 0.76068877066E+01 0.78022109766E+01 0.81930124611E+01
 0.87396994625E+01 0.96268054922E+01 0.11470185864E+02 0.14410447817E+02 0.17948189680E+02
 0.21156190745E+02 0.23066174289E+02 0.23067918834E+02 0.21160010538E+02 0.17951105490E+02
 0.24218603868E+02 0.17969719852E+02 0.13060810107E+02 0.10097727333E+02 0.87825589126E+01
 0.81518844797E+01 0.77454711975E+01 0.76068893608E+01 0.77453440136E+01 0.81525021326E+01
 0.87842483483E+01 0.10099355328E+02 0.13060677961E+02 0.17967264563E+02 0.24214928198E+02
 0.30466234518E+02 0.35104064926E+02 0.36818162896E+02 0.35105791801E+02 0.30469447008E+02
 0.40553189124E+02 0.30438405038E+02 0.21167939416E+02 0.14325155735E+02 0.10411919622E+02
 0.88050120047E+01 0.81521717671E+01 0.78021926424E+01 0.78022156340E+01 0.81525054563E+01
 0.88057254196E+01 0.10412020680E+02 0.14323449279E+02 0.21164897297E+02 0.30436348098E+02
 0.40553912660E+02 0.49254198021E+02 0.54301667052E+02 0.54300302166E+02 0.49251689983E+02
 0.62824072593E+02 0.49172523784E+02 0.35023997475E+02 0.23058919472E+02 0.14805629859E+02
 0.10412610823E+02 0.87842449340E+01 0.81929212260E+01 0.79804468381E+01 0.81930217242E+01
 0.87842524878E+01 0.10412019912E+02 0.14804088756E+02 0.23057180777E+02 0.35023994971E+02
 0.49175729128E+02 0.62829491659E+02 0.72803969936E+02 0.76469254479E+02 0.72799717297E+02
 0.88522668965E+02 0.72700881412E+02 0.54155288705E+02 0.36712131775E+02 0.23057204476E+02
 0.14324131938E+02 0.10099846242E+02 0.87397408644E+01 0.82871611847E+01 0.82872359344E+01
 0.87397059316E+01 0.10099353385E+02 0.14323443012E+02 0.23057176333E+02 0.36713408282E+02
 0.54157628254E+02 0.72703357692E+02 0.88524409720E+02 0.97699463433E+02 0.97698858308E+02
 0.11320979436E+03 0.97619988493E+02 0.76326210710E+02 0.54156648644E+02 0.35022311454E+02
 0.21164173281E+02 0.13060810107E+02 0.96269194620E+01 0.86969176521E+01 0.84452164853E+01
 0.86970430578E+01 0.96268038737E+01 0.13060668837E+02 0.21164885669E+02 0.35023987863E+02
 0.54157627261E+02 0.76324454997E+02 0.97615730420E+02 0.11320609554E+03 0.11895451978E+03
 0.13130938223E+03 0.11891954026E+03 0.97620572393E+02 0.72705087445E+02 0.49175014820E+02
 0.30435222802E+02 0.17966824903E+02 0.11470155164E+02 0.91927720804E+01 0.86555804966E+01
 0.86556723081E+01 0.91928687927E+01 0.11470177729E+02 0.17967249637E+02 0.30436334732E+02
 0.49175725721E+02 0.72703361258E+02 0.97615734255E+02 0.11891392313E+03 0.13130687100E+03
 0.13045519201E+03 0.12414798304E+03 0.10704727699E+03 0.83706822292E+02 0.59395034814E+02
 0.38340360256E+02 0.22960588544E+02 0.13816383023E+02 0.98298220089E+01 0.87557197601E+01
 0.84986757038E+01 0.87557456351E+01 0.98298439955E+01 0.13816383209E+02 0.22960585902E+02
 0.38340383637E+02 0.59395080775E+02 0.83706856395E+02 0.10704727762E+03 0.12414796807E+03
 0.12415032216E+03 0.12414797887E+03 0.11247169069E+03 0.92373773224E+02 0.68818442228E+02
 0.46542432691E+02 0.28816493428E+02 0.17084623159E+02 0.11048530735E+02 0.89762551640E+01
 0.84636452642E+01 0.84635673237E+01 0.89761805507E+01 0.11048521292E+02 0.17084235288E+02
 0.28815473872E+02 0.46541802945E+02 0.68820090607E+02 0.92378312160E+02 0.11247693924E+03
 0.10705074371E+03 0.11244951535E+03 0.10704726833E+03 0.92373770270E+02 0.72282002019E+02
 0.51304632254E+02 0.33171105455E+02 0.20064233665E+02 0.12465466959E+02 0.93038722832E+01
 0.84426245227E+01 0.81948324254E+01 0.84424693424E+01 0.93039467449E+01 0.12465595526E+02
 0.20063567850E+02 0.33169501266E+02 0.51303647662E+02 0.72283589450E+02 0.92377744422E+02
 0.83705218713E+02 0.92318084638E+02 0.92318626108E+02 0.83706813386E+02 0.68818437912E+02
 0.51304632158E+02 0.34781548661E+02 0.21842240301E+02 0.13609948683E+02 0.96838184755E+01
 0.84329932241E+01 0.79867916787E+01 0.79866947292E+01 0.84329790869E+01 0.96842665468E+01
 0.13610609205E+02 0.21842253364E+02 0.34780283693E+02 0.51302363518E+02 0.68816098838E+02
 0.59389998411E+02 0.68747193390E+02 0.72182143275E+02 0.68751134403E+02 0.59395029071E+02
 0.46542433680E+02 0.33171113662E+02 0.21842245768E+02 0.14049141766E+02 0.99433061932E+01
 0.84371279772E+01 0.78539352531E+01 0.76432922150E+01 0.78538309483E+01 0.84371253386E+01
 0.99438909796E+01 0.14050622580E+02 0.21843891045E+02 0.33171117537E+02 0.46539448857E+02
 0.38339720809E+02 0.46496163070E+02 0.51215742997E+02 0.51217023346E+02 0.46498505720E+02
 0.38340364567E+02 0.28816506159E+02 0.20064247378E+02 0.13609952326E+02 0.99433054867E+01
 0.84431270394E+01 0.77918030560E+01 0.74396869695E+01 0.74396768064E+01 0.77915140065E+01
 0.84424781245E+01 0.99432281512E+01 0.13611584058E+02 0.20067152503E+02 0.28818490789E+02
 0.22964051996E+02 0.28823642068E+02 0.33154361626E+02 0.34750349358E+02 0.33152797578E+02
 0.28820677843E+02 0.22960601774E+02 0.17084639126E+02 0.12465474501E+02 0.96838172080E+01
 0.84371271449E+01 0.77918014090E+01 0.73735263780E+01 0.72313244076E+01 0.73736734295E+01
 0.77912316366E+01 0.84355090677E+01 0.96822484070E+01 0.12465595526E+02 0.17086969835E+02
 0.13816391679E+02 0.17138384207E+02 0.20137792563E+02 0.21915692742E+02 0.21914091937E+02
 0.20134281467E+02 0.17135697270E+02 0.13816396046E+02 0.11048540376E+02 0.93038716043E+01
 0.84329891168E+01 0.78539297677E+01 0.74396789173E+01 0.72313215736E+01 0.72316963956E+01
 0.74403481053E+01 0.78538394187E+01 0.84313329352E+01 0.93010164491E+01 0.11046175674E+02
 0.98262285593E+01 0.11123669407E+02 0.12599698799E+02 0.13776342524E+02 0.14224435432E+02
 0.13775381141E+02 0.12599707350E+02 0.11126006993E+02 0.98298291158E+01 0.89762544068E+01
 0.84426156749E+01 0.79867820420E+01 0.76432812272E+01 0.74396704468E+01 0.73736757205E+01
 0.74403497979E+01 0.76447591434E+01 0.79883324104E+01 0.84426186849E+01 0.89738264627E+01
 0.87556500951E+01 0.90577493122E+01 0.94602465858E+01 0.98970947300E+01 0.10186956093E+02
 0.10187594518E+02 0.98990632948E+01 0.94631417745E+01 0.90600873703E+01 0.87557163830E+01
 0.84636334925E+01 0.81948204133E+01 0.79866865021E+01 0.78538257572E+01 0.77915164904E+01
 0.77912357676E+01 0.78538397131E+01 0.79883338200E+01 0.81978497907E+01 0.84660169516E+01
 0.85021417976E+01 0.85497437077E+01 0.86049926779E+01 0.86600093759E+01 0.87090536855E+01
 0.87318882590E+01 0.87106205228E+01 0.86616175036E+01 0.86048558497E+01 0.85473231509E+01
 0.84986644719E+01 0.84635566845E+01 0.84424663324E+01 0.84329788553E+01 0.84371271449E+01
 0.84424829430E+01 0.84355117063E+01 0.84313368109E+01 0.84426245227E+01 0.84660180842E+01
 0.87556473887E+01 0.85497428877E+01 0.83605301994E+01 0.82206590060E+01 0.81397200703E+01
 0.81066396179E+01 0.81069124186E+01 0.81397019279E+01 0.82190418004E+01 0.83575616050E+01
 0.85474142542E+01 0.87557395516E+01 0.89761820354E+01 0.93039524461E+01 0.96842700379E+01
 0.99438959437E+01 0.99432338218E+01 0.96822531656E+01 0.93010228293E+01 0.89738287046E+01
 0.98262262815E+01 0.90577477953E+01 0.86049923799E+01 0.82206568895E+01 0.79350022577E+01
 0.77700130737E+01 0.77174711601E+01 0.77693617028E+01 0.79335526656E+01 0.82191141718E+01
 0.86049854833E+01 0.90601829103E+01 0.98298488246E+01 0.11048531905E+02 0.12465604134E+02
 0.13610615154E+02 0.14050628403E+02 0.13611586364E+02 0.12465596592E+02 0.11046176647E+02
 0.13816392332E+02 0.11123669099E+02 0.94602450425E+01 0.86600039334E+01 0.81397144599E+01
 0.77700123077E+01 0.75856872662E+01 0.75853332642E+01 0.77693710116E+01 0.81397836081E+01
 0.86615894628E+01 0.94630369257E+01 0.11126016301E+02 0.13816396885E+02 0.17084249358E+02
 0.20063575241E+02 0.21842255077E+02 0.21843887291E+02 0.20067146181E+02 0.17086967938E+02
 0.22964054638E+02 0.17138386327E+02 0.12599696863E+02 0.98970887543E+01 0.87090463894E+01
 0.81066374513E+01 0.77174733159E+01 0.75853348090E+01 0.77173415265E+01 0.81072018132E+01
 0.87106205228E+01 0.98986059888E+01 0.12599558007E+02 0.17136067506E+02 0.22960601774E+02
 0.28815481565E+02 0.33169497391E+02 0.34780272745E+02 0.33171105455E+02 0.28818485750E+02
 0.38339722524E+02 0.28823646884E+02 0.20137794103E+02 0.13776340237E+02 0.10186951129E+02
 0.87318846842E+01 0.81069134174E+01 0.77693652668E+01 0.77693753416E+01 0.81072049786E+01
 0.87325447231E+01 0.10187052326E+02 0.13774743409E+02 0.20134927669E+02 0.28821696033E+02
 0.38340389663E+02 0.46541795948E+02 0.51303632209E+02 0.51302348161E+02 0.46539440871E+02
 0.59389997874E+02 0.46496170717E+02 0.33154370669E+02 0.21915697602E+02 0.14224433830E+02
 0.10187588861E+02 0.87106172363E+01 0.81397051510E+01 0.79335610445E+01 0.81397924417E+01
 0.87106245323E+01 0.10187051633E+02 0.14223013928E+02 0.21914083467E+02 0.33154368425E+02
 0.46499168549E+02 0.59395074495E+02 0.68820075593E+02 0.72283572866E+02 0.68816088140E+02
 0.83705217264E+02 0.68747204004E+02 0.51215759564E+02 0.34750361455E+02 0.21914092573E+02
 0.13775372940E+02 0.98990555488E+01 0.86616182707E+01 0.82190518611E+01 0.82191263489E+01
 0.86615956724E+01 0.98986042185E+01 0.13774737496E+02 0.21914079244E+02 0.34751573928E+02
 0.51217965546E+02 0.68749529375E+02 0.83706846038E+02 0.92378297124E+02 0.92377732341E+02
 0.10705074309E+03 0.92318097001E+02 0.72182162607E+02 0.51217038937E+02 0.33152799822E+02
 0.20134271970E+02 0.12599696863E+02 0.94631387521E+01 0.86048627462E+01 0.83575734272E+01
 0.86049926779E+01 0.94630354466E+01 0.12599549456E+02 0.20134916633E+02 0.33154361626E+02
 0.51217964569E+02 0.72180527004E+02 0.92314104026E+02 0.10704726833E+03 0.11247692918E+03
 0.12415032235E+03 0.11244952583E+03 0.92318642087E+02 0.68751148346E+02 0.46498510032E+02
 0.28820669838E+02 0.17135685247E+02 0.11125999104E+02 0.90600871096E+01 0.85473312021E+01
 0.85474231255E+01 0.90601841664E+01 0.11126008722E+02 0.17136053363E+02 0.28821683212E+02
 0.46499165213E+02 0.68749532704E+02 0.92314107643E+02 0.11244425421E+03 0.12414796410E+03
 0.11029576096E+03 0.10497661332E+03 0.90531822711E+02 0.70774182071E+02 0.50185266156E+02
 0.32438691800E+02 0.19661124283E+02 0.12290694619E+02 0.92442259805E+01 0.84099412824E+01
 0.81653801810E+01 0.84099668599E+01 0.92442492391E+01 0.12290697299E+02 0.19661121343E+02
 0.32438708944E+02 0.50185302606E+02 0.70774209892E+02 0.90531823405E+02 0.10497660110E+03
 0.10497854207E+03 0.10497660958E+03 0.95109195732E+02 0.78093744162E+02 0.58127124758E+02
 0.39288432096E+02 0.24444390816E+02 0.14839502319E+02 0.10105154500E+02 0.85646366666E+01
 0.81032483692E+01 0.81031709277E+01 0.85645627625E+01 0.10105180350E+02 0.14839263816E+02
 0.24443629415E+02 0.39287943392E+02 0.58128468792E+02 0.78097463388E+02 0.95113515295E+02
 0.90534684547E+02 0.95106406449E+02 0.90531815333E+02 0.78093741821E+02 0.61047551643E+02
 0.43277255118E+02 0.28029708428E+02 0.17204655748E+02 0.11144229245E+02 0.87609975786E+01
 0.80634091954E+01 0.78323176346E+01 0.80632420635E+01 0.87610359371E+01 0.11144368341E+02
 0.17204170401E+02 0.28028421279E+02 0.43276428602E+02 0.61048827472E+02 0.78097004326E+02
 0.70772874958E+02 0.78088680026E+02 0.78089117691E+02 0.70774174835E+02 0.58127121017E+02
 0.43277254878E+02 0.29360113585E+02 0.18628809843E+02 0.12002884871E+02 0.89991863513E+01
 0.80418209429E+01 0.76283955166E+01 0.76282997853E+01 0.80417723995E+01 0.89995171804E+01
 0.12003397238E+02 0.18628789678E+02 0.29359039237E+02 0.43275363498E+02 0.58125192881E+02
 0.50181143797E+02 0.58135667296E+02 0.61057850823E+02 0.58138902092E+02 0.50185261365E+02
 0.39288432651E+02 0.28029715580E+02 0.18628814615E+02 0.12335807468E+02 0.91682965004E+01
 0.80324693406E+01 0.75003103999E+01 0.73098409888E+01 0.75002433423E+01 0.80324679520E+01
 0.91687348775E+01 0.12336959943E+02 0.18630124612E+02 0.28029718945E+02 0.39286002415E+02
 0.32438194611E+02 0.39336949530E+02 0.43342484664E+02 0.43343546553E+02 0.39338881518E+02
 0.32438695430E+02 0.24444401710E+02 0.17204667600E+02 0.12002887504E+02 0.91682956591E+01
 0.80306294855E+01 0.74408662453E+01 0.71242465404E+01 0.71242722640E+01 0.74406944321E+01
 0.80301299379E+01 0.91682205446E+01 0.12004217839E+02 0.17207084773E+02 0.24446084724E+02
 0.19663982485E+02 0.24545135104E+02 0.28182309386E+02 0.29527476770E+02 0.28181053634E+02
 0.24542722217E+02 0.19661135331E+02 0.14839515799E+02 0.11144235124E+02 0.89991847754E+01
 0.80324691069E+01 0.74408651760E+01 0.70644178057E+01 0.69381680928E+01 0.70645771556E+01
 0.74404432988E+01 0.80311702858E+01 0.89979190463E+01 0.11144368341E+02 0.14841467993E+02
 0.12290670198E+02 0.14976777324E+02 0.17438820655E+02 0.18909948488E+02 0.18908643506E+02
 0.17435965208E+02 0.14974609347E+02 0.12290705230E+02 0.10105162435E+02 0.87609966697E+01
 0.80418179460E+01 0.75003064819E+01 0.71242395743E+01 0.69381655592E+01 0.69384583937E+01
 0.71247594959E+01 0.75002162411E+01 0.80404645664E+01 0.87586629992E+01 0.10103212272E+02
 0.92412265581E+01 0.10253006412E+02 0.11420908631E+02 0.12363746992E+02 0.12725065844E+02
 0.12362938631E+02 0.11420915633E+02 0.10254964804E+02 0.92442319526E+01 0.85646360394E+01
 0.80634017830E+01 0.76283880012E+01 0.73098317678E+01 0.71242666755E+01 0.70645793443E+01
 0.71247608734E+01 0.73109771165E+01 0.76296347196E+01 0.80634036020E+01 0.85626217858E+01
 0.84098722304E+01 0.87111494545E+01 0.90441415144E+01 0.93890277433E+01 0.96166503656E+01
 0.96171461465E+01 0.93905887258E+01 0.90464887892E+01 0.87130772124E+01 0.84099385590E+01
 0.81032381970E+01 0.78323077533E+01 0.76282933716E+01 0.75002389535E+01 0.74406966058E+01
 0.74404465418E+01 0.75002157704E+01 0.76296358214E+01 0.78348123031E+01 0.81052065339E+01
 0.81682413234E+01 0.82504486953E+01 0.83437663009E+01 0.84332124868E+01 0.84992998421E+01
 0.85248830618E+01 0.85005578830E+01 0.84344921815E+01 0.83436199154E+01 0.82484407158E+01
 0.81653705355E+01 0.81031618972E+01 0.80632402445E+01 0.80417725152E+01 0.80324691069E+01
 0.80301334822E+01 0.80311716744E+01 0.80404676789E+01 0.80634091954E+01 0.81052076755E+01
 0.84098697000E+01 0.82504480066E+01 0.81128415073E+01 0.80203803391E+01 0.79746318823E+01
 0.79599134069E+01 0.79601548963E+01 0.79746476586E+01 0.80190611790E+01 0.81103901626E+01
 0.82485306279E+01 0.84099616061E+01 0.85645644570E+01 0.87610411510E+01 0.89995195575E+01
 0.91687384097E+01 0.91682249180E+01 0.89979229994E+01 0.87586691220E+01 0.85626241075E+01
 0.92412245834E+01 0.87111482380E+01 0.83437663199E+01 0.80203784490E+01 0.77872514772E+01
 0.76563820865E+01 0.76155222428E+01 0.76559067965E+01 0.77861230916E+01 0.80191327614E+01
 0.83437601700E+01 0.87131718419E+01 0.92442532366E+01 0.10105189536E+02 0.11144375379E+02
 0.12003401837E+02 0.12336964880E+02 0.12004219806E+02 0.11144369499E+02 0.10103213524E+02
 0.12290671196E+02 0.10253006334E+02 0.90441403457E+01 0.84332075820E+01 0.79746267304E+01
 0.76563814713E+01 0.75001769691E+01 0.74999012359E+01 0.76558833731E+01 0.79746958177E+01
 0.84344972752E+01 0.90464175831E+01 0.10254941381E+02 0.12290708908E+02 0.14839276023E+02
 0.17204176691E+02 0.18628791192E+02 0.18630121354E+02 0.17207079211E+02 0.14841466719E+02
 0.19663985425E+02 0.14976779328E+02 0.11420906718E+02 0.93890222568E+01 0.84992932648E+01
 0.79599116864E+01 0.76155243135E+01 0.74999024865E+01 0.76153819882E+01 0.79603343730E+01
 0.85005578830E+01 0.93902430371E+01 0.11420754095E+02 0.14974833305E+02 0.19661135331E+02
 0.24443636318E+02 0.28028417914E+02 0.29359029710E+02 0.28029708428E+02 0.24446080734E+02
 0.32438196523E+02 0.24545139245E+02 0.17438821506E+02 0.12363744701E+02 0.96166460806E+01
 0.85248801731E+01 0.79601559041E+01 0.76559096179E+01 0.76558868096E+01 0.79603371013E+01
 0.85253966683E+01 0.96167454992E+01 0.12362443354E+02 0.17436433384E+02 0.24543480693E+02
 0.32438714486E+02 0.39287937374E+02 0.43276415221E+02 0.43275350356E+02 0.39285995842E+02
 0.50181143331E+02 0.39336955939E+02 0.28182316864E+02 0.18909952540E+02 0.12725064570E+02
 0.96171413574E+01 0.85005549480E+01 0.79746501538E+01 0.77861300487E+01 0.79747034647E+01
 0.85005615252E+01 0.96167449951E+01 0.12723965699E+02 0.18908670608E+02 0.28182315317E+02
 0.39339395851E+02 0.50185297349E+02 0.58128455951E+02 0.61048813326E+02 0.58125183781E+02
 0.70772873480E+02 0.58135676303E+02 0.43342498945E+02 0.29527487211E+02 0.18908643949E+02
 0.12362931387E+02 0.93905819067E+01 0.84344927494E+01 0.80190698582E+01 0.80191433307E+01
 0.84345027479E+01 0.93902417046E+01 0.12362438402E+02 0.18908666998E+02 0.29528522161E+02
 0.43344340811E+02 0.58137593501E+02 0.70774201178E+02 0.78097450451E+02 0.78096993730E+02
 0.90534683853E+02 0.78088690781E+02 0.61057867601E+02 0.43343559922E+02 0.28181055181E+02
 0.17435956661E+02 0.11420906718E+02 0.90464864910E+01 0.83436260653E+01 0.81104003562E+01
 0.83437663009E+01 0.90464164536E+01 0.11420747092E+02 0.17436423985E+02 0.28182309386E+02
 0.43344339900E+02 0.61056553157E+02 0.78085413188E+02 0.90531815333E+02 0.95113506278E+02
 0.10497854221E+03 0.95106415751E+02 0.78089131455E+02 0.58138913788E+02 0.39338884833E+02
 0.24542715073E+02 0.14974599374E+02 0.10254958653E+02 0.87130771328E+01 0.82484475294E+01
 0.82485381303E+01 0.87131729787E+01 0.10254935307E+02 0.14974821329E+02 0.24543469409E+02
 0.39339392758E+02 0.58137596190E+02 0.78085416197E+02 0.95102077516E+02 0.10497659750E+03
 0.83471742294E+02 0.79447552096E+02 0.68503961625E+02 0.53520830027E+02 0.37958483215E+02
 0.24721123023E+02 0.15480370428E+02 0.10456561057E+02 0.85541073119E+01 0.79302917495E+01
 0.77105604522E+01 0.79303123629E+01 0.85541261542E+01 0.10456563140E+02 0.15480367161E+02
 0.24721134895E+02 0.37958510397E+02 0.53520851262E+02 0.68503962396E+02 0.79447542930E+02
 0.79448927234E+02 0.79447548982E+02 0.71961639196E+02 0.59038884779E+02 0.43895501661E+02
 0.29730024614E+02 0.18816982079E+02 0.12070783473E+02 0.90002198747E+01 0.80259799954E+01
 0.76134112677E+01 0.76133371944E+01 0.80259085268E+01 0.90002828444E+01 0.12070724505E+02
 0.18816548655E+02 0.29729719277E+02 0.43896440129E+02 0.59041504897E+02 0.71964707851E+02
 0.68506007046E+02 0.71983894247E+02 0.68503956107E+02 0.59038883305E+02 0.46083270135E+02
 0.32667144307E+02 0.21359213030E+02 0.13622559524E+02 0.95724350130E+01 0.81045903250E+01
 0.75449728747E+01 0.73428531640E+01 0.75448022716E+01 0.81045894008E+01 0.95725820801E+01
 0.13622301168E+02 0.21358342465E+02 0.32666532537E+02 0.46084132854E+02 0.59041189434E+02
 0.53519919592E+02 0.59098847495E+02 0.59099147013E+02 0.53520825145E+02 0.43895498695E+02
 0.32667143848E+02 0.22309291812E+02 0.14574342998E+02 0.10067953608E+02 0.81904316930E+01
 0.75021162844E+01 0.71429523255E+01 0.71428642152E+01 0.75020352995E+01 0.81906185367E+01
 0.10068276008E+02 0.14574284524E+02 0.22308479752E+02 0.32665764439E+02 0.43894124155E+02
 0.37955586854E+02 0.44005579942E+02 0.46233928142E+02 0.44007865258E+02 0.37958479714E+02
 0.29730024510E+02 0.21359218696E+02 0.14574346828E+02 0.10264346434E+02 0.82564573810E+01
 0.74794059864E+01 0.70179269161E+01 0.68577865425E+01 0.70179053826E+01 0.74794062069E+01
 0.82567094208E+01 0.10265073279E+02 0.14575216194E+02 0.21359221359E+02 0.29728334973E+02
 0.24720810971E+02 0.29897594002E+02 0.32926542012E+02 0.32927307730E+02 0.29898971860E+02
 0.24721125618E+02 0.18816990382E+02 0.13622568835E+02 0.10067954889E+02 0.82564563780E+01
 0.74723904436E+01 0.69596411128E+01 0.66945819488E+01 0.66946453963E+01 0.69596058694E+01
 0.74720790241E+01 0.82563854972E+01 0.10068883754E+02 0.13624324860E+02 0.18818256883E+02
 0.15482411811E+02 0.19033486116E+02 0.21722229917E+02 0.22723768974E+02 0.21721382463E+02
 0.19031809987E+02 0.15480378421E+02 0.12070793574E+02 0.95724386753E+01 0.81904297410E+01
 0.74794065455E+01 0.69596408005E+01 0.66423577065E+01 0.65379874602E+01 0.66425210256E+01
 0.69594024687E+01 0.74785273135E+01 0.81895663439E+01 0.95725820801E+01 0.12072229332E+02
 0.10456498689E+02 0.12309986838E+02 0.14053539937E+02 0.15110619125E+02 0.15109709937E+02
 0.14051560221E+02 0.12308508441E+02 0.10456568351E+02 0.90002255448E+01 0.81045891742E+01
 0.75021147660E+01 0.70179250750E+01 0.66945764059E+01 0.65379853464E+01 0.65381724338E+01
 0.66949048692E+01 0.70178409320E+01 0.75011680803E+01 0.81029540836E+01 0.89988340895E+01
 0.85519160819E+01 0.92362993622E+01 0.10022087710E+02 0.10665285249E+02 0.10913956047E+02
 0.10664686892E+02 0.10022092620E+02 0.92377396076E+01 0.85541118355E+01 0.80259796060E+01
 0.75449674144E+01 0.71429476154E+01 0.68577796246E+01 0.66946408565E+01 0.66425231294E+01
 0.66949058723E+01 0.68585000130E+01 0.71437958850E+01 0.75449676945E+01 0.80245242225E+01
 0.79302249228E+01 0.82514429022E+01 0.85414043194E+01 0.87941180420E+01 0.89526698216E+01
 0.89529800346E+01 0.87951429127E+01 0.85430209613E+01 0.82528172125E+01 0.79302899853E+01
 0.76134033041E+01 0.73428460995E+01 0.71428601752E+01 0.70179020855E+01 0.69596077177E+01
 0.69594046294E+01 0.70178394760E+01 0.71437965552E+01 0.73446403719E+01 0.76148089389E+01
 0.77126051017E+01 0.78344433004E+01 0.79680470721E+01 0.80924349491E+01 0.81820369655E+01
 0.82151504178E+01 0.81828859700E+01 0.80932814978E+01 0.79678942591E+01 0.78329933723E+01
 0.77105530243E+01 0.76133303383E+01 0.75448019916E+01 0.75020358409E+01 0.74794065455E+01
 0.74720809944E+01 0.74785270931E+01 0.75011701401E+01 0.75449728747E+01 0.76148100464E+01
 0.79302225810E+01 0.78344427986E+01 0.77617904828E+01 0.77251361970E+01 0.77186425402E+01
 0.77236401451E+01 0.77238358365E+01 0.77186975566E+01 0.77242159403E+01 0.77600365104E+01
 0.78330770152E+01 0.79303082570E+01 0.80259104375E+01 0.81045938921E+01 0.81906194324E+01
 0.82567111331E+01 0.82563882126E+01 0.81895691916E+01 0.81029597257E+01 0.80245265226E+01
 0.85519144298E+01 0.82514421204E+01 0.79680475793E+01 0.77251346522E+01 0.75574749570E+01
 0.74674109122E+01 0.74402067088E+01 0.74671597618E+01 0.75567660630E+01 0.77242851088E+01
 0.79680424917E+01 0.82529046527E+01 0.85541290257E+01 0.90002899954E+01 0.95725869079E+01
 0.10068278812E+02 0.10265077095E+02 0.10068885278E+02 0.95725832456E+01 0.89988355704E+01
 0.10456500058E+02 0.92362996099E+01 0.85414037532E+01 0.80924308582E+01 0.77186380422E+01
 0.74674104945E+01 0.73466598362E+01 0.73464858861E+01 0.74670987629E+01 0.77187057262E+01
 0.80933280223E+01 0.85429945200E+01 0.92376786087E+01 0.10456571803E+02 0.12070734050E+02
 0.13622305910E+02 0.14574285829E+02 0.14575213669E+02 0.13624320291E+02 0.12072228776E+02
 0.15482415078E+02 0.12309988663E+02 0.10022085914E+02 0.87941133194E+01 0.81820314249E+01
 0.77236390300E+01 0.74402086651E+01 0.73464867229E+01 0.74400584762E+01 0.77238787823E+01
 0.81828859700E+01 0.87949433582E+01 0.10021927198E+02 0.12308556105E+02 0.15480378421E+02
 0.18816554344E+02 0.21358339803E+02 0.22308472257E+02 0.21359213030E+02 0.18818254269E+02
 0.24720813093E+02 0.19033489279E+02 0.14053539872E+02 0.10665283029E+02 0.89526665293E+01
 0.82151484716E+01 0.77238368452E+01 0.74671615638E+01 0.74671009826E+01 0.77238809062E+01
 0.82154748218E+01 0.89527575452E+01 0.10664376962E+02 0.14051805700E+02 0.19032240440E+02
 0.24721139612E+02 0.29729714580E+02 0.32666522108E+02 0.32665754469E+02 0.29728330381E+02
 0.37955586465E+02 0.29897598621E+02 0.21722235207E+02 0.15110622109E+02 0.10913955292E+02
 0.89529764588E+01 0.81828835256E+01 0.77186990411E+01 0.75567710889E+01 0.77187117087E+01
 0.81828890662E+01 0.89527572617E+01 0.10913269370E+02 0.15109774387E+02 0.21722234563E+02
 0.29899295783E+02 0.37958506506E+02 0.43896430365E+02 0.46084122236E+02 0.43894117357E+02
 0.53519918085E+02 0.44005586635E+02 0.32926553044E+02 0.22723777129E+02 0.15109710167E+02
 0.10664681017E+02 0.87951373754E+01 0.80932818010E+01 0.77242227105E+01 0.77242934237E+01
 0.80933324163E+01 0.87949425435E+01 0.10664373307E+02 0.15109771634E+02 0.22724560393E+02
 0.32927895748E+02 0.44006953316E+02 0.53520844873E+02 0.59041495014E+02 0.59041181025E+02
 0.68506006275E+02 0.59098855934E+02 0.46233941269E+02 0.32927317987E+02 0.21721383106E+02
 0.14051553058E+02 0.10022085914E+02 0.85430196391E+01 0.79678993467E+01 0.77600444295E+01
 0.79680470721E+01 0.85429937641E+01 0.10021922287E+02 0.14051798602E+02 0.21722229917E+02
 0.32927894973E+02 0.46233049249E+02 0.59096538459E+02 0.68503956107E+02 0.71964700385E+02
 0.79448927315E+02 0.71983901857E+02 0.59099157600E+02 0.44007873795E+02 0.29898973839E+02
 0.19031804131E+02 0.12308501330E+02 0.92377358273E+01 0.82528173389E+01 0.78329984117E+01
 0.78330825563E+01 0.82529055609E+01 0.92376745807E+01 0.12308547169E+02 0.19032231421E+02
 0.29899293144E+02 0.44006955160E+02 0.59096540607E+02 0.71980819261E+02 0.79447539896E+02
 0.56561960350E+02 0.53831492261E+02 0.46412109358E+02 0.36297274632E+02 0.25927416314E+02
 0.17365992392E+02 0.11725841053E+02 0.89459139198E+01 0.79391584911E+01 0.74256758123E+01
 0.72433054387E+01 0.74256863474E+01 0.79391660922E+01 0.89459110638E+01 0.11725837579E+02
 0.17366002357E+02 0.25927437969E+02 0.36297291220E+02 0.46412110178E+02 0.53831485493E+02
 0.53832310237E+02 0.53831489834E+02 0.48740081120E+02 0.39974754455E+02 0.29795038704E+02
 0.20478990491E+02 0.13614227939E+02 0.96979047411E+01 0.80982348397E+01 0.74536801688E+01