   2   2   0   0
  0.8228816E+01  0.2236800E-09  0.2236800E-09  0.3798240E-09  0.5000000E-15
  1.000000000000000E-004
  CAR 
 unknown system                          
     82.35244697     -4.48350502  301      9.57099659      1.00000000
     -4.484  0.0000E+00  0.0000E+00
     -4.194  0.0000E+00  0.0000E+00
     -3.905  0.0000E+00  0.0000E+00
     -3.615  0.0000E+00  0.0000E+00
     -3.326  0.0000E+00  0.0000E+00
     -3.036  0.0000E+00  0.0000E+00
     -2.747  0.0000E+00  0.0000E+00
     -2.457  0.0000E+00  0.0000E+00
     -2.168 -0.1509E-30 -0.4368E-31
     -1.878 -0.2749E-21 -0.7958E-22
     -1.589 -0.7019E-14 -0.2032E-14
     -1.300 -0.2576E-08 -0.7458E-09
     -1.010 -0.1256E-04 -0.3635E-05
     -0.721 -0.3941E-03 -0.1177E-03
     -0.431  0.8360E-02  0.2302E-02
     -0.142  0.3985E-01  0.1384E-01
      0.148  0.8485E-01  0.3840E-01
      0.437  0.5668E-01  0.5481E-01
      0.727  0.1146E+00  0.8797E-01
      1.016  0.1635E+00  0.1353E+00
      1.306  0.1457E+00  0.1775E+00
      1.595  0.1067E+00  0.2084E+00
      1.884  0.1542E+00  0.2530E+00
      2.174  0.3284E+00  0.3480E+00
      2.463  0.2514E+00  0.4208E+00
      2.753  0.3023E+00  0.5083E+00
      3.042  0.2080E+00  0.5685E+00
      3.332  0.1324E+01  0.9517E+00
      3.621  0.1849E+01  0.1487E+01
      3.911  0.1891E+01  0.2034E+01
      4.200  0.2460E+01  0.2746E+01
      4.490  0.2288E+01  0.3408E+01
      4.779  0.2122E+01  0.4022E+01
      5.068  0.1767E+01  0.4534E+01
      5.358  0.2608E+01  0.5289E+01
      5.647  0.2340E+01  0.5966E+01
      5.937  0.2448E+01  0.6675E+01
      6.226  0.2151E+01  0.7297E+01
      6.516  0.1495E+01  0.7730E+01
      6.805  0.2189E+01  0.8364E+01
      7.095  0.2994E+01  0.9230E+01
      7.384  0.2999E+01  0.1010E+02
      7.674  0.3079E+01  0.1099E+02
      7.963  0.3069E+01  0.1188E+02
      8.252  0.3573E+01  0.1291E+02
      8.542  0.2686E+01  0.1369E+02
      8.831  0.2132E+01  0.1431E+02
      9.121  0.2046E+01  0.1490E+02
      9.410  0.2561E+01  0.1564E+02
      9.700  0.2042E+01  0.1623E+02
      9.989  0.1502E+01  0.1667E+02
     10.279  0.2957E+01  0.1752E+02
     10.568  0.3759E+01  0.1861E+02
     10.858  0.3932E+01  0.1975E+02
     11.147  0.3833E+01  0.2086E+02
     11.436  0.1156E+01  0.2119E+02
     11.726  0.2090E+00  0.2125E+02
     12.015  0.7950E-01  0.2128E+02
     12.305  0.8710E+00  0.2153E+02
     12.594  0.6912E+00  0.2173E+02
     12.884  0.4950E+00  0.2187E+02
     13.173  0.2225E+00  0.2194E+02
     13.463  0.6831E+00  0.2213E+02
     13.752  0.3418E+00  0.2223E+02
     14.041  0.2023E+00  0.2229E+02
     14.331  0.2420E+00  0.2236E+02
     14.620  0.8161E+00  0.2260E+02
     14.910  0.4791E+00  0.2274E+02
     15.199  0.3357E+00  0.2283E+02
     15.489  0.1677E+00  0.2288E+02
     15.778  0.4001E+00  0.2300E+02
     16.068  0.3348E+00  0.2309E+02
     16.357  0.4738E+00  0.2323E+02
     16.647  0.2631E+00  0.2331E+02
     16.936  0.2631E+00  0.2338E+02
     17.225  0.2384E+00  0.2345E+02
     17.515  0.3129E+00  0.2354E+02
     17.804  0.3242E+00  0.2364E+02
     18.094  0.5268E+00  0.2379E+02
     18.383  0.2465E+00  0.2386E+02
     18.673  0.9567E-01  0.2389E+02
     18.962  0.5526E-01  0.2390E+02
     19.252  0.1604E+00  0.2395E+02
     19.541  0.2728E-01  0.2396E+02
     19.831  0.1149E+00  0.2399E+02
     20.120  0.2211E+00  0.2406E+02
     20.409  0.3289E+00  0.2415E+02
     20.699  0.3846E+00  0.2426E+02
     20.988  0.3194E+00  0.2436E+02
     21.278  0.3290E+00  0.2445E+02
     21.567  0.6370E+00  0.2463E+02
     21.857  0.9035E+00  0.2490E+02
     22.146  0.7043E+00  0.2510E+02
     22.436  0.5517E+00  0.2526E+02
     22.725  0.3710E+00  0.2537E+02
     23.015  0.7235E+00  0.2558E+02
     23.304  0.5441E+00  0.2573E+02
     23.593  0.8685E+00  0.2599E+02
     23.883  0.5666E+00  0.2615E+02
     24.172  0.5401E+00  0.2631E+02
     24.462  0.6815E+00  0.2650E+02
     24.751  0.7593E+00  0.2672E+02
     25.041  0.5951E+00  0.2690E+02
     25.330  0.6300E+00  0.2708E+02
     25.620  0.6391E+00  0.2726E+02
     25.909  0.6452E+00  0.2745E+02
     26.199  0.6316E+00  0.2763E+02
     26.488  0.3900E+00  0.2774E+02
     26.777  0.5146E+00  0.2789E+02
     27.067  0.5567E+00  0.2806E+02
     27.356  0.6486E+00  0.2824E+02
     27.646  0.6340E+00  0.2843E+02
     27.935  0.5861E+00  0.2860E+02
     28.225  0.5643E+00  0.2876E+02
     28.514  0.1034E+01  0.2906E+02
     28.804  0.9145E+00  0.2932E+02
     29.093  0.3715E+00  0.2943E+02
     29.383  0.1060E+01  0.2974E+02
     29.672  0.8692E+00  0.2999E+02
     29.961  0.5497E+00  0.3015E+02
     30.251  0.8388E+00  0.3039E+02
     30.540  0.8234E+00  0.3063E+02
     30.830  0.6816E+00  0.3083E+02
     31.119  0.9951E+00  0.3111E+02
     31.409  0.1227E+01  0.3147E+02
     31.698  0.5056E+00  0.3162E+02
     31.988  0.9769E+00  0.3190E+02
     32.277  0.8119E+00  0.3213E+02
     32.567  0.5236E+00  0.3229E+02
     32.856  0.7707E+00  0.3251E+02
     33.145  0.1086E+01  0.3282E+02
     33.435  0.9517E+00  0.3310E+02
     33.724  0.6613E+00  0.3329E+02
     34.014  0.9935E+00  0.3358E+02
     34.303  0.9914E+00  0.3386E+02
     34.593  0.7954E+00  0.3409E+02
     34.882  0.4960E+00  0.3424E+02
     35.172  0.4334E+00  0.3436E+02
     35.461  0.7685E+00  0.3459E+02
     35.750  0.6424E+00  0.3477E+02
     36.040  0.9717E+00  0.3505E+02
     36.329  0.6767E+00  0.3525E+02
     36.619  0.5520E+00  0.3541E+02
     36.908  0.7071E+00  0.3561E+02
     37.198  0.6757E+00  0.3581E+02
     37.487  0.6193E+00  0.3599E+02
     37.777  0.2984E+00  0.3607E+02
     38.066  0.4651E+00  0.3621E+02
     38.356  0.3205E+00  0.3630E+02
     38.645  0.7192E+00  0.3651E+02
     38.934  0.7730E+00  0.3673E+02
     39.224  0.7903E+00  0.3696E+02
     39.513  0.1048E+01  0.3727E+02
     39.803  0.1069E+01  0.3758E+02
     40.092  0.5043E+00  0.3772E+02
     40.382  0.7399E+00  0.3794E+02
     40.671  0.4685E+00  0.3807E+02
     40.961  0.1022E+01  0.3837E+02
     41.250  0.1129E+01  0.3869E+02
     41.540  0.8398E+00  0.3894E+02
     41.829  0.7465E+00  0.3915E+02
     42.118  0.7332E+00  0.3937E+02
     42.408  0.6481E+00  0.3955E+02
     42.697  0.6009E+00  0.3973E+02
     42.987  0.7774E+00  0.3995E+02
     43.276  0.7267E+00  0.4016E+02
     43.566  0.8247E+00  0.4040E+02
     43.855  0.1145E+01  0.4073E+02
     44.145  0.5733E+00  0.4090E+02
     44.434  0.5773E+00  0.4107E+02
     44.724  0.7791E+00  0.4129E+02
     45.013  0.6804E+00  0.4149E+02
     45.302  0.1027E+01  0.4179E+02
     45.592  0.6895E+00  0.4198E+02
     45.881  0.9060E+00  0.4225E+02
     46.171  0.7621E+00  0.4247E+02
     46.460  0.6188E+00  0.4265E+02
     46.750  0.8047E+00  0.4288E+02
     47.039  0.9551E+00  0.4316E+02
     47.329  0.1138E+01  0.4349E+02
     47.618  0.4731E+00  0.4362E+02
     47.908  0.7077E+00  0.4383E+02
     48.197  0.4730E+00  0.4396E+02
     48.486  0.7047E+00  0.4417E+02
     48.776  0.7211E+00  0.4438E+02
     49.065  0.5745E+00  0.4454E+02
     49.355  0.1107E+01  0.4486E+02
     49.644  0.1137E+01  0.4519E+02
     49.934  0.1225E+01  0.4555E+02
     50.223  0.1228E+01  0.4590E+02
     50.513  0.7363E+00  0.4612E+02
     50.802  0.6614E+00  0.4631E+02
     51.092  0.1149E+01  0.4664E+02
     51.381  0.1094E+01  0.4696E+02
     51.670  0.8111E+00  0.4719E+02
     51.960  0.1013E+01  0.4748E+02
     52.249  0.1063E+01  0.4779E+02
     52.539  0.1084E+01  0.4811E+02
     52.828  0.8670E+00  0.4836E+02
     53.118  0.1120E+01  0.4868E+02
     53.407  0.6637E+00  0.4887E+02
     53.697  0.5536E+00  0.4903E+02
     53.986  0.5986E+00  0.4921E+02
     54.275  0.1032E+01  0.4951E+02
     54.565  0.6060E+00  0.4968E+02
     54.854  0.5139E+00  0.4983E+02
     55.144  0.9556E+00  0.5011E+02
     55.433  0.6589E+00  0.5030E+02
     55.723  0.1076E+01  0.5061E+02
     56.012  0.1191E+01  0.5095E+02
     56.302  0.9277E+00  0.5122E+02
     56.591  0.9353E+00  0.5149E+02
     56.881  0.1125E+01  0.5182E+02
     57.170  0.1146E+01  0.5215E+02
     57.459  0.9878E+00  0.5244E+02
     57.749  0.6129E+00  0.5261E+02
     58.038  0.7813E+00  0.5284E+02
     58.328  0.1097E+01  0.5316E+02
     58.617  0.1129E+01  0.5348E+02
     58.907  0.1245E+01  0.5384E+02
     59.196  0.1302E+01  0.5422E+02
     59.486  0.1063E+01  0.5453E+02
     59.775  0.1332E+01  0.5491E+02
     60.065  0.1183E+01  0.5526E+02
     60.354  0.1122E+01  0.5558E+02
     60.643  0.1348E+01  0.5597E+02
     60.933  0.1311E+01  0.5635E+02
     61.222  0.9643E+00  0.5663E+02
     61.512  0.1215E+01  0.5698E+02
     61.801  0.1404E+01  0.5739E+02
     62.091  0.1469E+01  0.5781E+02
     62.380  0.1649E+01  0.5829E+02
     62.670  0.1751E+01  0.5880E+02
     62.959  0.1564E+01  0.5925E+02
     63.249  0.1573E+01  0.5971E+02
     63.538  0.1906E+01  0.6026E+02
     63.827  0.1952E+01  0.6082E+02
     64.117  0.2611E+01  0.6158E+02
     64.406  0.2699E+01  0.6236E+02
     64.696  0.1945E+01  0.6292E+02
     64.985  0.2818E+01  0.6374E+02
     65.275  0.3019E+01  0.6461E+02
     65.564  0.2234E+01  0.6526E+02
     65.854  0.1940E+01  0.6582E+02
     66.143  0.1743E+01  0.6633E+02
     66.433  0.1567E+01  0.6678E+02
     66.722  0.1522E+01  0.6722E+02
     67.011  0.1435E+01  0.6763E+02
     67.301  0.1022E+01  0.6793E+02
     67.590  0.1439E+01  0.6835E+02
     67.880  0.1665E+01  0.6883E+02
     68.169  0.1353E+01  0.6922E+02
     68.459  0.1123E+01  0.6955E+02
     68.748  0.9535E+00  0.6982E+02
     69.038  0.1584E+01  0.7028E+02
     69.327  0.8650E+00  0.7053E+02
     69.617  0.1110E+01  0.7085E+02
     69.906  0.1252E+01  0.7121E+02
     70.195  0.1034E+01  0.7151E+02
     70.485  0.1303E+01  0.7189E+02
     70.774  0.1319E+01  0.7227E+02
     71.064  0.1042E+01  0.7257E+02
     71.353  0.1239E+01  0.7293E+02
     71.643  0.1018E+01  0.7323E+02
     71.932  0.1378E+01  0.7363E+02
     72.222  0.1842E+01  0.7416E+02
     72.511  0.1401E+01  0.7456E+02
     72.800  0.1051E+01  0.7487E+02
     73.090  0.9883E+00  0.7515E+02
     73.379  0.8529E+00  0.7540E+02
     73.669  0.1270E+01  0.7577E+02
     73.958  0.1222E+01  0.7612E+02
     74.248  0.1354E+01  0.7652E+02
     74.537  0.1231E+01  0.7687E+02
     74.827  0.1009E+01  0.7716E+02
     75.116  0.8929E+00  0.7742E+02
     75.406  0.7704E+00  0.7765E+02
     75.695  0.1292E+01  0.7802E+02
     75.984  0.1279E+01  0.7839E+02
     76.274  0.1195E+01  0.7874E+02
     76.563  0.9466E+00  0.7901E+02
     76.853  0.8191E+00  0.7925E+02
     77.142  0.1022E+01  0.7954E+02
     77.432  0.5757E+00  0.7971E+02
     77.721  0.3542E+00  0.7981E+02
     78.011  0.5646E+00  0.7997E+02
     78.300  0.3513E-01  0.7998E+02
     78.590  0.5288E-01  0.8000E+02
     78.879 -0.8023E-03  0.8000E+02
     79.168 -0.1273E-03  0.8000E+02
     79.458 -0.2978E-07  0.8000E+02
     79.747 -0.8352E-13  0.8000E+02
     80.037  0.0000E+00  0.8000E+02
     80.326  0.0000E+00  0.8000E+02
     80.616  0.0000E+00  0.8000E+02
     80.905  0.0000E+00  0.8000E+02
     81.195  0.0000E+00  0.8000E+02
     81.484  0.0000E+00  0.8000E+02
     81.774  0.0000E+00  0.8000E+02
     82.063  0.0000E+00  0.8000E+02
     82.352  0.0000E+00  0.8000E+02
