 vasp.6.2.0 18Jan21 (build Mar 17 2021 09:06:54) complex                        
  
 executed on             LinuxIFC date 2021.09.09  11:55:42
 serial version


--------------------------------------------------------------------------------------------------------


 INCAR:
   ENCUT = 280.000000
   SIGMA = 0.200000
   EDIFF = 1.00e-06
   GGA = PE
   PREC = normal
   IBRION = 1
   ICHARG = 1
   ISIF = 2
   ISMEAR = 1
   KPAR = 1
   NBANDS = 40
   NSW = 0
   NCORE = 1
   LCHARG = .TRUE.

 POTCAR:    PAW_PBE Fe 06Sep2000                  
 POTCAR:    PAW_PBE Fe 06Sep2000                  
   SHA256 =  cd5a22d9368cc8b5cc476bea79732366149640da08ac9009b0e1b7fc627eea28 Fe/POTCAR             
   COPYR  = (c) Copyright 06Sep2000 Georg Kresse                                                    
   COPYR  = This file is part of the software VASP. Any use, copying, and all other rights are regul
   COPYR  = If you do not have a valid VASP license, you may not use, copy or distribute this file. 
   VRHFIN =Fe:  d7 s1                                                                               
   LEXCH  = PE                                                                                      
   EATOM  =   594.3153 eV,   43.6809 Ry                                                             
                                                                                                    
   TITEL  = PAW_PBE Fe 06Sep2000                                                                    
   LULTRA =        F    use ultrasoft PP ?                                                          
   IUNSCR =        1    unscreen: 0-lin 1-nonlin 2-no                                               
   RPACOR =    2.000    partial core radius                                                         
   POMASS =   55.847; ZVAL   =    8.000    mass and valenz                                          
   RCORE  =    2.300    outmost cutoff radius                                                       
   RWIGS  =    2.460; RWIGS  =    1.302    wigner-seitz radius (au A)                               
   ENMAX  =  267.882; ENMIN  =  200.911 eV                                                          
   RCLOC  =    1.701    cutoff for local pot                                                        
   LCOR   =        T    correct aug charges                                                         
   LPAW   =        T    paw PP                                                                      
   EAUG   =  511.368                                                                                
   DEXC   =    0.000                                                                                
   RMAX   =    2.356    core radius for proj-oper                                                   
   RAUG   =    1.300    factor for augmentation sphere                                              
   RDEP   =    2.442    radius for radial grids                                                     
   RDEPT  =    1.890    core radius for aug-charge                                                  
                                                                                                    
   Atomic configuration                                                                             
    9 entries                                                                                       
     n  l   j            E        occ.                                                              
     1  0  0.50     -6993.8440   2.0000                                                             
     2  0  0.50      -814.6047   2.0000                                                             
     2  1  1.50      -693.3689   6.0000                                                             
     3  0  0.50       -89.4732   2.0000                                                             
     3  1  1.50       -55.6373   6.0000                                                             
     3  2  2.50        -3.8151   7.0000                                                             
     4  0  0.50        -4.2551   1.0000                                                             
     4  1  1.50        -3.4015   0.0000                                                             
     4  3  2.50        -1.3606   0.0000                                                             
   Description                                                                                      
     l       E           TYP  RCUT    TYP  RCUT                                                     
     2     -3.8151135     23  2.300                                                                 
     2     -5.1756961     23  2.300                                                                 
     0     -4.2550963     23  2.300                                                                 
     0      7.2035603     23  2.300                                                                 
     1     -2.7211652     23  2.300                                                                 
     1     18.4316424     23  2.300                                                                 
  local pseudopotential read in
  partial core-charges read in
  partial kinetic energy density read in
  atomic valenz-charges read in
  non local Contribution for L=           2  read in
    real space projection operators read in
  non local Contribution for L=           2  read in
    real space projection operators read in
  non local Contribution for L=           0  read in
    real space projection operators read in
  non local Contribution for L=           0  read in
    real space projection operators read in
  non local Contribution for L=           1  read in
    real space projection operators read in
  non local Contribution for L=           1  read in
    real space projection operators read in
    PAW grid and wavefunctions read in
 
   number of l-projection  operators is LMAX  =           6
   number of lm-projection operators is LMMAX =          18
 
  PAW_PBE Fe 06Sep2000                  :
 energy of atom  1       EATOM= -594.3153
 kinetic energy error for atom=    0.0278 (will be added to EATOM!!)
 
 
 POSCAR: Fe
  positions in cartesian coordinates
  No initial velocities read in
 exchange correlation table for  LEXCH =        8
   RHO(1)=    0.500       N(1)  =     2000
   RHO(2)=  100.500       N(2)  =     4000
 


--------------------------------------------------------------------------------------------------------


 ion  position               nearest neighbor table
   1  0.000  0.000  0.000-   2 2.30   2 2.30   2 2.30   2 2.30   2 2.30   2 2.30
   2  0.333  0.667  0.500-   1 2.30   1 2.30   1 2.30   1 2.30   1 2.30   1 2.30
 
  LATTYP: Found a hexagonal cell.
 ALAT       =     2.2368000000
 C/A-ratio  =     1.6980686695
  
  Lattice vectors:
  
 A1 = (   2.2368000000,   0.0000000000,   0.0000000000)
 A2 = (  -1.1184000000,   1.9371256232,   0.0000000000)
 A3 = (   0.0000000000,   0.0000000000,   3.7982400000)


Analysis of symmetry for initial positions (statically):
=====================================================================
 Subroutine PRICEL returns:
 Original cell was already a primitive cell.
 

 Routine SETGRP: Setting up the symmetry group for a 
 hexagonal supercell.


 Subroutine GETGRP returns: Found 24 space group operations
 (whereof 12 operations were pure point group operations)
 out of a pool of 24 trial point group operations.


The static configuration has the point symmetry D_3h.
 The point group associated with its full space group is D_6h.


Analysis of symmetry for dynamics (positions and initial velocities):
=====================================================================
 Subroutine PRICEL returns:
 Original cell was already a primitive cell.
 

 Routine SETGRP: Setting up the symmetry group for a 
 hexagonal supercell.


 Subroutine GETGRP returns: Found 24 space group operations
 (whereof 12 operations were pure point group operations)
 out of a pool of 24 trial point group operations.


The dynamic configuration has the point symmetry D_3h.
 The point group associated with its full space group is D_6h.


 Subroutine INISYM returns: Found 24 space group operations
 (whereof 12 operations are pure point group operations),
 and found     1 'primitive' translations


----------------------------------------------------------------------------------------

                                     Primitive cell                                     

  volume of cell :      16.4576

  direct lattice vectors                    reciprocal lattice vectors
     2.236800000  0.000000000  0.000000000     0.447067239  0.258114391  0.000000000
    -1.118400000  1.937125623  0.000000000     0.000000000  0.516228781  0.000000000
     0.000000000  0.000000000  3.798240000     0.000000000  0.000000000  0.263279835

  length of vectors
     2.236800000  2.236800000  3.798240000     0.516228781  0.516228781  0.263279835

  position of ions in fractional coordinates (direct lattice)
     0.000000000  0.000000000  0.000000000
     0.333333333  0.666666667  0.500000000

  ion indices of the primitive-cell ions
   primitive index   ion index
                 1           1
                 2           2

----------------------------------------------------------------------------------------

 
 
 KPOINTS: KPOINTS created by Atomic Simulation Env

Automatic generation of k-mesh.
 Grid dimensions read from file:
 generate k-points for:   11   11   11

 Generating k-lattice:

  Cartesian coordinates                     Fractional coordinates (reciprocal lattice)
     0.040642476  0.023464945  0.000000000     0.090909091 -0.000000000  0.000000000
     0.000000000  0.046929889  0.000000000     0.000000000  0.090909091  0.000000000
     0.000000000  0.000000000  0.023934530     0.000000000  0.000000000  0.090909091

  Length of vectors
     0.046929889  0.046929889  0.023934530

  Shift w.r.t. Gamma in fractional coordinates (k-lattice)
     0.000000000  0.000000000  0.000000000

 
 Subroutine IBZKPT returns following result:
 ===========================================
 
 Found     96 irreducible k-points:
 
 Following reciprocal coordinates:
            Coordinates               Weight
  0.000000  0.000000  0.000000      1.000000
  0.090909  0.000000  0.000000      6.000000
  0.181818  0.000000  0.000000      6.000000
  0.272727  0.000000  0.000000      6.000000
  0.363636  0.000000  0.000000      6.000000
  0.454545  0.000000  0.000000      6.000000
  0.090909  0.090909  0.000000      6.000000
  0.181818  0.090909  0.000000     12.000000
  0.272727  0.090909  0.000000     12.000000
  0.363636  0.090909  0.000000     12.000000
  0.454545  0.090909  0.000000      6.000000
  0.181818  0.181818  0.000000      6.000000
  0.272727  0.181818  0.000000     12.000000
  0.363636  0.181818  0.000000     12.000000
  0.272727  0.272727  0.000000      6.000000
  0.363636  0.272727  0.000000      6.000000
  0.000000  0.000000  0.090909      2.000000
  0.090909  0.000000  0.090909     12.000000
  0.181818  0.000000  0.090909     12.000000
  0.272727  0.000000  0.090909     12.000000
  0.363636  0.000000  0.090909     12.000000
  0.454545  0.000000  0.090909     12.000000
  0.090909  0.090909  0.090909     12.000000
  0.181818  0.090909  0.090909     24.000000
  0.272727  0.090909  0.090909     24.000000
  0.363636  0.090909  0.090909     24.000000
  0.454545  0.090909  0.090909     12.000000
  0.181818  0.181818  0.090909     12.000000
  0.272727  0.181818  0.090909     24.000000
  0.363636  0.181818  0.090909     24.000000
  0.272727  0.272727  0.090909     12.000000
  0.363636  0.272727  0.090909     12.000000
  0.000000  0.000000  0.181818      2.000000
  0.090909  0.000000  0.181818     12.000000
  0.181818  0.000000  0.181818     12.000000
  0.272727  0.000000  0.181818     12.000000
  0.363636  0.000000  0.181818     12.000000
  0.454545  0.000000  0.181818     12.000000
  0.090909  0.090909  0.181818     12.000000
  0.181818  0.090909  0.181818     24.000000
  0.272727  0.090909  0.181818     24.000000
  0.363636  0.090909  0.181818     24.000000
  0.454545  0.090909  0.181818     12.000000
  0.181818  0.181818  0.181818     12.000000
  0.272727  0.181818  0.181818     24.000000
  0.363636  0.181818  0.181818     24.000000
  0.272727  0.272727  0.181818     12.000000
  0.363636  0.272727  0.181818     12.000000
  0.000000  0.000000  0.272727      2.000000
  0.090909  0.000000  0.272727     12.000000
  0.181818  0.000000  0.272727     12.000000
  0.272727  0.000000  0.272727     12.000000
  0.363636  0.000000  0.272727     12.000000
  0.454545  0.000000  0.272727     12.000000
  0.090909  0.090909  0.272727     12.000000
  0.181818  0.090909  0.272727     24.000000
  0.272727  0.090909  0.272727     24.000000
  0.363636  0.090909  0.272727     24.000000
  0.454545  0.090909  0.272727     12.000000
  0.181818  0.181818  0.272727     12.000000
  0.272727  0.181818  0.272727     24.000000
  0.363636  0.181818  0.272727     24.000000
  0.272727  0.272727  0.272727     12.000000
  0.363636  0.272727  0.272727     12.000000
  0.000000  0.000000  0.363636      2.000000
  0.090909  0.000000  0.363636     12.000000
  0.181818  0.000000  0.363636     12.000000
  0.272727  0.000000  0.363636     12.000000
  0.363636  0.000000  0.363636     12.000000
  0.454545  0.000000  0.363636     12.000000
  0.090909  0.090909  0.363636     12.000000
  0.181818  0.090909  0.363636     24.000000
  0.272727  0.090909  0.363636     24.000000
  0.363636  0.090909  0.363636     24.000000
  0.454545  0.090909  0.363636     12.000000
  0.181818  0.181818  0.363636     12.000000
  0.272727  0.181818  0.363636     24.000000
  0.363636  0.181818  0.363636     24.000000
  0.272727  0.272727  0.363636     12.000000
  0.363636  0.272727  0.363636     12.000000
  0.000000  0.000000  0.454545      2.000000
  0.090909  0.000000  0.454545     12.000000
  0.181818  0.000000  0.454545     12.000000
  0.272727  0.000000  0.454545     12.000000
  0.363636  0.000000  0.454545     12.000000
  0.454545  0.000000  0.454545     12.000000
  0.090909  0.090909  0.454545     12.000000
  0.181818  0.090909  0.454545     24.000000
  0.272727  0.090909  0.454545     24.000000
  0.363636  0.090909  0.454545     24.000000
  0.454545  0.090909  0.454545     12.000000
  0.181818  0.181818  0.454545     12.000000
  0.272727  0.181818  0.454545     24.000000
  0.363636  0.181818  0.454545     24.000000
  0.272727  0.272727  0.454545     12.000000
  0.363636  0.272727  0.454545     12.000000
 
 Following cartesian coordinates:
            Coordinates               Weight
  0.000000  0.000000  0.000000      1.000000
  0.040642  0.023465  0.000000      6.000000
  0.081285  0.046930  0.000000      6.000000
  0.121927  0.070395  0.000000      6.000000
  0.162570  0.093860  0.000000      6.000000
  0.203212  0.117325  0.000000      6.000000
  0.040642  0.070395  0.000000      6.000000
  0.081285  0.093860  0.000000     12.000000
  0.121927  0.117325  0.000000     12.000000
  0.162570  0.140790  0.000000     12.000000
  0.203212  0.164255  0.000000      6.000000
  0.081285  0.140790  0.000000      6.000000
  0.121927  0.164255  0.000000     12.000000
  0.162570  0.187720  0.000000     12.000000
  0.121927  0.211185  0.000000      6.000000
  0.162570  0.234649  0.000000      6.000000
  0.000000  0.000000  0.023935      2.000000
  0.040642  0.023465  0.023935     12.000000
  0.081285  0.046930  0.023935     12.000000
  0.121927  0.070395  0.023935     12.000000
  0.162570  0.093860  0.023935     12.000000
  0.203212  0.117325  0.023935     12.000000
  0.040642  0.070395  0.023935     12.000000
  0.081285  0.093860  0.023935     24.000000
  0.121927  0.117325  0.023935     24.000000
  0.162570  0.140790  0.023935     24.000000
  0.203212  0.164255  0.023935     12.000000
  0.081285  0.140790  0.023935     12.000000
  0.121927  0.164255  0.023935     24.000000
  0.162570  0.187720  0.023935     24.000000
  0.121927  0.211185  0.023935     12.000000
  0.162570  0.234649  0.023935     12.000000
  0.000000  0.000000  0.047869      2.000000
  0.040642  0.023465  0.047869     12.000000
  0.081285  0.046930  0.047869     12.000000
  0.121927  0.070395  0.047869     12.000000
  0.162570  0.093860  0.047869     12.000000
  0.203212  0.117325  0.047869     12.000000
  0.040642  0.070395  0.047869     12.000000
  0.081285  0.093860  0.047869     24.000000
  0.121927  0.117325  0.047869     24.000000
  0.162570  0.140790  0.047869     24.000000
  0.203212  0.164255  0.047869     12.000000
  0.081285  0.140790  0.047869     12.000000
  0.121927  0.164255  0.047869     24.000000
  0.162570  0.187720  0.047869     24.000000
  0.121927  0.211185  0.047869     12.000000
  0.162570  0.234649  0.047869     12.000000
  0.000000  0.000000  0.071804      2.000000
  0.040642  0.023465  0.071804     12.000000
  0.081285  0.046930  0.071804     12.000000
  0.121927  0.070395  0.071804     12.000000
  0.162570  0.093860  0.071804     12.000000
  0.203212  0.117325  0.071804     12.000000
  0.040642  0.070395  0.071804     12.000000
  0.081285  0.093860  0.071804     24.000000
  0.121927  0.117325  0.071804     24.000000
  0.162570  0.140790  0.071804     24.000000
  0.203212  0.164255  0.071804     12.000000
  0.081285  0.140790  0.071804     12.000000
  0.121927  0.164255  0.071804     24.000000
  0.162570  0.187720  0.071804     24.000000
  0.121927  0.211185  0.071804     12.000000
  0.162570  0.234649  0.071804     12.000000
  0.000000  0.000000  0.095738      2.000000
  0.040642  0.023465  0.095738     12.000000
  0.081285  0.046930  0.095738     12.000000
  0.121927  0.070395  0.095738     12.000000
  0.162570  0.093860  0.095738     12.000000
  0.203212  0.117325  0.095738     12.000000
  0.040642  0.070395  0.095738     12.000000
  0.081285  0.093860  0.095738     24.000000
  0.121927  0.117325  0.095738     24.000000
  0.162570  0.140790  0.095738     24.000000
  0.203212  0.164255  0.095738     12.000000
  0.081285  0.140790  0.095738     12.000000
  0.121927  0.164255  0.095738     24.000000
  0.162570  0.187720  0.095738     24.000000
  0.121927  0.211185  0.095738     12.000000
  0.162570  0.234649  0.095738     12.000000
  0.000000  0.000000  0.119673      2.000000
  0.040642  0.023465  0.119673     12.000000
  0.081285  0.046930  0.119673     12.000000
  0.121927  0.070395  0.119673     12.000000
  0.162570  0.093860  0.119673     12.000000
  0.203212  0.117325  0.119673     12.000000
  0.040642  0.070395  0.119673     12.000000
  0.081285  0.093860  0.119673     24.000000
  0.121927  0.117325  0.119673     24.000000
  0.162570  0.140790  0.119673     24.000000
  0.203212  0.164255  0.119673     12.000000
  0.081285  0.140790  0.119673     12.000000
  0.121927  0.164255  0.119673     24.000000
  0.162570  0.187720  0.119673     24.000000
  0.121927  0.211185  0.119673     12.000000
  0.162570  0.234649  0.119673     12.000000
 


--------------------------------------------------------------------------------------------------------




 Dimension of arrays:
   k-points           NKPTS =     96   k-points in BZ     NKDIM =     96   number of bands    NBANDS=     40
   number of dos      NEDOS =    301   number of ions     NIONS =      2
   non local maximal  LDIM  =      6   non local SUM 2l+1 LMDIM =     18
   total plane-waves  NPLWV =   1600
   max r-space proj   IRMAX =      1   max aug-charges    IRDMAX=   3662
   dimension x,y,z NGX =    10 NGY =   10 NGZ =   16
   dimension x,y,z NGXF=    20 NGYF=   20 NGZF=   32
   support grid    NGXF=    20 NGYF=   20 NGZF=   32
   ions per type =               2
   NGX,Y,Z   is equivalent  to a cutoff of   7.43,  7.43,  7.00 a.u.
   NGXF,Y,Z  is equivalent  to a cutoff of  14.86, 14.86, 14.01 a.u.

 SYSTEM =  unknown system                          
 POSCAR =  Fe                                      

 Startparameter for this run:
   NWRITE =      2    write-flag & timer
   PREC   = normal    normal or accurate (medium, high low for compatibility)
   ISTART =      0    job   : 0-new  1-cont  2-samecut
   ICHARG =      1    charge: 1-file 2-atom 10-const
   ISPIN  =      1    spin polarized calculation?
   LNONCOLLINEAR =      F non collinear calculations
   LSORBIT =      F    spin-orbit coupling
   INIWAV =      1    electr: 0-lowe 1-rand  2-diag
   LASPH  =      F    aspherical Exc in radial PAW
   METAGGA=      F    non-selfconsistent MetaGGA calc.

 Electronic Relaxation 1
   ENCUT  =  280.0 eV  20.58 Ry    4.54 a.u.   3.05  3.05  5.18*2*pi/ulx,y,z
   ENINI  =  280.0     initial cutoff
   ENAUG  =  511.4 eV  augmentation charge cutoff
   NELM   =     60;   NELMIN=  2; NELMDL= -5     # of ELM steps 
   EDIFF  = 0.1E-05   stopping-criterion for ELM
   LREAL  =      F    real-space projection
   NLSPLINE    = F    spline interpolate recip. space projectors
   LCOMPAT=      F    compatible to vasp.4.4
   GGA_COMPAT  = T    GGA compatible to vasp.4.4-vasp.4.6
   LMAXPAW     = -100 max onsite density
   LMAXMIX     =    2 max onsite mixed and CHGCAR
   VOSKOWN=      0    Vosko Wilk Nusair interpolation
   ROPT   =    0.00000
 Ionic relaxation
   EDIFFG = 0.1E-04   stopping-criterion for IOM
   NSW    =      0    number of steps for IOM
   NBLOCK =      1;   KBLOCK =      1    inner block; outer block 
   IBRION =     -1    ionic relax: 0-MD 1-quasi-New 2-CG
   NFREE  =      0    steps in history (QN), initial steepest desc. (CG)
   ISIF   =      2    stress and relaxation
   IWAVPR =      0    prediction:  0-non 1-charg 2-wave 3-comb
   ISYM   =      2    0-nonsym 1-usesym 2-fastsym
   LCORR  =      T    Harris-Foulkes like correction to forces

   POTIM  = 0.5000    time-step for ionic-motion
   TEIN   =    0.0    initial temperature
   TEBEG  =    0.0;   TEEND  =   0.0 temperature during run
   SMASS  =  -3.00    Nose mass-parameter (am)
   estimated Nose-frequenzy (Omega)   =  0.10E-29 period in steps = 0.13E+47 mass=  -0.114E-27a.u.
   SCALEE = 1.0000    scale energy and forces
   NPACO  =    256;   APACO  = 16.0  distance and # of slots for P.C.
   PSTRESS=    0.0 pullay stress

  Mass of Ions in am
   POMASS =  55.85
  Ionic Valenz
   ZVAL   =   8.00
  Atomic Wigner-Seitz radii
   RWIGS  =  -1.00
  virtual crystal weights 
   VCA    =   1.00
   NELECT =      16.0000    total number of electrons
   NUPDOWN=      -1.0000    fix difference up-down

 DOS related values:
   EMIN   =  10.00;   EMAX   =-10.00  energy-range for DOS
   EFERMI =   0.00
   ISMEAR =     1;   SIGMA  =   0.20  broadening in eV -4-tet -1-fermi 0-gaus

 Electronic relaxation 2 (details)
   IALGO  =     38    algorithm
   LDIAG  =      T    sub-space diagonalisation (order eigenvalues)
   LSUBROT=      F    optimize rotation matrix (better conditioning)
   TURBO    =      0    0=normal 1=particle mesh
   IRESTART =      0    0=no restart 2=restart with 2 vectors
   NREBOOT  =      0    no. of reboots
   NMIN     =      0    reboot dimension
   EREF     =   0.00    reference energy to select bands
   IMIX   =      4    mixing-type and parameters
     AMIX     =   0.40;   BMIX     =  1.00
     AMIX_MAG =   1.60;   BMIX_MAG =  1.00
     AMIN     =   0.10
     WC   =   100.;   INIMIX=   1;  MIXPRE=   1;  MAXMIX= -45

 Intra band minimization:
   WEIMIN = 0.0000     energy-eigenvalue tresh-hold
   EBREAK =  0.62E-08  absolut break condition
   DEPER  =   0.30     relativ break condition  

   TIME   =   0.40     timestep for ELM

  volume/ion in A,a.u.               =       8.23        55.53
  Fermi-wavevector in a.u.,A,eV,Ry     =   1.621782  3.064723 35.785712  2.630176
  Thomas-Fermi vector in A             =   2.715502
 
 Write flags
   LWAVE        =      T    write WAVECAR
   LDOWNSAMPLE  =      F    k-point downsampling of WAVECAR
   LCHARG       =      T    write CHGCAR
   LVTOT        =      F    write LOCPOT, total local potential
   LVHAR        =      F    write LOCPOT, Hartree potential only
   LELF         =      F    write electronic localiz. function (ELF)
   LORBIT       =      0    0 simple, 1 ext, 2 COOP (PROOUT), +10 PAW based schemes


 Dipole corrections
   LMONO  =      F    monopole corrections only (constant potential shift)
   LDIPOL =      F    correct potential (dipole corrections)
   IDIPOL =      0    1-x, 2-y, 3-z, 4-all directions 
   EPSILON=  1.0000000 bulk dielectric constant

 Exchange correlation treatment:
   GGA     =    PE    GGA type
   LEXCH   =     8    internal setting for exchange type
   VOSKOWN=      0    Vosko Wilk Nusair interpolation
   LHFCALC =     F    Hartree Fock is set to
   LHFONE  =     F    Hartree Fock one center treatment
   AEXX    =    0.0000 exact exchange contribution

 Linear response parameters
   LEPSILON=     F    determine dielectric tensor
   LRPA    =     F    only Hartree local field effects (RPA)
   LNABLA  =     F    use nabla operator in PAW spheres
   LVEL    =     F    velocity operator in full k-point grid
   LINTERFAST=   F  fast interpolation
   KINTER  =     0    interpolate to denser k-point grid
   CSHIFT  =0.1000    complex shift for real part using Kramers Kronig
   OMEGAMAX=  -1.0    maximum frequency
   DEG_THRESHOLD= 0.2000000E-02 threshold for treating states as degnerate
   RTIME   =   -0.100 relaxation time in fs
  (WPLASMAI=    0.000 imaginary part of plasma frequency in eV, 0.658/RTIME)
   DFIELD  = 0.0000000 0.0000000 0.0000000 field for delta impulse in time
 
 Orbital magnetization related:
   ORBITALMAG=     F  switch on orbital magnetization
   LCHIMAG   =     F  perturbation theory with respect to B field
   DQ        =  0.001000  dq finite difference perturbation B field
   LLRAUG    =     F  two centre corrections for induced B field



--------------------------------------------------------------------------------------------------------


 Static calculation
 charge density and potential will be updated during run
 non-spin polarized calculation
 Variant of blocked Davidson
 Davidson routine will perform the subspace rotation
 perform sub-space diagonalisation
    after iterative eigenvector-optimisation
 modified Broyden-mixing scheme, WC =      100.0
 initial mixing is a Kerker type mixing with AMIX =  0.4000 and BMIX =      1.0000
 Hartree-type preconditioning will be used
 using additional bands           32
 reciprocal scheme for non local part
 use partial core corrections
 calculate Harris-corrections to forces 
   (improved forces if not selfconsistent)
 use gradient corrections 
 use of overlap-Matrix (Vanderbilt PP)
 Methfessel and Paxton  Order N= 1 SIGMA  =   0.20


--------------------------------------------------------------------------------------------------------


  energy-cutoff  :      280.00
  volume of cell :       16.46
      direct lattice vectors                 reciprocal lattice vectors
     2.236800000  0.000000000  0.000000000     0.447067239  0.258114391  0.000000000
    -1.118400000  1.937125623  0.000000000     0.000000000  0.516228781  0.000000000
     0.000000000  0.000000000  3.798240000     0.000000000  0.000000000  0.263279835

  length of vectors
     2.236800000  2.236800000  3.798240000     0.516228781  0.516228781  0.263279835


 
 k-points in units of 2pi/SCALE and weight: KPOINTS created by Atomic Simulation Env
   0.00000000  0.00000000  0.00000000       0.001
   0.04064248  0.02346494  0.00000000       0.005
   0.08128495  0.04692989  0.00000000       0.005
   0.12192743  0.07039483  0.00000000       0.005
   0.16256991  0.09385978  0.00000000       0.005
   0.20321238  0.11732472  0.00000000       0.005
   0.04064248  0.07039483  0.00000000       0.005
   0.08128495  0.09385978  0.00000000       0.009
   0.12192743  0.11732472  0.00000000       0.009
   0.16256991  0.14078967  0.00000000       0.009
   0.20321238  0.16425461  0.00000000       0.005
   0.08128495  0.14078967  0.00000000       0.005
   0.12192743  0.16425461  0.00000000       0.009
   0.16256991  0.18771956  0.00000000       0.009
   0.12192743  0.21118450  0.00000000       0.005
   0.16256991  0.23464945  0.00000000       0.005
   0.00000000  0.00000000  0.02393453       0.002
   0.04064248  0.02346494  0.02393453       0.009
   0.08128495  0.04692989  0.02393453       0.009
   0.12192743  0.07039483  0.02393453       0.009
   0.16256991  0.09385978  0.02393453       0.009
   0.20321238  0.11732472  0.02393453       0.009
   0.04064248  0.07039483  0.02393453       0.009
   0.08128495  0.09385978  0.02393453       0.018
   0.12192743  0.11732472  0.02393453       0.018
   0.16256991  0.14078967  0.02393453       0.018
   0.20321238  0.16425461  0.02393453       0.009
   0.08128495  0.14078967  0.02393453       0.009
   0.12192743  0.16425461  0.02393453       0.018
   0.16256991  0.18771956  0.02393453       0.018
   0.12192743  0.21118450  0.02393453       0.009
   0.16256991  0.23464945  0.02393453       0.009
   0.00000000  0.00000000  0.04786906       0.002
   0.04064248  0.02346494  0.04786906       0.009
   0.08128495  0.04692989  0.04786906       0.009
   0.12192743  0.07039483  0.04786906       0.009
   0.16256991  0.09385978  0.04786906       0.009
   0.20321238  0.11732472  0.04786906       0.009
   0.04064248  0.07039483  0.04786906       0.009
   0.08128495  0.09385978  0.04786906       0.018
   0.12192743  0.11732472  0.04786906       0.018
   0.16256991  0.14078967  0.04786906       0.018
   0.20321238  0.16425461  0.04786906       0.009
   0.08128495  0.14078967  0.04786906       0.009
   0.12192743  0.16425461  0.04786906       0.018
   0.16256991  0.18771956  0.04786906       0.018
   0.12192743  0.21118450  0.04786906       0.009
   0.16256991  0.23464945  0.04786906       0.009
   0.00000000  0.00000000  0.07180359       0.002
   0.04064248  0.02346494  0.07180359       0.009
   0.08128495  0.04692989  0.07180359       0.009
   0.12192743  0.07039483  0.07180359       0.009
   0.16256991  0.09385978  0.07180359       0.009
   0.20321238  0.11732472  0.07180359       0.009
   0.04064248  0.07039483  0.07180359       0.009
   0.08128495  0.09385978  0.07180359       0.018
   0.12192743  0.11732472  0.07180359       0.018
   0.16256991  0.14078967  0.07180359       0.018
   0.20321238  0.16425461  0.07180359       0.009
   0.08128495  0.14078967  0.07180359       0.009
   0.12192743  0.16425461  0.07180359       0.018
   0.16256991  0.18771956  0.07180359       0.018
   0.12192743  0.21118450  0.07180359       0.009
   0.16256991  0.23464945  0.07180359       0.009
   0.00000000  0.00000000  0.09573812       0.002
   0.04064248  0.02346494  0.09573812       0.009
   0.08128495  0.04692989  0.09573812       0.009
   0.12192743  0.07039483  0.09573812       0.009
   0.16256991  0.09385978  0.09573812       0.009
   0.20321238  0.11732472  0.09573812       0.009
   0.04064248  0.07039483  0.09573812       0.009
   0.08128495  0.09385978  0.09573812       0.018
   0.12192743  0.11732472  0.09573812       0.018
   0.16256991  0.14078967  0.09573812       0.018
   0.20321238  0.16425461  0.09573812       0.009
   0.08128495  0.14078967  0.09573812       0.009
   0.12192743  0.16425461  0.09573812       0.018
   0.16256991  0.18771956  0.09573812       0.018
   0.12192743  0.21118450  0.09573812       0.009
   0.16256991  0.23464945  0.09573812       0.009
   0.00000000  0.00000000  0.11967265       0.002
   0.04064248  0.02346494  0.11967265       0.009
   0.08128495  0.04692989  0.11967265       0.009
   0.12192743  0.07039483  0.11967265       0.009
   0.16256991  0.09385978  0.11967265       0.009
   0.20321238  0.11732472  0.11967265       0.009
   0.04064248  0.07039483  0.11967265       0.009
   0.08128495  0.09385978  0.11967265       0.018
   0.12192743  0.11732472  0.11967265       0.018
   0.16256991  0.14078967  0.11967265       0.018
   0.20321238  0.16425461  0.11967265       0.009
   0.08128495  0.14078967  0.11967265       0.009
   0.12192743  0.16425461  0.11967265       0.018
   0.16256991  0.18771956  0.11967265       0.018
   0.12192743  0.21118450  0.11967265       0.009
   0.16256991  0.23464945  0.11967265       0.009
 
 k-points in reciprocal lattice and weights: KPOINTS created by Atomic Simulation Env
   0.00000000  0.00000000  0.00000000       0.001
   0.09090909  0.00000000  0.00000000       0.005
   0.18181818  0.00000000  0.00000000       0.005
   0.27272727  0.00000000  0.00000000       0.005
   0.36363636  0.00000000  0.00000000       0.005
   0.45454545  0.00000000  0.00000000       0.005
   0.09090909  0.09090909  0.00000000       0.005
   0.18181818  0.09090909  0.00000000       0.009
   0.27272727  0.09090909  0.00000000       0.009
   0.36363636  0.09090909  0.00000000       0.009
   0.45454545  0.09090909  0.00000000       0.005
   0.18181818  0.18181818  0.00000000       0.005
   0.27272727  0.18181818  0.00000000       0.009
   0.36363636  0.18181818  0.00000000       0.009
   0.27272727  0.27272727  0.00000000       0.005
   0.36363636  0.27272727  0.00000000       0.005
   0.00000000  0.00000000  0.09090909       0.002
   0.09090909  0.00000000  0.09090909       0.009
   0.18181818  0.00000000  0.09090909       0.009
   0.27272727  0.00000000  0.09090909       0.009
   0.36363636  0.00000000  0.09090909       0.009
   0.45454545  0.00000000  0.09090909       0.009
   0.09090909  0.09090909  0.09090909       0.009
   0.18181818  0.09090909  0.09090909       0.018
   0.27272727  0.09090909  0.09090909       0.018
   0.36363636  0.09090909  0.09090909       0.018
   0.45454545  0.09090909  0.09090909       0.009
   0.18181818  0.18181818  0.09090909       0.009
   0.27272727  0.18181818  0.09090909       0.018
   0.36363636  0.18181818  0.09090909       0.018
   0.27272727  0.27272727  0.09090909       0.009
   0.36363636  0.27272727  0.09090909       0.009
   0.00000000  0.00000000  0.18181818       0.002
   0.09090909  0.00000000  0.18181818       0.009
   0.18181818  0.00000000  0.18181818       0.009
   0.27272727  0.00000000  0.18181818       0.009
   0.36363636  0.00000000  0.18181818       0.009
   0.45454545  0.00000000  0.18181818       0.009
   0.09090909  0.09090909  0.18181818       0.009
   0.18181818  0.09090909  0.18181818       0.018
   0.27272727  0.09090909  0.18181818       0.018
   0.36363636  0.09090909  0.18181818       0.018
   0.45454545  0.09090909  0.18181818       0.009
   0.18181818  0.18181818  0.18181818       0.009
   0.27272727  0.18181818  0.18181818       0.018
   0.36363636  0.18181818  0.18181818       0.018
   0.27272727  0.27272727  0.18181818       0.009
   0.36363636  0.27272727  0.18181818       0.009
   0.00000000  0.00000000  0.27272727       0.002
   0.09090909  0.00000000  0.27272727       0.009
   0.18181818  0.00000000  0.27272727       0.009
   0.27272727  0.00000000  0.27272727       0.009
   0.36363636  0.00000000  0.27272727       0.009
   0.45454545  0.00000000  0.27272727       0.009
   0.09090909  0.09090909  0.27272727       0.009
   0.18181818  0.09090909  0.27272727       0.018
   0.27272727  0.09090909  0.27272727       0.018
   0.36363636  0.09090909  0.27272727       0.018
   0.45454545  0.09090909  0.27272727       0.009
   0.18181818  0.18181818  0.27272727       0.009
   0.27272727  0.18181818  0.27272727       0.018
   0.36363636  0.18181818  0.27272727       0.018
   0.27272727  0.27272727  0.27272727       0.009
   0.36363636  0.27272727  0.27272727       0.009
   0.00000000  0.00000000  0.36363636       0.002
   0.09090909  0.00000000  0.36363636       0.009
   0.18181818  0.00000000  0.36363636       0.009
   0.27272727  0.00000000  0.36363636       0.009
   0.36363636  0.00000000  0.36363636       0.009
   0.45454545  0.00000000  0.36363636       0.009
   0.09090909  0.09090909  0.36363636       0.009
   0.18181818  0.09090909  0.36363636       0.018
   0.27272727  0.09090909  0.36363636       0.018
   0.36363636  0.09090909  0.36363636       0.018
   0.45454545  0.09090909  0.36363636       0.009
   0.18181818  0.18181818  0.36363636       0.009
   0.27272727  0.18181818  0.36363636       0.018
   0.36363636  0.18181818  0.36363636       0.018
   0.27272727  0.27272727  0.36363636       0.009
   0.36363636  0.27272727  0.36363636       0.009
   0.00000000  0.00000000  0.45454545       0.002
   0.09090909  0.00000000  0.45454545       0.009
   0.18181818  0.00000000  0.45454545       0.009
   0.27272727  0.00000000  0.45454545       0.009
   0.36363636  0.00000000  0.45454545       0.009
   0.45454545  0.00000000  0.45454545       0.009
   0.09090909  0.09090909  0.45454545       0.009
   0.18181818  0.09090909  0.45454545       0.018
   0.27272727  0.09090909  0.45454545       0.018
   0.36363636  0.09090909  0.45454545       0.018
   0.45454545  0.09090909  0.45454545       0.009
   0.18181818  0.18181818  0.45454545       0.009
   0.27272727  0.18181818  0.45454545       0.018
   0.36363636  0.18181818  0.45454545       0.018
   0.27272727  0.27272727  0.45454545       0.009
   0.36363636  0.27272727  0.45454545       0.009
 
 position of ions in fractional coordinates (direct lattice) 
   0.00000000  0.00000000  0.00000000
   0.33333333  0.66666667  0.50000000
 
 position of ions in cartesian coordinates  (Angst):
   0.00000000  0.00000000  0.00000000
   0.00000000  1.29141708  1.89912000
 


--------------------------------------------------------------------------------------------------------


 k-point   1 :   0.0000 0.0000 0.0000  plane waves:     149
 k-point   2 :   0.0909 0.0000 0.0000  plane waves:     167
 k-point   3 :   0.1818 0.0000 0.0000  plane waves:     165
 k-point   4 :   0.2727 0.0000 0.0000  plane waves:     169
 k-point   5 :   0.3636 0.0000 0.0000  plane waves:     174
 k-point   6 :   0.4545 0.0000 0.0000  plane waves:     174
 k-point   7 :   0.0909 0.0909 0.0000  plane waves:     169
 k-point   8 :   0.1818 0.0909 0.0000  plane waves:     171
 k-point   9 :   0.2727 0.0909 0.0000  plane waves:     172
 k-point  10 :   0.3636 0.0909 0.0000  plane waves:     177
 k-point  11 :   0.4545 0.0909 0.0000  plane waves:     175
 k-point  12 :   0.1818 0.1818 0.0000  plane waves:     173
 k-point  13 :   0.2727 0.1818 0.0000  plane waves:     180
 k-point  14 :   0.3636 0.1818 0.0000  plane waves:     178
 k-point  15 :   0.2727 0.2727 0.0000  plane waves:     185
 k-point  16 :   0.3636 0.2727 0.0000  plane waves:     189
 k-point  17 :   0.0000 0.0000 0.0909  plane waves:     155
 k-point  18 :   0.0909 0.0000 0.0909  plane waves:     167
 k-point  19 :   0.1818 0.0000 0.0909  plane waves:     167
 k-point  20 :   0.2727 0.0000 0.0909  plane waves:     171
 k-point  21 :   0.3636 0.0000 0.0909  plane waves:     174
 k-point  22 :   0.4545 0.0000 0.0909  plane waves:     174
 k-point  23 :   0.0909 0.0909 0.0909  plane waves:     167
 k-point  24 :   0.1818 0.0909 0.0909  plane waves:     171
 k-point  25 :   0.2727 0.0909 0.0909  plane waves:     174
 k-point  26 :   0.3636 0.0909 0.0909  plane waves:     177
 k-point  27 :   0.4545 0.0909 0.0909  plane waves:     174
 k-point  28 :   0.1818 0.1818 0.0909  plane waves:     179
 k-point  29 :   0.2727 0.1818 0.0909  plane waves:     179
 k-point  30 :   0.3636 0.1818 0.0909  plane waves:     178
 k-point  31 :   0.2727 0.2727 0.0909  plane waves:     185
 k-point  32 :   0.3636 0.2727 0.0909  plane waves:     186
 k-point  33 :   0.0000 0.0000 0.1818  plane waves:     155
 k-point  34 :   0.0909 0.0000 0.1818  plane waves:     166
 k-point  35 :   0.1818 0.0000 0.1818  plane waves:     168
 k-point  36 :   0.2727 0.0000 0.1818  plane waves:     176
 k-point  37 :   0.3636 0.0000 0.1818  plane waves:     179
 k-point  38 :   0.4545 0.0000 0.1818  plane waves:     175
 k-point  39 :   0.0909 0.0909 0.1818  plane waves:     167
 k-point  40 :   0.1818 0.0909 0.1818  plane waves:     171
 k-point  41 :   0.2727 0.0909 0.1818  plane waves:     174
 k-point  42 :   0.3636 0.0909 0.1818  plane waves:     175
 k-point  43 :   0.4545 0.0909 0.1818  plane waves:     177
 k-point  44 :   0.1818 0.1818 0.1818  plane waves:     176
 k-point  45 :   0.2727 0.1818 0.1818  plane waves:     177
 k-point  46 :   0.3636 0.1818 0.1818  plane waves:     180
 k-point  47 :   0.2727 0.2727 0.1818  plane waves:     183
 k-point  48 :   0.3636 0.2727 0.1818  plane waves:     182
 k-point  49 :   0.0000 0.0000 0.2727  plane waves:     160
 k-point  50 :   0.0909 0.0000 0.2727  plane waves:     170
 k-point  51 :   0.1818 0.0000 0.2727  plane waves:     169
 k-point  52 :   0.2727 0.0000 0.2727  plane waves:     172
 k-point  53 :   0.3636 0.0000 0.2727  plane waves:     175
 k-point  54 :   0.4545 0.0000 0.2727  plane waves:     180
 k-point  55 :   0.0909 0.0909 0.2727  plane waves:     173
 k-point  56 :   0.1818 0.0909 0.2727  plane waves:     174
 k-point  57 :   0.2727 0.0909 0.2727  plane waves:     174
 k-point  58 :   0.3636 0.0909 0.2727  plane waves:     175
 k-point  59 :   0.4545 0.0909 0.2727  plane waves:     177
 k-point  60 :   0.1818 0.1818 0.2727  plane waves:     178
 k-point  61 :   0.2727 0.1818 0.2727  plane waves:     175
 k-point  62 :   0.3636 0.1818 0.2727  plane waves:     178
 k-point  63 :   0.2727 0.2727 0.2727  plane waves:     179
 k-point  64 :   0.3636 0.2727 0.2727  plane waves:     178
 k-point  65 :   0.0000 0.0000 0.3636  plane waves:     160
 k-point  66 :   0.0909 0.0000 0.3636  plane waves:     167
 k-point  67 :   0.1818 0.0000 0.3636  plane waves:     173
 k-point  68 :   0.2727 0.0000 0.3636  plane waves:     177
 k-point  69 :   0.3636 0.0000 0.3636  plane waves:     174
 k-point  70 :   0.4545 0.0000 0.3636  plane waves:     181
 k-point  71 :   0.0909 0.0909 0.3636  plane waves:     177
 k-point  72 :   0.1818 0.0909 0.3636  plane waves:     175
 k-point  73 :   0.2727 0.0909 0.3636  plane waves:     174
 k-point  74 :   0.3636 0.0909 0.3636  plane waves:     175
 k-point  75 :   0.4545 0.0909 0.3636  plane waves:     181
 k-point  76 :   0.1818 0.1818 0.3636  plane waves:     173
 k-point  77 :   0.2727 0.1818 0.3636  plane waves:     177
 k-point  78 :   0.3636 0.1818 0.3636  plane waves:     176
 k-point  79 :   0.2727 0.2727 0.3636  plane waves:     177
 k-point  80 :   0.3636 0.2727 0.3636  plane waves:     174
 k-point  81 :   0.0000 0.0000 0.4545  plane waves:     154
 k-point  82 :   0.0909 0.0000 0.4545  plane waves:     168
 k-point  83 :   0.1818 0.0000 0.4545  plane waves:     180
 k-point  84 :   0.2727 0.0000 0.4545  plane waves:     175
 k-point  85 :   0.3636 0.0000 0.4545  plane waves:     174
 k-point  86 :   0.4545 0.0000 0.4545  plane waves:     178
 k-point  87 :   0.0909 0.0909 0.4545  plane waves:     174
 k-point  88 :   0.1818 0.0909 0.4545  plane waves:     178
 k-point  89 :   0.2727 0.0909 0.4545  plane waves:     173
 k-point  90 :   0.3636 0.0909 0.4545  plane waves:     180
 k-point  91 :   0.4545 0.0909 0.4545  plane waves:     178
 k-point  92 :   0.1818 0.1818 0.4545  plane waves:     174
 k-point  93 :   0.2727 0.1818 0.4545  plane waves:     174
 k-point  94 :   0.3636 0.1818 0.4545  plane waves:     178
 k-point  95 :   0.2727 0.2727 0.4545  plane waves:     176
 k-point  96 :   0.3636 0.2727 0.4545  plane waves:     180

 maximum number of plane-waves:       189
 maximum index in each direction: 
   IXMAX=    2   IYMAX=    3   IZMAX=    5
   IXMIN=   -3   IYMIN=   -3   IZMIN=   -5


 total amount of memory used by VASP MPI-rank0    47194. kBytes
=======================================================================

   base      :      30000. kBytes
   nonl-proj :       2618. kBytes
   grid      :        721. kBytes
   one-center:         31. kBytes
   wavefun   :      13824. kBytes
 
     INWAV:  cpu time    0.0000: real time    0.0000
 Broyden mixing: mesh for mixing (old mesh)
   NGX =  5   NGY =  5   NGZ = 11
  (NGX  = 20   NGY  = 20   NGZ  = 32)
  gives a total of    275 points

 initial charge density was supplied:
 charge density of overlapping atoms calculated
 number of electron      16.0000000 magnetization 
 keeping initial charge density in first step


--------------------------------------------------------------------------------------------------------


 Maximum index for augmentation-charges         3389 (set IRDMAX)


--------------------------------------------------------------------------------------------------------


 First call to EWALD:  gamma=   0.697
 Maximum number of real-space cells 3x 3x 2
 Maximum number of reciprocal cells 2x 2x 4

    FEWALD:  cpu time    0.0008: real time    0.0008


--------------------------------------- Iteration      1(   1)  ---------------------------------------


    POTLOK:  cpu time    0.0030: real time    0.0030
    SETDIJ:  cpu time    0.0021: real time    0.0021
     EDDAV:  cpu time    0.7477: real time    0.7676
       DOS:  cpu time    0.0056: real time    0.0056
    --------------------------------------------
      LOOP:  cpu time    0.7585: real time    0.7783

 eigenvalue-minimisations  :  9488
 total energy-change (2. order) : 0.6003110E+02  (-0.2289659E+03)
 number of electron      16.0000000 magnetization 
 augmentation part       16.0000000 magnetization 

 Free energy of the ion-electron system (eV)
  ---------------------------------------------------
  alpha Z        PSCENC =       167.97988109
  Ewald energy   TEWEN  =     -1318.12423428
  -Hartree energ DENC   =      -175.95950279
  -exchange      EXHF   =         0.00000000
  -V(xc)+E(xc)   XCENC  =         9.94978307
  PAW double counting   =      1109.69170683    -1125.09647265
  entropy T*S    EENTRO =        -0.00301435
  eigenvalues    EBANDS =       203.01804504
  atomic energy  EATOM  =      1188.57490811
  Solvation  Ediel_sol  =         0.00000000
  ---------------------------------------------------
  free energy    TOTEN  =        60.03110006 eV

  energy without entropy =       60.03411441  energy(sigma->0) =       60.03210485


--------------------------------------------------------------------------------------------------------




--------------------------------------- Iteration      1(   2)  ---------------------------------------


     EDDAV:  cpu time    0.6209: real time    0.6209
       DOS:  cpu time    0.0057: real time    0.0057
    --------------------------------------------
      LOOP:  cpu time    0.6266: real time    0.6266

 eigenvalue-minimisations  :  7944
 total energy-change (2. order) :-0.7401735E+02  (-0.6309549E+02)
 number of electron      16.0000000 magnetization 
 augmentation part       16.0000000 magnetization 

 Free energy of the ion-electron system (eV)
  ---------------------------------------------------
  alpha Z        PSCENC =       167.97988109
  Ewald energy   TEWEN  =     -1318.12423428
  -Hartree energ DENC   =      -175.95950279
  -exchange      EXHF   =         0.00000000
  -V(xc)+E(xc)   XCENC  =         9.94978307
  PAW double counting   =      1109.69170683    -1125.09647265
  entropy T*S    EENTRO =        -0.00201182
  eigenvalues    EBANDS =       128.99969160
  atomic energy  EATOM  =      1188.57490811
  Solvation  Ediel_sol  =         0.00000000
  ---------------------------------------------------
  free energy    TOTEN  =       -13.98625085 eV

  energy without entropy =      -13.98423902  energy(sigma->0) =      -13.98558024


--------------------------------------------------------------------------------------------------------




--------------------------------------- Iteration      1(   3)  ---------------------------------------


     EDDAV:  cpu time    0.7131: real time    0.7131
       DOS:  cpu time    0.0063: real time    0.0063
    --------------------------------------------
      LOOP:  cpu time    0.7193: real time    0.7194

 eigenvalue-minimisations  :  9568
 total energy-change (2. order) :-0.3772940E+01  (-0.3651808E+01)
 number of electron      16.0000000 magnetization 
 augmentation part       16.0000000 magnetization 

 Free energy of the ion-electron system (eV)
  ---------------------------------------------------
  alpha Z        PSCENC =       167.97988109
  Ewald energy   TEWEN  =     -1318.12423428
  -Hartree energ DENC   =      -175.95950279
  -exchange      EXHF   =         0.00000000
  -V(xc)+E(xc)   XCENC  =         9.94978307
  PAW double counting   =      1109.69170683    -1125.09647265
  entropy T*S    EENTRO =        -0.00073874
  eigenvalues    EBANDS =       125.22547892
  atomic energy  EATOM  =      1188.57490811
  Solvation  Ediel_sol  =         0.00000000
  ---------------------------------------------------
  free energy    TOTEN  =       -17.75919044 eV

  energy without entropy =      -17.75845171  energy(sigma->0) =      -17.75894420


--------------------------------------------------------------------------------------------------------




--------------------------------------- Iteration      1(   4)  ---------------------------------------


     EDDAV:  cpu time    0.6466: real time    0.6466
       DOS:  cpu time    0.0063: real time    0.0063
    --------------------------------------------
      LOOP:  cpu time    0.6529: real time    0.6529

 eigenvalue-minimisations  :  8616
 total energy-change (2. order) :-0.1086202E-01  (-0.1085857E-01)
 number of electron      16.0000000 magnetization 
 augmentation part       16.0000000 magnetization 

 Free energy of the ion-electron system (eV)
  ---------------------------------------------------
  alpha Z        PSCENC =       167.97988109
  Ewald energy   TEWEN  =     -1318.12423428
  -Hartree energ DENC   =      -175.95950279
  -exchange      EXHF   =         0.00000000
  -V(xc)+E(xc)   XCENC  =         9.94978307
  PAW double counting   =      1109.69170683    -1125.09647265
  entropy T*S    EENTRO =        -0.00073706
  eigenvalues    EBANDS =       125.21461523
  atomic energy  EATOM  =      1188.57490811
  Solvation  Ediel_sol  =         0.00000000
  ---------------------------------------------------
  free energy    TOTEN  =       -17.77005246 eV

  energy without entropy =      -17.76931540  energy(sigma->0) =      -17.76980677


--------------------------------------------------------------------------------------------------------




--------------------------------------- Iteration      1(   5)  ---------------------------------------


     EDDAV:  cpu time    0.6896: real time    0.6896
       DOS:  cpu time    0.0062: real time    0.0062
    CHARGE:  cpu time    0.0176: real time    0.0176
    MIXING:  cpu time    0.0002: real time    0.0002
    --------------------------------------------
      LOOP:  cpu time    0.7136: real time    0.7136

 eigenvalue-minimisations  :  9336
 total energy-change (2. order) :-0.5007809E-05  (-0.5006564E-05)
 number of electron      16.0000007 magnetization 
 augmentation part        7.2712803 magnetization 

 Broyden mixing:
  rms(total) = 0.22036E+01    rms(broyden)= 0.22036E+01
  rms(prec ) = 0.31510E+01
  weight for this iteration     100.00

 Free energy of the ion-electron system (eV)
  ---------------------------------------------------
  alpha Z        PSCENC =       167.97988109
  Ewald energy   TEWEN  =     -1318.12423428
  -Hartree energ DENC   =      -175.95950279
  -exchange      EXHF   =         0.00000000
  -V(xc)+E(xc)   XCENC  =         9.94978307
  PAW double counting   =      1109.69170683    -1125.09647265
  entropy T*S    EENTRO =        -0.00073706
  eigenvalues    EBANDS =       125.21461022
  atomic energy  EATOM  =      1188.57490811
  Solvation  Ediel_sol  =         0.00000000
  ---------------------------------------------------
  free energy    TOTEN  =       -17.77005747 eV

  energy without entropy =      -17.76932040  energy(sigma->0) =      -17.76981178


--------------------------------------------------------------------------------------------------------




--------------------------------------- Iteration      1(   6)  ---------------------------------------


    POTLOK:  cpu time    0.0029: real time    0.0029
    SETDIJ:  cpu time    0.0023: real time    0.0023
     EDDAV:  cpu time    0.8234: real time    0.8235
       DOS:  cpu time    0.0061: real time    0.0061
    CHARGE:  cpu time    0.0172: real time    0.0172
    MIXING:  cpu time    0.0002: real time    0.0002
    --------------------------------------------
      LOOP:  cpu time    0.8521: real time    0.8522

 eigenvalue-minimisations  : 11224
 total energy-change (2. order) : 0.2416282E+01  (-0.1103888E+00)
 number of electron      16.0000007 magnetization 
 augmentation part        8.2521987 magnetization 

 Broyden mixing:
  rms(total) = 0.24107E+00    rms(broyden)= 0.24096E+00
  rms(prec ) = 0.26185E+00
  weight for this iteration     100.00

 eigenvalues of (default mixing * dielectric matrix)
  average eigenvalue GAMMA=   1.1037
  1.1037

 Free energy of the ion-electron system (eV)
  ---------------------------------------------------
  alpha Z        PSCENC =       167.97988109
  Ewald energy   TEWEN  =     -1318.12423428
  -Hartree energ DENC   =      -148.03448788
  -exchange      EXHF   =         0.00000000
  -V(xc)+E(xc)   XCENC  =         8.56583317
  PAW double counting   =      1398.22712169    -1411.52635403
  entropy T*S    EENTRO =        -0.00035056
  eigenvalues    EBANDS =        98.98390716
  atomic energy  EATOM  =      1188.57490811
  Solvation  Ediel_sol  =         0.00000000
  ---------------------------------------------------
  free energy    TOTEN  =       -15.35377552 eV

  energy without entropy =      -15.35342496  energy(sigma->0) =      -15.35365867


--------------------------------------------------------------------------------------------------------




--------------------------------------- Iteration      1(   7)  ---------------------------------------


    POTLOK:  cpu time    0.0029: real time    0.0029
    SETDIJ:  cpu time    0.0021: real time    0.0021
     EDDAV:  cpu time    0.6797: real time    0.6798
       DOS:  cpu time    0.0063: real time    0.0063
    CHARGE:  cpu time    0.0168: real time    0.0168
    MIXING:  cpu time    0.0002: real time    0.0002
    --------------------------------------------
      LOOP:  cpu time    0.7082: real time    0.7082

 eigenvalue-minimisations  :  9120
 total energy-change (2. order) : 0.1084041E+00  (-0.3536945E-02)
 number of electron      16.0000007 magnetization 
 augmentation part        8.1751638 magnetization 

 Broyden mixing:
  rms(total) = 0.19856E+00    rms(broyden)= 0.19856E+00
  rms(prec ) = 0.25128E+00
  weight for this iteration     100.00

 eigenvalues of (default mixing * dielectric matrix)
  average eigenvalue GAMMA=   1.4303
  0.9053  1.9554

 Free energy of the ion-electron system (eV)
  ---------------------------------------------------
  alpha Z        PSCENC =       167.97988109
  Ewald energy   TEWEN  =     -1318.12423428
  -Hartree energ DENC   =      -147.20284560
  -exchange      EXHF   =         0.00000000
  -V(xc)+E(xc)   XCENC  =         8.55169111
  PAW double counting   =      1550.04554071    -1566.73827627
  entropy T*S    EENTRO =        -0.00045112
  eigenvalues    EBANDS =       101.66841478
  atomic energy  EATOM  =      1188.57490811
  Solvation  Ediel_sol  =         0.00000000
  ---------------------------------------------------
  free energy    TOTEN  =       -15.24537147 eV

  energy without entropy =      -15.24492035  energy(sigma->0) =      -15.24522109


--------------------------------------------------------------------------------------------------------




--------------------------------------- Iteration      1(   8)  ---------------------------------------


    POTLOK:  cpu time    0.0028: real time    0.0028
    SETDIJ:  cpu time    0.0022: real time    0.0022
     EDDAV:  cpu time    0.7813: real time    0.7813
       DOS:  cpu time    0.0062: real time    0.0062
    CHARGE:  cpu time    0.0170: real time    0.0170
    MIXING:  cpu time    0.0002: real time    0.0002
    --------------------------------------------
      LOOP:  cpu time    0.8098: real time    0.8098

 eigenvalue-minimisations  : 10672
 total energy-change (2. order) : 0.4528992E-01  (-0.2425305E-03)
 number of electron      16.0000007 magnetization 
 augmentation part        8.1961257 magnetization 

 Broyden mixing:
  rms(total) = 0.40928E-01    rms(broyden)= 0.40920E-01
  rms(prec ) = 0.48663E-01
  weight for this iteration     100.00

 eigenvalues of (default mixing * dielectric matrix)
  average eigenvalue GAMMA=   1.6070
  2.7687  1.1486  0.9037

 Free energy of the ion-electron system (eV)
  ---------------------------------------------------
  alpha Z        PSCENC =       167.97988109
  Ewald energy   TEWEN  =     -1318.12423428
  -Hartree energ DENC   =      -144.16433588
  -exchange      EXHF   =         0.00000000
  -V(xc)+E(xc)   XCENC  =         8.42691024
  PAW double counting   =      1730.17426623    -1749.67261109
  entropy T*S    EENTRO =        -0.00040401
  eigenvalues    EBANDS =       101.60553804
  atomic energy  EATOM  =      1188.57490811
  Solvation  Ediel_sol  =         0.00000000
  ---------------------------------------------------
  free energy    TOTEN  =       -15.20008155 eV

  energy without entropy =      -15.19967754  energy(sigma->0) =      -15.19994688


--------------------------------------------------------------------------------------------------------




--------------------------------------- Iteration      1(   9)  ---------------------------------------


    POTLOK:  cpu time    0.0029: real time    0.0029
    SETDIJ:  cpu time    0.0022: real time    0.0022
     EDDAV:  cpu time    0.7244: real time    0.7244
       DOS:  cpu time    0.0063: real time    0.0063
    CHARGE:  cpu time    0.0171: real time    0.0171
    MIXING:  cpu time    0.0002: real time    0.0002
    --------------------------------------------
      LOOP:  cpu time    0.7532: real time    0.7532

 eigenvalue-minimisations  :  9912
 total energy-change (2. order) : 0.1743861E-02  (-0.3993351E-04)
 number of electron      16.0000007 magnetization 
 augmentation part        8.1999346 magnetization 

 Broyden mixing:
  rms(total) = 0.10098E-01    rms(broyden)= 0.10095E-01
  rms(prec ) = 0.14034E-01
  weight for this iteration     100.00

 eigenvalues of (default mixing * dielectric matrix)
  average eigenvalue GAMMA=   1.6819
  2.7159  2.1062  0.9906  0.9150

 Free energy of the ion-electron system (eV)
  ---------------------------------------------------
  alpha Z        PSCENC =       167.97988109
  Ewald energy   TEWEN  =     -1318.12423428
  -Hartree energ DENC   =      -143.26390679
  -exchange      EXHF   =         0.00000000
  -V(xc)+E(xc)   XCENC  =         8.39223586
  PAW double counting   =      1799.12190140    -1819.55172295
  entropy T*S    EENTRO =        -0.00040340
  eigenvalues    EBANDS =       101.67300328
  atomic energy  EATOM  =      1188.57490811
  Solvation  Ediel_sol  =         0.00000000
  ---------------------------------------------------
  free energy    TOTEN  =       -15.19833769 eV

  energy without entropy =      -15.19793429  energy(sigma->0) =      -15.19820322


--------------------------------------------------------------------------------------------------------




--------------------------------------- Iteration      1(  10)  ---------------------------------------


    POTLOK:  cpu time    0.0030: real time    0.0030
    SETDIJ:  cpu time    0.0021: real time    0.0021
     EDDAV:  cpu time    0.6810: real time    0.6810
       DOS:  cpu time    0.0062: real time    0.0062
    CHARGE:  cpu time    0.0170: real time    0.0170
    MIXING:  cpu time    0.0002: real time    0.0002
    --------------------------------------------
      LOOP:  cpu time    0.7096: real time    0.7096

 eigenvalue-minimisations  :  9216
 total energy-change (2. order) : 0.1523180E-03  (-0.1153954E-05)
 number of electron      16.0000007 magnetization 
 augmentation part        8.1991692 magnetization 

 Broyden mixing:
  rms(total) = 0.20752E-02    rms(broyden)= 0.20749E-02
  rms(prec ) = 0.29895E-02
  weight for this iteration     100.00

 eigenvalues of (default mixing * dielectric matrix)
  average eigenvalue GAMMA=   1.6763
  2.6686  2.4453  0.9124  1.0050  1.3503

 Free energy of the ion-electron system (eV)
  ---------------------------------------------------
  alpha Z        PSCENC =       167.97988109
  Ewald energy   TEWEN  =     -1318.12423428
  -Hartree energ DENC   =      -143.46656214
  -exchange      EXHF   =         0.00000000
  -V(xc)+E(xc)   XCENC  =         8.40175622
  PAW double counting   =      1793.94958986    -1814.17026795
  entropy T*S    EENTRO =        -0.00040524
  eigenvalues    EBANDS =       101.65714896
  atomic energy  EATOM  =      1188.57490811
  Solvation  Ediel_sol  =         0.00000000
  ---------------------------------------------------
  free energy    TOTEN  =       -15.19818537 eV

  energy without entropy =      -15.19778013  energy(sigma->0) =      -15.19805029


--------------------------------------------------------------------------------------------------------




--------------------------------------- Iteration      1(  11)  ---------------------------------------


    POTLOK:  cpu time    0.0030: real time    0.0030
    SETDIJ:  cpu time    0.0021: real time    0.0021
     EDDAV:  cpu time    0.6634: real time    0.6634
       DOS:  cpu time    0.0064: real time    0.0064
    CHARGE:  cpu time    0.0170: real time    0.0170
    MIXING:  cpu time    0.0002: real time    0.0002
    --------------------------------------------
      LOOP:  cpu time    0.6921: real time    0.6922

 eigenvalue-minimisations  :  8696
 total energy-change (2. order) : 0.2792469E-04  (-0.5996963E-07)
 number of electron      16.0000007 magnetization 
 augmentation part        8.1990412 magnetization 

 Broyden mixing:
  rms(total) = 0.10973E-03    rms(broyden)= 0.10955E-03
  rms(prec ) = 0.22643E-03
  weight for this iteration     100.00

 eigenvalues of (default mixing * dielectric matrix)
  average eigenvalue GAMMA=   1.6035
  2.5779  2.5779  0.9141  1.0142  1.0142  1.5230

 Free energy of the ion-electron system (eV)
  ---------------------------------------------------
  alpha Z        PSCENC =       167.97988109
  Ewald energy   TEWEN  =     -1318.12423428
  -Hartree energ DENC   =      -143.52144271
  -exchange      EXHF   =         0.00000000
  -V(xc)+E(xc)   XCENC  =         8.40424692
  PAW double counting   =      1792.35626444    -1812.51795438
  entropy T*S    EENTRO =        -0.00040491
  eigenvalues    EBANDS =       101.65057827
  atomic energy  EATOM  =      1188.57490811
  Solvation  Ediel_sol  =         0.00000000
  ---------------------------------------------------
  free energy    TOTEN  =       -15.19815745 eV

  energy without entropy =      -15.19775253  energy(sigma->0) =      -15.19802248


--------------------------------------------------------------------------------------------------------




--------------------------------------- Iteration      1(  12)  ---------------------------------------


    POTLOK:  cpu time    0.0029: real time    0.0029
    SETDIJ:  cpu time    0.0021: real time    0.0021
     EDDAV:  cpu time    0.4971: real time    0.4971
       DOS:  cpu time    0.0063: real time    0.0063
    --------------------------------------------
      LOOP:  cpu time    0.5084: real time    0.5084

 eigenvalue-minimisations  :  5720
 total energy-change (2. order) :-0.2559527E-06  (-0.5473601E-08)
 number of electron      16.0000007 magnetization 
 augmentation part        8.1990412 magnetization 

 Free energy of the ion-electron system (eV)
  ---------------------------------------------------
  alpha Z        PSCENC =       167.97988109
  Ewald energy   TEWEN  =     -1318.12423428
  -Hartree energ DENC   =      -143.52705192
  -exchange      EXHF   =         0.00000000
  -V(xc)+E(xc)   XCENC  =         8.40448739
  PAW double counting   =      1792.23526062    -1812.39201874
  entropy T*S    EENTRO =        -0.00040480
  eigenvalues    EBANDS =       101.65101482
  atomic energy  EATOM  =      1188.57490811
  Solvation  Ediel_sol  =         0.00000000
  ---------------------------------------------------
  free energy    TOTEN  =       -15.19815770 eV

  energy without entropy =      -15.19775290  energy(sigma->0) =      -15.19802277


--------------------------------------------------------------------------------------------------------




 average (electrostatic) potential at core
  the test charge radii are     1.0103
  (the norm of the test charge is              1.0000)
       1 -40.2042       2 -40.2043
 
 
 
 E-fermi :   9.5710     XC(G=0): -15.0893     alpha+bet :-18.8368

 Fermi energy:         9.5709965872

 k-point     1 :       0.0000    0.0000    0.0000
  band No.  band energies     occupation 
      1      -0.5364      2.00000
      2       3.2905      2.00000
      3       6.9232      2.00000
      4       7.4178      2.00000
      5       7.4178      2.00000
      6       7.9195      2.00000
      7       7.9195      2.00000
      8       8.9342      2.00006
      9       8.9342      2.00006
     10       9.2820      2.06004
     11      10.5976     -0.00000
     12      10.5976     -0.00000
     13      19.7676      0.00000
     14      34.3156      0.00000
     15      36.4667      0.00000
     16      38.1846      0.00000
     17      41.9291      0.00000
     18      41.9291      0.00000
     19      42.5796      0.00000
     20      42.5796      0.00000
     21      44.8933      0.00000
     22      44.8933      0.00000
     23      46.0974      0.00000
     24      46.1147      0.00000
     25      50.2110      0.00000
     26      50.2110      0.00000
     27      52.1677      0.00000
     28      55.1550      0.00000
     29      55.1550      0.00000
     30      56.5182      0.00000
     31      56.5182      0.00000
     32      60.9049      0.00000
     33      66.0159      0.00000
     34      67.4173      0.00000
     35      67.4174      0.00000
     36      68.7338      0.00000
     37      69.0507      0.00000
     38      72.3509      0.00000
     39      72.3510      0.00000
     40      77.0635      0.00000

 k-point     2 :       0.0909    0.0000    0.0000
  band No.  band energies     occupation 
      1      -0.1530      2.00000
      2       3.5720      2.00000
      3       6.7823      2.00000
      4       7.4730      2.00000
      5       7.6649      2.00000
      6       7.7810      2.00000
      7       7.9335      2.00000
      8       8.1446      2.00000
      9       8.7729      2.00000
     10       8.8036      2.00000
     11      10.6576     -0.00000
     12      12.1800     -0.00000
     13      19.7608      0.00000
     14      33.5184      0.00000
     15      36.7585      0.00000
     16      36.8526      0.00000
     17      38.7035      0.00000
     18      40.6034      0.00000
     19      40.6933      0.00000
     20      44.5873      0.00000
     21      45.6399      0.00000
     22      45.7202      0.00000
     23      46.4623      0.00000
     24      47.0887      0.00000
     25      50.9869      0.00000
     26      51.1556      0.00000
     27      52.3450      0.00000
     28      52.4753      0.00000
     29      55.8137      0.00000
     30      58.4821      0.00000
     31      58.7814      0.00000
     32      61.7242      0.00000
     33      65.8313      0.00000
     34      66.4507      0.00000
     35      66.7391      0.00000
     36      68.2365      0.00000
     37      68.3032      0.00000
     38      72.3625      0.00000
     39      74.3630      0.00000
     40      76.8705      0.00000

 k-point     3 :       0.1818    0.0000    0.0000
  band No.  band energies     occupation 
      1       0.9131      2.00000
      2       4.2096      2.00000
      3       6.3619      2.00000
      4       6.4137      2.00000
      5       7.2951      2.00000
      6       8.0858      2.00000
      7       8.3666      2.00000
      8       8.3983      2.00000
      9       8.4035      2.00000
     10       8.7799      2.00000
     11      10.7671     -0.00000
     12      14.4801     -0.00000
     13      19.7966      0.00000
     14      30.2603      0.00000
     15      35.5182      0.00000
     16      35.5402      0.00000
     17      36.1105      0.00000
     18      37.3972      0.00000
     19      41.8118      0.00000
     20      44.0546      0.00000
     21      44.4580      0.00000
     22      44.9265      0.00000
     23      47.3445      0.00000
     24      49.5265      0.00000
     25      51.5195      0.00000
     26      51.9746      0.00000
     27      53.6928      0.00000
     28      56.1549      0.00000
     29      59.8552      0.00000
     30      60.6728      0.00000
     31      61.3889      0.00000
     32      63.1836      0.00000
     33      64.8000      0.00000
     34      65.3546      0.00000
     35      65.3697      0.00000
     36      66.7999      0.00000
     37      69.7585      0.00000
     38      72.8052      0.00000
     39      75.3523      0.00000
     40      76.8224      0.00000

 k-point     4 :       0.2727    0.0000    0.0000
  band No.  band energies     occupation 
      1       2.3452      2.00000
      2       4.4296      2.00000
      3       5.2043      2.00000
      4       6.2761      2.00000
      5       7.1343      2.00000
      6       7.9091      2.00000
      7       7.9781      2.00000
      8       9.0853      2.00317
      9       9.3663      2.05483
     10       9.6728      0.24983
     11      10.8470     -0.00000
     12      16.9632      0.00000
     13      19.8681      0.00000
     14      26.2319      0.00000
     15      32.3636      0.00000
     16      32.7448      0.00000
     17      34.2384      0.00000
     18      36.9155      0.00000
     19      40.9848      0.00000
     20      43.6384      0.00000
     21      44.6888      0.00000
     22      45.0626      0.00000
     23      45.0973      0.00000
     24      49.7107      0.00000
     25      54.7965      0.00000
     26      56.6119      0.00000
     27      57.3209      0.00000
     28      59.7811      0.00000
     29      60.9082      0.00000
     30      61.2675      0.00000
     31      63.3431      0.00000
     32      63.9031      0.00000
     33      64.6332      0.00000
     34      65.0040      0.00000
     35      65.5905      0.00000
     36      69.0454      0.00000
     37      69.5224      0.00000
     38      73.2944      0.00000
     39      75.6060      0.00000
     40      75.9918      0.00000

 k-point     5 :       0.3636    0.0000    0.0000
  band No.  band energies     occupation 
      1       3.4078      2.00000
      2       4.0965      2.00000
      3       4.3695      2.00000
      4       6.6682      2.00000
      5       7.4794      2.00000
      6       7.5601      2.00000
      7       7.6349      2.00000
      8      10.3755     -0.00000
      9      10.5809     -0.00000
     10      10.6593     -0.00000
     11      10.8824     -0.00000
     12      19.2436      0.00000
     13      19.5238      0.00000
     14      23.5255      0.00000
     15      29.0299      0.00000
     16      30.5810      0.00000
     17      31.7451      0.00000
     18      35.8313      0.00000
     19      39.6266      0.00000
     20      42.8318      0.00000
     21      43.4612      0.00000
     22      45.9394      0.00000
     23      47.3524      0.00000
     24      49.9996      0.00000
     25      58.2609      0.00000
     26      58.3946      0.00000
     27      58.9201      0.00000
     28      61.8164      0.00000
     29      62.5466      0.00000
     30      62.6504      0.00000
     31      63.9453      0.00000
     32      64.5275      0.00000
     33      65.6313      0.00000
     34      66.0076      0.00000
     35      66.8629      0.00000
     36      68.6232      0.00000
     37      73.5445      0.00000
     38      74.0739      0.00000
     39      75.0153      0.00000
     40      75.8058      0.00000

 k-point     6 :       0.4545    0.0000    0.0000
  band No.  band energies     occupation 
      1       3.5353      2.00000
      2       3.9437      2.00000
      3       3.9960      2.00000
      4       7.2341      2.00000
      5       7.3582      2.00000
      6       7.4436      2.00000
      7       7.8797      2.00000
      8      10.8936     -0.00000
      9      11.0030     -0.00000
     10      11.2019     -0.00000
     11      12.7119     -0.00000
     12      16.8321      0.00000
     13      21.8809      0.00000
     14      23.6828      0.00000
     15      26.3458      0.00000
     16      29.1753      0.00000
     17      29.3539      0.00000
     18      35.0909      0.00000
     19      39.1673      0.00000
     20      41.5393      0.00000
     21      43.3438      0.00000
     22      46.9186      0.00000
     23      49.5259      0.00000
     24      50.3572      0.00000
     25      55.0236      0.00000
     26      60.5508      0.00000
     27      60.5571      0.00000
     28      62.6824      0.00000
     29      63.6782      0.00000
     30      64.1592      0.00000
     31      64.7215      0.00000
     32      65.1139      0.00000
     33      66.8726      0.00000
     34      69.1206      0.00000
     35      69.3683      0.00000
     36      71.8394      0.00000
     37      72.4757      0.00000
     38      72.5042      0.00000
     39      75.1155      0.00000
     40      75.1792      0.00000

 k-point     7 :       0.0909    0.0909    0.0000
  band No.  band energies     occupation 
      1       0.5765      2.00000
      2       4.0578      2.00000
      3       6.4278      2.00000
      4       6.8248      2.00000
      5       7.5169      2.00000
      6       7.7004      2.00000
      7       8.1790      2.00000
      8       8.2348      2.00000
      9       8.6464      2.00000
     10       8.7926      2.00000
     11      10.7034     -0.00000
     12      13.8508     -0.00000
     13      19.7857      0.00000
     14      31.7884      0.00000
     15      33.7653      0.00000
     16      37.0661      0.00000
     17      37.5634      0.00000
     18      39.3381      0.00000
     19      39.7309      0.00000
     20      42.7812      0.00000
     21      44.9198      0.00000
     22      48.1247      0.00000
     23      48.3189      0.00000
     24      49.3159      0.00000
     25      50.0572      0.00000
     26      50.6330      0.00000
     27      51.0314      0.00000
     28      56.3406      0.00000
     29      59.1868      0.00000
     30      60.1207      0.00000
     31      60.3810      0.00000
     32      62.8028      0.00000
     33      64.1462      0.00000
     34      65.4776      0.00000
     35      67.0362      0.00000
     36      67.7030      0.00000
     37      67.8836      0.00000
     38      73.2158      0.00000
     39      75.1405      0.00000
     40      76.5997      0.00000

 k-point     8 :       0.1818    0.0909    0.0000
  band No.  band energies     occupation 
      1       1.8680      2.00000
      2       4.6329      2.00000
      3       5.6516      2.00000
      4       5.9756      2.00000
      5       7.2131      2.00000
      6       7.7060      2.00000
      7       8.2747      2.00000
      8       8.4773      2.00000
      9       9.0986      2.00420
     10       9.5813      0.91300
     11      10.7443     -0.00000
     12      16.1026      0.00000
     13      19.9018      0.00000
     14      28.2576      0.00000
     15      31.1211      0.00000
     16      34.0736      0.00000
     17      36.6341      0.00000
     18      37.3337      0.00000
     19      40.8182      0.00000
     20      42.3112      0.00000
     21      43.3141      0.00000
     22      47.7557      0.00000
     23      48.5014      0.00000
     24      49.2083      0.00000
     25      52.1465      0.00000
     26      52.8683      0.00000
     27      54.7072      0.00000
     28      60.3821      0.00000
     29      61.2669      0.00000
     30      61.9484      0.00000
     31      62.4470      0.00000
     32      63.5132      0.00000
     33      63.9451      0.00000
     34      65.2162      0.00000
     35      66.5541      0.00000
     36      67.2106      0.00000
     37      68.6926      0.00000
     38      73.7658      0.00000
     39      75.3662      0.00000
     40      75.5912      0.00000

 k-point     9 :       0.2727    0.0909    0.0000
  band No.  band energies     occupation 
      1       3.2471      2.00000
      2       4.4786      2.00000
      3       4.7302      2.00000
      4       6.1245      2.00000
      5       7.3172      2.00000
      6       7.3323      2.00000
      7       8.0020      2.00000
      8       9.2388      2.04056
      9      10.1212     -0.00070
     10      10.7687     -0.00000
     11      10.8089     -0.00000
     12      18.5874      0.00000
     13      19.9815      0.00000
     14      24.5689      0.00000
     15      29.1864      0.00000
     16      30.7409      0.00000
     17      34.2621      0.00000
     18      35.3301      0.00000
     19      40.5603      0.00000
     20      41.8952      0.00000
     21      43.4961      0.00000
     22      47.8256      0.00000
     23      47.9929      0.00000
     24      50.3816      0.00000
     25      54.4687      0.00000
     26      56.9069      0.00000
     27      59.0068      0.00000
     28      60.0402      0.00000
     29      60.4508      0.00000
     30      63.3985      0.00000
     31      63.4045      0.00000
     32      64.9181      0.00000
     33      65.4964      0.00000
     34      66.6388      0.00000
     35      66.9181      0.00000
     36      67.8317      0.00000
     37      72.3999      0.00000
     38      73.5834      0.00000
     39      73.9769      0.00000
     40      76.0765      0.00000

 k-point    10 :       0.3636    0.0909    0.0000
  band No.  band energies     occupation 
      1       3.8117      2.00000
      2       4.1527      2.00000
      3       4.2085      2.00000
      4       6.7616      2.00000
      5       7.1440      2.00000
      6       7.5476      2.00000
      7       7.7659      2.00000
      8      10.3601     -0.00000
      9      10.7727     -0.00000
     10      10.8552     -0.00000
     11      12.3542     -0.00000
     12      18.4593      0.00000
     13      21.1195      0.00000
     14      23.4387      0.00000
     15      27.6695      0.00000
     16      27.7391      0.00000
     17      31.0360      0.00000
     18      34.2673      0.00000
     19      39.5814      0.00000
     20      41.2524      0.00000
     21      44.3483      0.00000
     22      48.3443      0.00000
     23      49.4968      0.00000
     24      50.3939      0.00000
     25      56.9122      0.00000
     26      57.1881      0.00000
     27      60.0200      0.00000
     28      61.0408      0.00000
     29      62.8347      0.00000
     30      63.5829      0.00000
     31      64.0641      0.00000
     32      64.8593      0.00000
     33      65.5863      0.00000
     34      68.3664      0.00000
     35      70.2603      0.00000
     36      70.4132      0.00000
     37      71.0538      0.00000
     38      74.4789      0.00000
     39      75.8792      0.00000
     40      76.1811      0.00000

 k-point    11 :       0.4545    0.0909    0.0000
  band No.  band energies     occupation 
      1       3.7441      2.00000
      2       3.9567      2.00000
      3       4.2179      2.00000
      4       7.1776      2.00000
      5       7.2088      2.00000
      6       7.2861      2.00000
      7       7.9351      2.00000
      8      10.7717     -0.00000
      9      10.9856     -0.00000
     10      10.9969     -0.00000
     11      13.7918     -0.00000
     12      16.4917      0.00000
     13      22.8155      0.00000
     14      24.1149      0.00000
     15      25.9061      0.00000
     16      26.9018      0.00000
     17      29.4406      0.00000
     18      33.8793      0.00000
     19      39.1422      0.00000
[...]
     17      31.8901      0.00000
     18      33.2067      0.00000
     19      38.5244      0.00000
     20      39.1070      0.00000
     21      43.8950      0.00000
     22      44.6587      0.00000
     23      49.4177      0.00000
     24      50.5118      0.00000
     25      56.7125      0.00000
     26      58.4845      0.00000
     27      60.5614      0.00000
     28      61.2169      0.00000
     29      63.7105      0.00000
     30      64.2450      0.00000
     31      64.9621      0.00000
     32      65.2158      0.00000
     33      67.3639      0.00000
     34      68.0323      0.00000
     35      70.4160      0.00000
     36      71.0716      0.00000
     37      71.8422      0.00000
     38      74.1325      0.00000
     39      75.9147      0.00000
     40      76.3057      0.00000

 k-point    91 :       0.4545    0.0909    0.4545
  band No.  band energies     occupation 
      1       3.4070      2.00000
      2       3.6139      2.00000
      3       5.1601      2.00000
      4       5.3387      2.00000
      5       8.0813      2.00000
      6       8.6528      2.00000
      7       9.5350      1.29961
      8       9.9252     -0.03114
      9      10.8607     -0.00000
     10      10.8825     -0.00000
     11      13.6128     -0.00000
     12      14.2455     -0.00000
     13      21.5197      0.00000
     14      21.5656      0.00000
     15      29.9929      0.00000
     16      30.7617      0.00000
     17      32.5995      0.00000
     18      33.1369      0.00000
     19      38.4398      0.00000
     20      38.4684      0.00000
     21      43.1531      0.00000
     22      43.4443      0.00000
     23      49.6560      0.00000
     24      50.8026      0.00000
     25      57.1509      0.00000
     26      59.0340      0.00000
     27      62.7711      0.00000
     28      63.1969      0.00000
     29      63.2502      0.00000
     30      63.6342      0.00000
     31      64.7605      0.00000
     32      65.0851      0.00000
     33      69.3100      0.00000
     34      69.6078      0.00000
     35      70.4899      0.00000
     36      71.5619      0.00000
     37      73.6167      0.00000
     38      74.4294      0.00000
     39      76.2422      0.00000
     40      76.6505      0.00000

 k-point    92 :       0.1818    0.1818    0.4545
  band No.  band energies     occupation 
      1       3.8711      2.00000
      2       4.1043      2.00000
      3       5.9828      2.00000
      4       6.0180      2.00000
      5       6.5986      2.00000
      6       6.6629      2.00000
      7       8.4961      2.00000
      8       8.8370      2.00000
      9      10.6185     -0.00000
     10      10.7344     -0.00000
     11      11.4329     -0.00000
     12      12.1826     -0.00000
     13      27.7490      0.00000
     14      28.2849      0.00000
     15      28.7050      0.00000
     16      29.9609      0.00000
     17      30.5590      0.00000
     18      32.3101      0.00000
     19      42.5588      0.00000
     20      43.6825      0.00000
     21      44.4344      0.00000
     22      45.6626      0.00000
     23      48.4356      0.00000
     24      48.5416      0.00000
     25      55.5054      0.00000
     26      56.1379      0.00000
     27      59.4493      0.00000
     28      59.6635      0.00000
     29      62.3718      0.00000
     30      63.4916      0.00000
     31      63.7912      0.00000
     32      64.3570      0.00000
     33      64.7098      0.00000
     34      64.9404      0.00000
     35      66.9626      0.00000
     36      67.2924      0.00000
     37      71.9151      0.00000
     38      73.6484      0.00000
     39      74.2862      0.00000
     40      74.2910      0.00000

 k-point    93 :       0.2727    0.1818    0.4545
  band No.  band energies     occupation 
      1       4.0191      2.00000
      2       4.1514      2.00000
      3       5.6844      2.00000
      4       5.9824      2.00000
      5       6.9634      2.00000
      6       7.2144      2.00000
      7       8.4694      2.00000
      8       8.7861      2.00000
      9      10.7590     -0.00000
     10      11.0717     -0.00000
     11      13.2286     -0.00000
     12      13.8960     -0.00000
     13      24.5145      0.00000
     14      25.1630      0.00000
     15      27.5723      0.00000
     16      28.4095      0.00000
     17      31.3920      0.00000
     18      33.3773      0.00000
     19      40.6494      0.00000
     20      42.1223      0.00000
     21      43.9342      0.00000
     22      45.4588      0.00000
     23      48.5009      0.00000
     24      49.1190      0.00000
     25      56.8167      0.00000
     26      57.3986      0.00000
     27      60.8020      0.00000
     28      62.2630      0.00000
     29      64.1953      0.00000
     30      64.4839      0.00000
     31      64.8164      0.00000
     32      65.3517      0.00000
     33      66.5905      0.00000
     34      66.9776      0.00000
     35      67.9505      0.00000
     36      68.5350      0.00000
     37      72.3869      0.00000
     38      74.7699      0.00000
     39      74.9830      0.00000
     40      75.8752      0.00000

 k-point    94 :       0.3636    0.1818    0.4545
  band No.  band energies     occupation 
      1       3.9626      2.00000
      2       4.1784      2.00000
      3       5.4970      2.00000
      4       5.7885      2.00000
      5       7.0798      2.00000
      6       7.5538      2.00000
      7       8.9510      2.00011
      8       9.1131      2.00563
      9      10.6972     -0.00000
     10      10.9230     -0.00000
     11      15.1600      0.00000
     12      15.6805      0.00000
     13      21.8670      0.00000
     14      22.2725      0.00000
     15      26.8528      0.00000
     16      27.6948      0.00000
     17      32.9859      0.00000
     18      34.2763      0.00000
     19      39.3194      0.00000
     20      40.4500      0.00000
     21      42.5849      0.00000
     22      44.2636      0.00000
     23      49.6481      0.00000
     24      50.1412      0.00000
     25      59.4726      0.00000
     26      59.9856      0.00000
     27      61.3289      0.00000
     28      62.9199      0.00000
     29      63.1747      0.00000
     30      63.5661      0.00000
     31      65.0124      0.00000
     32      65.2964      0.00000
     33      67.5404      0.00000
     34      68.1240      0.00000
     35      70.3361      0.00000
     36      71.1309      0.00000
     37      72.9818      0.00000
     38      74.0643      0.00000
     39      74.7170      0.00000
     40      76.2726      0.00000

 k-point    95 :       0.2727    0.2727    0.4545
  band No.  band energies     occupation 
      1       4.4428      2.00000
      2       4.5431      2.00000
      3       5.7629      2.00000
      4       6.0375      2.00000
      5       6.5980      2.00000
      6       6.8943      2.00000
      7       8.4191      2.00000
      8       8.6845      2.00000
      9      10.7170     -0.00000
     10      10.9579     -0.00000
     11      15.7251      0.00000
     12      16.3376      0.00000
     13      22.6986      0.00000
     14      23.2294      0.00000
     15      25.1408      0.00000
     16      25.6298      0.00000
     17      33.2534      0.00000
     18      35.1150      0.00000
     19      39.2531      0.00000
     20      40.9595      0.00000
     21      42.3685      0.00000
     22      43.7889      0.00000
     23      51.2776      0.00000
     24      51.7335      0.00000
     25      57.0838      0.00000
     26      57.1049      0.00000
     27      63.1604      0.00000
     28      63.6014      0.00000
     29      64.0510      0.00000
     30      64.5820      0.00000
     31      65.2198      0.00000
     32      65.3625      0.00000
     33      66.5933      0.00000
     34      67.8260      0.00000
     35      70.6631      0.00000
     36      71.2439      0.00000
     37      72.0573      0.00000
     38      72.1765      0.00000
     39      73.4429      0.00000
     40      75.9867      0.00000

 k-point    96 :       0.3636    0.2727    0.4545
  band No.  band energies     occupation 
      1       4.6849      2.00000
      2       4.8713      2.00000
      3       5.6135      2.00000
      4       5.6901      2.00000
      5       6.6725      2.00000
      6       6.8187      2.00000
      7       8.5239      2.00000
      8       8.7241      2.00000
      9      10.6700     -0.00000
     10      10.7614     -0.00000
     11      17.7346      0.00000
     12      17.9061      0.00000
     13      20.9305      0.00000
     14      21.3712      0.00000
     15      24.4866      0.00000
     16      24.9466      0.00000
     17      34.8921      0.00000
     18      36.0736      0.00000
     19      38.5821      0.00000
     20      38.6521      0.00000
     21      42.2134      0.00000
     22      43.1642      0.00000
     23      52.7831      0.00000
     24      53.4864      0.00000
     25      57.4370      0.00000
     26      57.8536      0.00000
     27      61.7332      0.00000
     28      62.0628      0.00000
     29      64.8530      0.00000
     30      65.1456      0.00000
     31      65.3414      0.00000
     32      65.5818      0.00000
     33      66.9519      0.00000
     34      67.5624      0.00000
     35      69.5091      0.00000
     36      70.2951      0.00000
     37      73.1449      0.00000
     38      75.4496      0.00000
     39      75.5208      0.00000
     40      76.7687      0.00000


--------------------------------------------------------------------------------------------------------


 soft charge-density along one line, spin component           1
         0         1         2         3         4         5         6         7         8         9
x     7.8010    0.0000    0.0558   -0.0966   -0.0492   -0.0852    0.0223    0.0000    0.0008   -0.0014
x     0.0000    0.0000
y     7.8010    0.0000    0.0558    0.0966   -0.0492    0.0852    0.0223   -0.0000    0.0008    0.0014
y     0.0000    0.0000
z     7.8010    0.0000    0.0000   -0.0000    0.1571    0.0000    0.0000   -0.0000   -0.1161    0.0000
z     0.0000   -0.0000    0.0234   -0.0000    0.0000   -0.0000    0.0000    0.0000
 total charge-density along one line
x    16.0000    0.0000    1.3721   -2.3766    0.2360    0.4088   -0.0026   -0.0000    0.0023   -0.0040
x    -0.0006   -0.0009    0.0009   -0.0000   -0.0001    0.0002    0.0001    0.0001   -0.0002    0.0000
x     0.0000    0.0000
y    16.0000    0.0000    1.3721    2.3766    0.2360   -0.4088   -0.0026    0.0000    0.0023    0.0040
y    -0.0006    0.0009    0.0009    0.0000   -0.0001   -0.0002    0.0001   -0.0001   -0.0002   -0.0000
y     0.0000   -0.0000
z    16.0000    0.0000    0.0000    0.0000    5.3315    0.0000    0.0000    0.0000    0.9193   -0.0000
z    -0.0000    0.0000   -0.0052   -0.0000   -0.0000    0.0000    0.0079   -0.0000   -0.0000    0.0000
z    -0.0026   -0.0000   -0.0000   -0.0000    0.0011    0.0000   -0.0000   -0.0000   -0.0006    0.0000
z     0.0000    0.0000    0.0005    0.0000
 
 pseudopotential strength for first ion, spin component:           1
 -2.873   0.000  -0.000  -0.000  -0.000  -3.481   0.000  -0.000
  0.000  -2.862  -0.000  -0.000  -0.000   0.000  -3.471  -0.000
 -0.000  -0.000  -2.873   0.000  -0.000  -0.000  -0.000  -3.482
 -0.000  -0.000   0.000  -2.862   0.000  -0.000  -0.000   0.000
 -0.000  -0.000  -0.000   0.000  -2.873  -0.000  -0.000  -0.000
 -3.481   0.000  -0.000  -0.000  -0.000  -4.046   0.000  -0.000
  0.000  -3.471  -0.000  -0.000  -0.000   0.000  -4.035  -0.000
 -0.000  -0.000  -3.482   0.000  -0.000  -0.000  -0.000  -4.046
 -0.000  -0.000   0.000  -3.471   0.000  -0.000  -0.000   0.000
 -0.000  -0.000  -0.000   0.000  -3.481  -0.000  -0.000  -0.000
  0.000   0.000   0.001  -0.000  -0.000   0.000   0.000   0.000
  0.000   0.000   0.001  -0.000  -0.000   0.000   0.000   0.001
 -0.000   0.000  -0.000   0.000  -0.002  -0.000   0.000  -0.000
  0.000  -0.000   0.000   0.000   0.000   0.000  -0.000   0.000
 -0.002   0.000   0.000   0.000  -0.000  -0.002   0.000   0.000
 -0.000   0.000  -0.000   0.000  -0.002  -0.000   0.000  -0.000
  0.000  -0.000   0.000  -0.000   0.000   0.000  -0.000   0.000
 -0.002   0.000   0.000   0.000  -0.000  -0.002   0.000   0.000
 total augmentation occupancy for first ion, spin component:           1
  2.198  -0.000   0.000   0.000   0.000  -1.977   0.000  -0.000   0.000   0.000  -0.000  -0.000   0.000   0.000   0.045  -0.000
 -0.000   2.525   0.000  -0.000  -0.000   0.000  -2.132   0.000   0.000   0.000   0.000   0.000  -0.000   0.000  -0.000   0.000
  0.000   0.000   1.837   0.000  -0.000  -0.000   0.000  -1.712   0.000   0.000  -0.014  -0.005  -0.000   0.000  -0.000   0.000
  0.000  -0.000   0.000   2.525  -0.000   0.000   0.000  -0.000  -2.132   0.000   0.000   0.000   0.000  -0.000   0.000   0.000
 -0.000  -0.000  -0.000   0.000   2.198   0.000   0.000   0.000   0.000  -1.977  -0.000   0.000   0.045   0.000  -0.000  -0.001
 -1.977   0.000  -0.000   0.000  -0.000   3.147   0.000   0.000   0.000  -0.000  -0.000   0.000  -0.000   0.000  -0.063   0.000
  0.000  -2.132  -0.000   0.000  -0.000   0.000   3.106  -0.000  -0.000   0.000   0.000  -0.000   0.000   0.000  -0.000   0.000
 -0.000  -0.000  -1.712   0.000   0.000   0.000   0.000   2.967   0.000  -0.000  -0.028  -0.001   0.000   0.000  -0.000  -0.000
  0.000   0.000   0.000  -2.132  -0.000   0.000  -0.000  -0.000   3.106   0.000  -0.000   0.000   0.000   0.000  -0.000   0.000
  0.000   0.000   0.000   0.000  -1.977  -0.000   0.000  -0.000   0.000   3.147   0.000  -0.000  -0.063   0.000   0.000   0.001
 -0.000   0.000  -0.014   0.000  -0.000  -0.000   0.000  -0.028   0.000   0.000   3.380  -0.414   0.000   0.000  -0.000   0.000
 -0.000  -0.000  -0.005   0.000   0.000   0.000  -0.000  -0.001   0.000  -0.000  -0.414   0.057  -0.000   0.000   0.000   0.000
  0.000  -0.000  -0.000  -0.000   0.045  -0.000  -0.000   0.000   0.000  -0.063   0.000   0.000   0.473  -0.000  -0.000  -0.035
 -0.000   0.000   0.000  -0.000  -0.000   0.000  -0.000   0.000   0.000   0.000   0.000   0.000  -0.000   0.467   0.000   0.000
  0.045   0.000  -0.000  -0.000  -0.000  -0.063   0.000   0.000   0.000   0.000   0.000  -0.000  -0.000   0.000   0.473   0.000
 -0.000   0.000   0.000   0.000  -0.001   0.000   0.000  -0.000   0.000   0.001  -0.000   0.000  -0.035  -0.000   0.000   0.003
  0.000   0.000   0.000   0.000  -0.000   0.000   0.000   0.000   0.000  -0.000   0.000   0.000  -0.000  -0.037   0.000  -0.000
 -0.001   0.000   0.000   0.000   0.000   0.001   0.000  -0.000   0.000  -0.000  -0.000   0.000   0.000   0.000  -0.035  -0.000


------------------------ aborting loop because EDIFF is reached ----------------------------------------


    CHARGE:  cpu time    0.0173: real time    0.0173
    FORLOC:  cpu time    0.0002: real time    0.0002
    FORNL :  cpu time    0.0831: real time    0.0831
    STRESS:  cpu time    0.1318: real time    0.1318
    FORCOR:  cpu time    0.0030: real time    0.0030
    FORHAR:  cpu time    0.0006: real time    0.0006
    MIXING:  cpu time    0.0002: real time    0.0002

  FORCE on cell =-STRESS in cart. coord.  units (eV):
  Direction    XX          YY          ZZ          XY          YZ          ZX
  --------------------------------------------------------------------------------------
  Alpha Z   167.97988   167.97988   167.97988
  Ewald    -431.93698  -431.93698  -454.25078     0.00000     0.00000     0.00000
  Hartree    50.23510    50.23510    43.05472    -0.00000    -0.00000    -0.00000
  E(xc)     -81.09374   -81.09374   -80.92303     0.00006     0.00000     0.00000
  Local     121.70967   121.70975   149.19330    -0.00048     0.00000    -0.00000
  n-local   -46.93082   -46.86867   -48.83718    -5.55893     1.60157     1.12910
  augment    74.40611    74.40596    74.67738     0.00048     0.00000     0.00000
  Kinetic   160.84554   154.76240   155.46910     0.76536    -1.08857     0.04893
  Fock        0.00000     0.00000     0.00000     0.00000     0.00000     0.00000
  -------------------------------------------------------------------------------------
  Total      12.20422    12.20422     6.36338    -0.00000    -0.00000     0.00000
  in kB    1188.10116  1188.10116   619.48571    -0.00000    -0.00000     0.00000
  external pressure =      998.56 kB  Pullay stress =        0.00 kB


 VOLUME and BASIS-vectors are now :
 -----------------------------------------------------------------------------
  energy-cutoff  :      280.00
  volume of cell :       16.46
      direct lattice vectors                 reciprocal lattice vectors
     2.236800000  0.000000000  0.000000000     0.447067239  0.258114391  0.000000000
    -1.118400000  1.937125623  0.000000000     0.000000000  0.516228781  0.000000000
     0.000000000  0.000000000  3.798240000     0.000000000  0.000000000  0.263279835

  length of vectors
     2.236800000  2.236800000  3.798240000     0.516228781  0.516228781  0.263279835


 FORCES acting on ions
    electron-ion (+dipol)            ewald-force                    non-local-force                 convergence-correction
 -----------------------------------------------------------------------------------------------
   0.155E-05 -.712E-06 -.135E-14   0.801E-12 -.456E-12 -.264E-13   -.276E-16 0.144E-16 0.546E-19   -.355E-07 0.205E-07 -.171E-13
   0.121E-05 0.331E-05 0.555E-13   -.803E-12 0.466E-12 0.264E-13   0.290E-16 -.124E-16 -.284E-19   0.356E-07 -.205E-07 0.427E-13
 -----------------------------------------------------------------------------------------------
   0.276E-05 0.260E-05 0.542E-13   -.267E-14 0.957E-14 0.754E-17   0.143E-17 0.208E-17 0.262E-19   0.669E-10 -.380E-10 0.256E-13
 
 
 POSITION                                       TOTAL-FORCE (eV/Angst)
 -----------------------------------------------------------------------------------
      0.00000      0.00000      0.00000         0.000000      0.000000      0.000000
      0.00000      1.29142      1.89912        -0.000000     -0.000000     -0.000000
 -----------------------------------------------------------------------------------
    total drift:                                0.000003      0.000003      0.000000


--------------------------------------------------------------------------------------------------------



  FREE ENERGIE OF THE ION-ELECTRON SYSTEM (eV)
  ---------------------------------------------------
  free  energy   TOTEN  =       -15.19815770 eV

  energy  without entropy=      -15.19775290  energy(sigma->0) =      -15.19802277
 


--------------------------------------------------------------------------------------------------------


    POTLOK:  cpu time    0.0054: real time    0.0054


--------------------------------------------------------------------------------------------------------


 writing wavefunctions
     LOOP+:  cpu time    8.7832: real time    8.8032
    4ORBIT:  cpu time    0.0000: real time    0.0000

 total amount of memory used by VASP MPI-rank0    47194. kBytes
=======================================================================

   base      :      30000. kBytes
   nonl-proj :       2618. kBytes
   grid      :        721. kBytes
   one-center:         31. kBytes
   wavefun   :      13824. kBytes
 
  
  
 General timing and accounting informations for this job:
 ========================================================
  
                  Total CPU time used (sec):        8.944
                            User time (sec):        8.900
                          System time (sec):        0.044
                         Elapsed time (sec):        8.953
  
                   Maximum memory used (kb):       52484.
                   Average memory used (kb):          N/A
  
                          Minor page faults:         6852
                          Major page faults:            0
                 Voluntary context switches:           27
