<?xml version="1.0" encoding="ISO-8859-1"?>
<modeling>
 <generator>
  <i name="program" type="string">vasp </i>
  <i name="version" type="string">6.2.0  </i>
  <i name="subversion" type="string">18Jan21 (build Mar 17 2021 09:06:54) complex                          serial </i>
  <i name="platform" type="string">LinuxIFC </i>
  <i name="date" type="string">2021 09 09 </i>
  <i name="time" type="string">11:55:42 </i>
 </generator>
 <incar>
  <i type="string" name="PREC">normal</i>
  <i type="int" name="ICHARG">     1</i>
  <i type="int" name="IBRION">     1</i>
  <i name="EDIFF">      0.00000100</i>
  <i type="int" name="NSW">     0</i>
  <i type="int" name="ISIF">     2</i>
  <i name="ENCUT">    280.00000000</i>
  <i type="int" name="NBANDS">    40</i>
  <i type="int" name="ISMEAR">     1</i>
  <i name="SIGMA">      0.20000000</i>
  <i type="logical" name="LCHARG"> T  </i>
  <i type="int" name="KPAR">     1</i>
  <i type="int" name="NCORE">     1</i>
  <i type="string" name="GGA">PE</i>
 </incar>
 <primitive_cell>
  <structure name="primitive_cell" >
   <crystal>
    <varray name="basis" >
     <v>       2.23680000       0.00000000       0.00000000 </v>
     <v>      -1.11840000       1.93712562       0.00000000 </v>
     <v>       0.00000000       0.00000000       3.79824000 </v>
    </varray>
    <i name="volume">     16.45763184 </i>
    <varray name="rec_basis" >
     <v>       0.44706724       0.25811439       0.00000000 </v>
     <v>       0.00000000       0.51622878       0.00000000 </v>
     <v>       0.00000000       0.00000000       0.26327983 </v>
    </varray>
   </crystal>
   <varray name="positions" >
    <v>       0.00000000       0.00000000       0.00000000 </v>
    <v>       0.33333333       0.66666667       0.50000000 </v>
   </varray>
  </structure>
  <varray name="primitive_index" >
   <v type="int" >        1 </v>
   <v type="int" >        2 </v>
  </varray>
 </primitive_cell>
 <kpoints>
  <generation param="Monkhorst-Pack">
   <v type="int" name="divisions">      11       11       11 </v>
   <v name="usershift">      0.00000000       0.00000000       0.00000000 </v>
   <v name="genvec1">      0.09090909      -0.00000000       0.00000000 </v>
   <v name="genvec2">      0.00000000       0.09090909       0.00000000 </v>
   <v name="genvec3">      0.00000000       0.00000000       0.09090909 </v>
   <v name="shift">      0.00000000       0.00000000       0.00000000 </v>
  </generation>
  <varray name="kpointlist" >
   <v>       0.00000000       0.00000000       0.00000000 </v>
   <v>       0.09090909       0.00000000       0.00000000 </v>
   <v>       0.18181818       0.00000000       0.00000000 </v>
   <v>       0.27272727       0.00000000       0.00000000 </v>
   <v>       0.36363636       0.00000000       0.00000000 </v>
   <v>       0.45454545       0.00000000       0.00000000 </v>
   <v>       0.09090909       0.09090909       0.00000000 </v>
   <v>       0.18181818       0.09090909       0.00000000 </v>
   <v>       0.27272727       0.09090909       0.00000000 </v>
   <v>       0.36363636       0.09090909       0.00000000 </v>
   <v>       0.45454545       0.09090909       0.00000000 </v>
   <v>       0.18181818       0.18181818       0.00000000 </v>
   <v>       0.27272727       0.18181818       0.00000000 </v>
   <v>       0.36363636       0.18181818       0.00000000 </v>
   <v>       0.27272727       0.27272727       0.00000000 </v>
   <v>       0.36363636       0.27272727       0.00000000 </v>
   <v>       0.00000000       0.00000000       0.09090909 </v>
   <v>       0.09090909       0.00000000       0.09090909 </v>
   <v>       0.18181818       0.00000000       0.09090909 </v>
   <v>       0.27272727       0.00000000       0.09090909 </v>
   <v>       0.36363636       0.00000000       0.09090909 </v>
   <v>       0.45454545       0.00000000       0.09090909 </v>
   <v>       0.09090909       0.09090909       0.09090909 </v>
   <v>       0.18181818       0.09090909       0.09090909 </v>
   <v>       0.27272727       0.09090909       0.09090909 </v>
   <v>       0.36363636       0.09090909       0.09090909 </v>
   <v>       0.45454545       0.09090909       0.09090909 </v>
   <v>       0.18181818       0.18181818       0.09090909 </v>
   <v>       0.27272727       0.18181818       0.09090909 </v>
   <v>       0.36363636       0.18181818       0.09090909 </v>
   <v>       0.27272727       0.27272727       0.09090909 </v>
   <v>       0.36363636       0.27272727       0.09090909 </v>
   <v>       0.00000000       0.00000000       0.18181818 </v>
   <v>       0.09090909       0.00000000       0.18181818 </v>
   <v>       0.18181818       0.00000000       0.18181818 </v>
   <v>       0.27272727       0.00000000       0.18181818 </v>
   <v>       0.36363636       0.00000000       0.18181818 </v>
   <v>       0.45454545       0.00000000       0.18181818 </v>
   <v>       0.09090909       0.09090909       0.18181818 </v>
   <v>       0.18181818       0.09090909       0.18181818 </v>
   <v>       0.27272727       0.09090909       0.18181818 </v>
   <v>       0.36363636       0.09090909       0.18181818 </v>
   <v>       0.45454545       0.09090909       0.18181818 </v>
   <v>       0.18181818       0.18181818       0.18181818 </v>
   <v>       0.27272727       0.18181818       0.18181818 </v>
   <v>       0.36363636       0.18181818       0.18181818 </v>
   <v>       0.27272727       0.27272727       0.18181818 </v>
   <v>       0.36363636       0.27272727       0.18181818 </v>
   <v>       0.00000000       0.00000000       0.27272727 </v>
   <v>       0.09090909       0.00000000       0.27272727 </v>
   <v>       0.18181818       0.00000000       0.27272727 </v>
   <v>       0.27272727       0.00000000       0.27272727 </v>
   <v>       0.36363636       0.00000000       0.27272727 </v>
   <v>       0.45454545       0.00000000       0.27272727 </v>
   <v>       0.09090909       0.09090909       0.27272727 </v>
   <v>       0.18181818       0.09090909       0.27272727 </v>
   <v>       0.27272727       0.09090909       0.27272727 </v>
   <v>       0.36363636       0.09090909       0.27272727 </v>
   <v>       0.45454545       0.09090909       0.27272727 </v>
   <v>       0.18181818       0.18181818       0.27272727 </v>
   <v>       0.27272727       0.18181818       0.27272727 </v>
   <v>       0.36363636       0.18181818       0.27272727 </v>
   <v>       0.27272727       0.27272727       0.27272727 </v>
   <v>       0.36363636       0.27272727       0.27272727 </v>
   <v>       0.00000000       0.00000000       0.36363636 </v>
   <v>       0.09090909       0.00000000       0.36363636 </v>
   <v>       0.18181818       0.00000000       0.36363636 </v>
   <v>       0.27272727       0.00000000       0.36363636 </v>
   <v>       0.36363636       0.00000000       0.36363636 </v>
   <v>       0.45454545       0.00000000       0.36363636 </v>
   <v>       0.09090909       0.09090909       0.36363636 </v>
   <v>       0.18181818       0.09090909       0.36363636 </v>
   <v>       0.27272727       0.09090909       0.36363636 </v>
   <v>       0.36363636       0.09090909       0.36363636 </v>
   <v>       0.45454545       0.09090909       0.36363636 </v>
   <v>       0.18181818       0.18181818       0.36363636 </v>
   <v>       0.27272727       0.18181818       0.36363636 </v>
   <v>       0.36363636       0.18181818       0.36363636 </v>
   <v>       0.27272727       0.27272727       0.36363636 </v>
   <v>       0.36363636       0.27272727       0.36363636 </v>
   <v>       0.00000000       0.00000000       0.45454545 </v>
   <v>       0.09090909       0.00000000       0.45454545 </v>
   <v>       0.18181818       0.00000000       0.45454545 </v>
   <v>       0.27272727       0.00000000       0.45454545 </v>
   <v>       0.36363636       0.00000000       0.45454545 </v>
   <v>       0.45454545       0.00000000       0.45454545 </v>
   <v>       0.09090909       0.09090909       0.45454545 </v>
   <v>       0.18181818       0.09090909       0.45454545 </v>
   <v>       0.27272727       0.09090909       0.45454545 </v>
   <v>       0.36363636       0.09090909       0.45454545 </v>
   <v>       0.45454545       0.09090909       0.45454545 </v>
   <v>       0.18181818       0.18181818       0.45454545 </v>
   <v>       0.27272727       0.18181818       0.45454545 </v>
   <v>       0.36363636       0.18181818       0.45454545 </v>
   <v>       0.27272727       0.27272727       0.45454545 </v>
   <v>       0.36363636       0.27272727       0.45454545 </v>
  </varray>
  <varray name="weights" >
   <v>       0.00075131 </v>
   <v>       0.00450789 </v>
   <v>       0.00450789 </v>
   <v>       0.00450789 </v>
   <v>       0.00450789 </v>
   <v>       0.00450789 </v>
   <v>       0.00450789 </v>
   <v>       0.00901578 </v>
   <v>       0.00901578 </v>
   <v>       0.00901578 </v>
   <v>       0.00450789 </v>
   <v>       0.00450789 </v>
   <v>       0.00901578 </v>
   <v>       0.00901578 </v>
   <v>       0.00450789 </v>
   <v>       0.00450789 </v>
   <v>       0.00150263 </v>
   <v>       0.00901578 </v>
   <v>       0.00901578 </v>
   <v>       0.00901578 </v>
   <v>       0.00901578 </v>
   <v>       0.00901578 </v>
   <v>       0.00901578 </v>
   <v>       0.01803156 </v>
   <v>       0.01803156 </v>
   <v>       0.01803156 </v>
   <v>       0.00901578 </v>
   <v>       0.00901578 </v>
   <v>       0.01803156 </v>
   <v>       0.01803156 </v>
   <v>       0.00901578 </v>
   <v>       0.00901578 </v>
   <v>       0.00150263 </v>
   <v>       0.00901578 </v>
   <v>       0.00901578 </v>
   <v>       0.00901578 </v>
   <v>       0.00901578 </v>
   <v>       0.00901578 </v>
   <v>       0.00901578 </v>
   <v>       0.01803156 </v>
   <v>       0.01803156 </v>
   <v>       0.01803156 </v>
   <v>       0.00901578 </v>
   <v>       0.00901578 </v>
   <v>       0.01803156 </v>
   <v>       0.01803156 </v>
   <v>       0.00901578 </v>
   <v>       0.00901578 </v>
   <v>       0.00150263 </v>
   <v>       0.00901578 </v>
   <v>       0.00901578 </v>
   <v>       0.00901578 </v>
   <v>       0.00901578 </v>
   <v>       0.00901578 </v>
   <v>       0.00901578 </v>
   <v>       0.01803156 </v>
   <v>       0.01803156 </v>
   <v>       0.01803156 </v>
   <v>       0.00901578 </v>
   <v>       0.00901578 </v>
   <v>       0.01803156 </v>
   <v>       0.01803156 </v>
   <v>       0.00901578 </v>
   <v>       0.00901578 </v>
   <v>       0.00150263 </v>
   <v>       0.00901578 </v>
   <v>       0.00901578 </v>
   <v>       0.00901578 </v>
   <v>       0.00901578 </v>
   <v>       0.00901578 </v>
   <v>       0.00901578 </v>
   <v>       0.01803156 </v>
   <v>       0.01803156 </v>
   <v>       0.01803156 </v>
   <v>       0.00901578 </v>
   <v>       0.00901578 </v>
   <v>       0.01803156 </v>
   <v>       0.01803156 </v>
   <v>       0.00901578 </v>
   <v>       0.00901578 </v>
   <v>       0.00150263 </v>
   <v>       0.00901578 </v>
   <v>       0.00901578 </v>
   <v>       0.00901578 </v>
   <v>       0.00901578 </v>
   <v>       0.00901578 </v>
   <v>       0.00901578 </v>
   <v>       0.01803156 </v>
   <v>       0.01803156 </v>
   <v>       0.01803156 </v>
   <v>       0.00901578 </v>
   <v>       0.00901578 </v>
   <v>       0.01803156 </v>
   <v>       0.01803156 </v>
   <v>       0.00901578 </v>
   <v>       0.00901578 </v>
  </varray>
 </kpoints>
 <parameters>
  <separator name="general" >
   <i type="string" name="SYSTEM">unknown system</i>
   <i type="logical" name="LCOMPAT"> F  </i>
  </separator>
  <separator name="electronic" >
   <i type="string" name="PREC">normal</i>
   <i name="ENMAX">    280.00000000</i>
   <i name="ENAUG">    511.36800000</i>
   <i name="EDIFF">      0.00000100</i>
   <i type="int" name="IALGO">    38</i>
   <i type="int" name="IWAVPR">     0</i>
   <i type="int" name="NBANDS">    40</i>
   <i type="int" name="NBANDSLOW">    -1</i>
   <i type="int" name="NBANDSHIGH">    -1</i>
   <i name="NELECT">     16.00000000</i>
   <i type="int" name="TURBO">     0</i>
   <i type="int" name="IRESTART">     0</i>
   <i type="int" name="NREBOOT">     0</i>
   <i type="int" name="NMIN">     0</i>
   <i name="EREF">      0.00000000</i>
   <separator name="electronic smearing" >
    <i type="int" name="ISMEAR">     1</i>
    <i name="SIGMA">      0.20000000</i>
    <i name="KSPACING">      0.50000000</i>
    <i type="logical" name="KGAMMA"> T  </i>
    <i type="logical" name="KBLOWUP"> T  </i>
   </separator>
   <separator name="electronic projectors" >
    <i type="logical" name="LREAL"> F  </i>
    <v name="ROPT">      0.00000000</v>
    <i type="int" name="LMAXPAW">  -100</i>
    <i type="int" name="LMAXMIX">     2</i>
    <i type="logical" name="NLSPLINE"> F  </i>
   </separator>
   <separator name="electronic startup" >
    <i type="int" name="ISTART">     0</i>
    <i type="int" name="ICHARG">     1</i>
    <i type="int" name="INIWAV">     1</i>
   </separator>
   <separator name="electronic spin" >
    <i type="int" name="ISPIN">     1</i>
    <i type="logical" name="LNONCOLLINEAR"> F  </i>
    <v name="MAGMOM">      1.00000000      1.00000000</v>
    <i name="NUPDOWN">     -1.00000000</i>
    <i type="logical" name="LSORBIT"> F  </i>
    <v name="SAXIS">      0.00000000      0.00000000      1.00000000</v>
    <i type="logical" name="LSPIRAL"> F  </i>
    <v name="QSPIRAL">      0.00000000      0.00000000      0.00000000</v>
    <i type="logical" name="LZEROZ"> F  </i>
   </separator>
   <separator name="electronic exchange-correlation" >
    <i type="logical" name="LASPH"> F  </i>
    <i type="logical" name="LMETAGGA"> F  </i>
   </separator>
   <separator name="electronic convergence" >
    <i type="int" name="NELM">    60</i>
    <i type="int" name="NELMDL">    -5</i>
    <i type="int" name="NELMIN">     2</i>
    <i name="ENINI">    280.00000000</i>
    <separator name="electronic convergence detail" >
     <i type="logical" name="LDIAG"> T  </i>
     <i type="logical" name="LSUBROT"> F  </i>
     <i name="WEIMIN">      0.00000000</i>
     <i name="EBREAK">      0.00000001</i>
     <i name="DEPER">      0.30000000</i>
     <i type="int" name="NRMM">     4</i>
     <i name="TIME">      0.40000000</i>
    </separator>
   </separator>
   <separator name="electronic mixer" >
    <i name="AMIX">      0.40000000</i>
    <i name="BMIX">      1.00000000</i>
    <i name="AMIN">      0.10000000</i>
    <i name="AMIX_MAG">      1.60000000</i>
    <i name="BMIX_MAG">      1.00000000</i>
    <separator name="electronic mixer details" >
     <i type="int" name="IMIX">     4</i>
     <i type="logical" name="MIXFIRST"> F  </i>
     <i type="int" name="MAXMIX">   -45</i>
     <i name="WC">    100.00000000</i>
     <i type="int" name="INIMIX">     1</i>
     <i type="int" name="MIXPRE">     1</i>
     <i type="int" name="MREMOVE">     5</i>
    </separator>
   </separator>
   <separator name="electronic dipolcorrection" >
    <i type="logical" name="LDIPOL"> F  </i>
    <i type="logical" name="LMONO"> F  </i>
    <i type="int" name="IDIPOL">     0</i>
    <i name="EPSILON">      1.00000000</i>
    <v name="DIPOL">   -100.00000000   -100.00000000   -100.00000000</v>
    <i name="EFIELD">      0.00000000</i>
   </separator>
  </separator>
  <separator name="grids" >
   <i type="int" name="NGX">    10</i>
   <i type="int" name="NGY">    10</i>
   <i type="int" name="NGZ">    16</i>
   <i type="int" name="NGXF">    20</i>
   <i type="int" name="NGYF">    20</i>
   <i type="int" name="NGZF">    32</i>
   <i type="logical" name="ADDGRID"> F  </i>
  </separator>
  <separator name="ionic" >
   <i type="int" name="NSW">     0</i>
   <i type="int" name="IBRION">    -1</i>
   <i type="int" name="MDALGO">     0</i>
   <i type="int" name="ISIF">     2</i>
   <i name="PSTRESS">      0.00000000</i>
   <i name="EDIFFG">      0.00001000</i>
   <i type="int" name="NFREE">     0</i>
   <i name="POTIM">      0.50000000</i>
   <i name="SMASS">     -3.00000000</i>
   <i name="SCALEE">      1.00000000</i>
  </separator>
  <separator name="ionic md" >
   <i name="TEBEG">      0.00010000</i>
   <i name="TEEND">      0.00010000</i>
   <i type="int" name="NBLOCK">     1</i>
   <i type="int" name="KBLOCK">     1</i>
   <i type="int" name="NPACO">   256</i>
   <i name="APACO">     16.00000000</i>
  </separator>
  <separator name="symmetry" >
   <i type="int" name="ISYM">     2</i>
   <i name="SYMPREC">      0.00001000</i>
  </separator>
  <separator name="dos" >
   <i type="int" name="LORBIT">     0</i>
   <v name="RWIGS">     -1.00000000</v>
   <i type="int" name="NEDOS">   301</i>
   <i name="EMIN">     10.00000000</i>
   <i name="EMAX">    -10.00000000</i>
   <i name="EFERMI">      0.00000000</i>
  </separator>
  <separator name="writing" >
   <i type="int" name="NWRITE">     2</i>
   <i type="logical" name="LWAVE"> T  </i>
   <i type="logical" name="LDOWNSAMPLE"> F  </i>
   <i type="logical" name="LCHARG"> T  </i>
   <i type="logical" name="LPARD"> F  </i>
   <i type="logical" name="LVTOT"> F  </i>
   <i type="logical" name="LVHAR"> F  </i>
   <i type="logical" name="LELF"> F  </i>
   <i type="logical" name="LOPTICS"> F  </i>
   <v name="STM">      0.00000000      0.00000000      0.00000000      0.00000000      0.00000000      0.00000000      0.00000000</v>
  </separator>
  <separator name="performance" >
   <i type="int" name="NPAR">     1</i>
   <i type="int" name="NSIM">     4</i>
   <i type="int" name="NBLK">    -1</i>
   <i type="logical" name="LPLANE"> T  </i>
   <i type="logical" name="LSCALAPACK"> F  </i>
   <i type="logical" name="LSCAAWARE"> F  </i>
   <i type="logical" name="LSCALU"> F  </i>
   <i type="logical" name="LASYNC"> F  </i>
   <i type="logical" name="LORBITALREAL"> F  </i>
  </separator>
  <separator name="miscellaneous" >
   <i type="int" name="IDIOT">     3</i>
   <i type="int" name="PHON_NSTRUCT">    -1</i>
   <i type="logical" name="LMUSIC"> F  </i>
   <v name="POMASS">     55.84700000</v>
   <v name="DARWINR">      0.00000000</v>
   <v name="DARWINV">      1.00000000</v>
   <i type="logical" name="LCORR"> T  </i>
  </separator>
  <i type="logical" name="GGA_COMPAT"> T  </i>
  <i type="logical" name="LBERRY"> F  </i>
  <i type="int" name="ICORELEVEL">     0</i>
  <i type="logical" name="LDAU"> F  </i>
  <i type="int" name="I_CONSTRAINED_M">     0</i>
  <separator name="electronic exchange-correlation" >
   <i type="string" name="GGA">PE</i>
   <i type="int" name="VOSKOWN">     0</i>
   <i type="logical" name="LHFCALC"> F  </i>
   <i type="string" name="PRECFOCK"></i>
   <i type="logical" name="LSYMGRAD"> F  </i>
   <i type="logical" name="LHFONE"> F  </i>
   <i type="logical" name="LRHFCALC"> F  </i>
   <i type="logical" name="LTHOMAS"> F  </i>
   <i type="logical" name="LMODELHF"> F  </i>
   <i type="logical" name="LFOCKACE"> F  </i>
   <i name="ENCUT4O">     -1.00000000</i>
   <i type="int" name="EXXOEP">     0</i>
   <i type="int" name="FOURORBIT">     0</i>
   <i name="AEXX">      0.00000000</i>
   <i name="HFALPHA">      0.00000000</i>
   <i name="MCALPHA">      0.00000000</i>
   <i name="ALDAX">      1.00000000</i>
   <i name="AGGAX">      1.00000000</i>
   <i name="ALDAC">      1.00000000</i>
   <i name="AGGAC">      1.00000000</i>
   <i type="int" name="NKREDX">     1</i>
   <i type="int" name="NKREDY">     1</i>
   <i type="int" name="NKREDZ">     1</i>
   <i type="logical" name="SHIFTRED"> F  </i>
   <i type="logical" name="ODDONLY"> F  </i>
   <i type="logical" name="EVENONLY"> F  </i>
   <i type="int" name="LMAXFOCK">     0</i>
   <i type="int" name="NMAXFOCKAE">     0</i>
   <i type="logical" name="LFOCKAEDFT"> F  </i>
   <i name="HFSCREEN">      0.00000000</i>
   <i name="HFSCREENC">      0.00000000</i>
   <i type="int" name="NBANDSGWLOW">     0</i>
  </separator>
  <separator name="vdW DFT" >
   <i type="logical" name="LUSE_VDW"> F  </i>
   <i name="Zab_VDW">     -0.84910000</i>
   <i name="PARAM1">      0.12340000</i>
   <i name="PARAM2">      1.00000000</i>
   <i name="PARAM3">      0.00000000</i>
  </separator>
  <separator name="model GW" >
   <i type="int" name="MODEL_GW">     0</i>
   <i name="MODEL_EPS0">      4.93728955</i>
   <i name="MODEL_ALPHA">      1.00000000</i>
  </separator>
  <separator name="linear response parameters" >
   <i type="logical" name="LEPSILON"> F  </i>
   <i type="logical" name="LRPA"> F  </i>
   <i type="logical" name="LNABLA"> F  </i>
   <i type="logical" name="LVEL"> F  </i>
   <i type="int" name="KINTER">     0</i>
   <i name="CSHIFT">      0.10000000</i>
   <i name="OMEGAMAX">     -1.00000000</i>
   <i name="DEG_THRESHOLD">      0.00200000</i>
   <i name="RTIME">     -0.10000000</i>
   <i name="WPLASMAI">      0.00000000</i>
   <v name="DFIELD">      0.00000000      0.00000000      0.00000000</v>
   <v name="WPLASMA">      0.00000000      0.00000000      0.00000000      0.00000000      0.00000000      0.00000000      0.00000000      0.00000000      0.00000000</v>
  </separator>
  <separator name="orbital magnetization" >
   <i type="logical" name="NUCIND"> F  </i>
   <v name="MAGPOS">      0.00000000      0.00000000      0.00000000</v>
   <i type="logical" name="LNICSALL"> T  </i>
   <i type="logical" name="ORBITALMAG"> F  </i>
   <i type="logical" name="LMAGBLOCH"> F  </i>
   <i type="logical" name="LCHIMAG"> F  </i>
   <i type="logical" name="LGAUGE"> T  </i>
   <i type="int" name="MAGATOM">     0</i>
   <v name="MAGDIPOL">      0.00000000      0.00000000      0.00000000</v>
   <v name="AVECCONST">      0.00000000      0.00000000      0.00000000</v>
  </separator>
  <separator name="response functions" >
   <i type="logical" name="LFINITE_TEMPERATURE"> F  </i>
   <i type="logical" name="LADDER"> F  </i>
   <i type="logical" name="LRPAFORCE"> F  </i>
   <i type="logical" name="LFXC"> F  </i>
   <i type="logical" name="LHARTREE"> T  </i>
   <i type="int" name="IBSE">     0</i>
   <v type="int" name="KPOINT">    -1     0     0     0</v>
   <i type="logical" name="LTCTC"> F  </i>
   <i type="logical" name="LTCTE"> F  </i>
   <i type="logical" name="LTETE"> F  </i>
   <i type="logical" name="LTRIPLET"> F  </i>
   <i type="logical" name="LFXCEPS"> F  </i>
   <i type="logical" name="LFXHEG"> F  </i>
   <i type="int" name="NATURALO">     2</i>
   <i type="logical" name="LHOLEGF"> F  </i>
   <i type="logical" name="L2ORDER"> F  </i>
   <i type="logical" name="LDMP1"> F  </i>
   <i type="logical" name="LMP2LT"> F  </i>
   <i type="logical" name="LSMP2LT"> F  </i>
   <i type="logical" name="LGWLF"> F  </i>
   <i name="ENCUTGW">     -2.00000000</i>
   <i name="ENCUTGWSOFT">     -2.00000000</i>
   <i name="ENCUTLF">     -1.00000000</i>
   <i type="logical" name="LESF_SPLINES"> F  </i>
   <i type="int" name="LMAXMP2">    -1</i>
   <i name="SCISSOR">      0.00000000</i>
   <i type="int" name="NOMEGA">     0</i>
   <i type="int" name="NOMEGAR">     0</i>
   <i type="int" name="NBANDSGW">    -1</i>
   <i type="int" name="NBANDSO">    -1</i>
   <i type="int" name="NBANDSV">    -1</i>
   <i type="int" name="NELM">     1</i>
   <i type="int" name="NELMHF">     1</i>
   <i type="int" name="DIM">     3</i>
   <i type="int" name="IESPILON">     4</i>
   <i type="int" name="ANTIRES">     0</i>
   <i name="OMEGAMAX">    -30.00000000</i>
   <i name="OMEGAMIN">    -30.00000000</i>
   <i name="OMEGATL">   -200.00000000</i>
   <i type="int" name="OMEGAGRID">     0</i>
   <i name="CSHIFT">     -0.10000000</i>
   <i type="logical" name="LSELFENERGY"> F  </i>
   <i type="logical" name="LSPECTRAL"> F  </i>
   <i type="logical" name="LSPECTRALGW"> F  </i>
   <i type="logical" name="LSINGLES"> F  </i>
   <i type="logical" name="LFERMIGW"> F  </i>
   <i type="logical" name="ODDONLYGW"> F  </i>
   <i type="logical" name="EVENONLYGW"> F  </i>
   <i type="int" name="NKREDLFX">     1</i>
   <i type="int" name="NKREDLFY">     1</i>
   <i type="int" name="NKREDLFZ">     1</i>
   <i type="int" name="MAXMEM">  2800</i>
   <i type="int" name="TELESCOPE">     0</i>
   <i type="int" name="NTAUPAR">    -1</i>
   <i type="int" name="NOMEGAPAR">    -1</i>
   <i name="DAMP_NEWTON">      0.80000001</i>
   <i name="LAMBDA">      1.00000000</i>
  </separator>
  <separator name="External order field" >
   <i name="OFIELD_KAPPA">      0.00000000</i>
   <v name="OFIELD_K">      0.00000000      0.00000000      0.00000000</v>
   <i name="OFIELD_Q6_NEAR">      0.00000000</i>
   <i name="OFIELD_Q6_FAR">      0.00000000</i>
   <i name="OFIELD_A">      0.00000000</i>
  </separator>
 </parameters>
 <atominfo>
  <atoms>       2 </atoms>
  <types>       1 </types>
  <array name="atoms" >
   <dimension dim="1">ion</dimension>
   <field type="string">element</field>
   <field type="int">atomtype</field>
   <set>
    <rc><c>Fe</c><c>   1</c></rc>
    <rc><c>Fe</c><c>   1</c></rc>
   </set>
  </array>
  <array name="atomtypes" >
   <dimension dim="1">type</dimension>
   <field type="int">atomspertype</field>
   <field type="string">element</field>
   <field>mass</field>
   <field>valence</field>
   <field type="string">pseudopotential</field>
   <set>
    <rc><c>   2</c><c>Fe</c><c>     55.84700000</c><c>      8.00000000</c><c>  PAW_PBE Fe 06Sep2000                  </c></rc>
   </set>
  </array>
 </atominfo>
 <structure name="initialpos" >
  <crystal>
   <varray name="basis" >
    <v>       2.23680000       0.00000000       0.00000000 </v>
    <v>      -1.11840000       1.93712562       0.00000000 </v>
    <v>       0.00000000       0.00000000       3.79824000 </v>
   </varray>
   <i name="volume">     16.45763184 </i>
   <varray name="rec_basis" >
    <v>       0.44706724       0.25811439       0.00000000 </v>
    <v>       0.00000000       0.51622878       0.00000000 </v>
    <v>       0.00000000       0.00000000       0.26327983 </v>
   </varray>
  </crystal>
  <varray name="positions" >
   <v>       0.00000000       0.00000000       0.00000000 </v>
   <v>       0.33333333       0.66666667       0.50000000 </v>
  </varray>
 </structure>
 <calculation>
  <scstep>
   <time name="dav">    0.75    0.77</time>
   <time name="total">    0.76    0.78</time>
   <energy>
    <i name="alphaZ">    167.97988109 </i>
    <i name="ewald">  -1318.12423428 </i>
    <i name="hartreedc">   -175.95950279 </i>
    <i name="XCdc">      9.94978307 </i>
    <i name="pawpsdc">   1109.69170683 </i>
    <i name="pawaedc">  -1125.09647265 </i>
    <i name="eentropy">     -0.00301435 </i>
    <i name="bandstr">    203.01804504 </i>
    <i name="atom">   1188.57490811 </i>
    <i name="e_fr_energy">     60.03110006 </i>
    <i name="e_wo_entrp">     60.03411441 </i>
    <i name="e_0_energy">     60.03210485 </i>
   </energy>
  </scstep>
  <scstep>
   <time name="dav">    0.62    0.62</time>
   <time name="total">    0.63    0.63</time>
   <energy>
    <i name="e_fr_energy">    -13.98625085 </i>
    <i name="e_wo_entrp">    -13.98423902 </i>
    <i name="e_0_energy">    -13.98558024 </i>
   </energy>
  </scstep>
  <scstep>
   <time name="dav">    0.71    0.71</time>
   <time name="total">    0.72    0.72</time>
   <energy>
    <i name="e_fr_energy">    -17.75919044 </i>
    <i name="e_wo_entrp">    -17.75845171 </i>
    <i name="e_0_energy">    -17.75894420 </i>
   </energy>
  </scstep>
  <scstep>
   <time name="dav">    0.65    0.65</time>
   <time name="total">    0.65    0.65</time>
   <energy>
    <i name="e_fr_energy">    -17.77005246 </i>
    <i name="e_wo_entrp">    -17.76931540 </i>
    <i name="e_0_energy">    -17.76980677 </i>
   </energy>
  </scstep>
  <scstep>
   <time name="dav">    0.69    0.69</time>
   <time name="total">    0.71    0.71</time>
   <energy>
    <i name="e_fr_energy">    -17.77005747 </i>
    <i name="e_wo_entrp">    -17.76932040 </i>
    <i name="e_0_energy">    -17.76981178 </i>
   </energy>
  </scstep>
  <scstep>
   <time name="dav">    0.82    0.82</time>
   <time name="total">    0.85    0.85</time>
   <energy>
    <i name="e_fr_energy">    -15.35377552 </i>
    <i name="e_wo_entrp">    -15.35342496 </i>
    <i name="e_0_energy">    -15.35365867 </i>
   </energy>
  </scstep>
  <scstep>
   <time name="dav">    0.68    0.68</time>
   <time name="total">    0.71    0.71</time>
   <energy>
    <i name="e_fr_energy">    -15.24537147 </i>
    <i name="e_wo_entrp">    -15.24492035 </i>
    <i name="e_0_energy">    -15.24522109 </i>
   </energy>
  </scstep>
  <scstep>
   <time name="dav">    0.78    0.78</time>
   <time name="total">    0.81    0.81</time>
   <energy>
    <i name="e_fr_energy">    -15.20008155 </i>
    <i name="e_wo_entrp">    -15.19967754 </i>
    <i name="e_0_energy">    -15.19994688 </i>
   </energy>
  </scstep>
  <scstep>
   <time name="dav">    0.72    0.72</time>
   <time name="total">    0.75    0.75</time>
   <energy>
    <i name="e_fr_energy">    -15.19833769 </i>
    <i name="e_wo_entrp">    -15.19793429 </i>
    <i name="e_0_energy">    -15.19820322 </i>
   </energy>
  </scstep>
  <scstep>
   <time name="dav">    0.68    0.68</time>
   <time name="total">    0.71    0.71</time>
   <energy>
    <i name="e_fr_energy">    -15.19818537 </i>
    <i name="e_wo_entrp">    -15.19778013 </i>
    <i name="e_0_energy">    -15.19805029 </i>
   </energy>
  </scstep>
  <scstep>
   <time name="dav">    0.66    0.66</time>
   <time name="total">    0.69    0.69</time>
   <energy>
    <i name="e_fr_energy">    -15.19815745 </i>
    <i name="e_wo_entrp">    -15.19775253 </i>
    <i name="e_0_energy">    -15.19802248 </i>
   </energy>
  </scstep>
  <scstep>
   <time name="dav">    0.50    0.50</time>
   <time name="total">    0.51    0.51</time>
   <energy>
    <i name="alphaZ">    167.97988109 </i>
    <i name="ewald">  -1318.12423428 </i>
    <i name="hartreedc">   -143.52705192 </i>
    <i name="XCdc">      8.40448739 </i>
    <i name="pawpsdc">   1792.23526062 </i>
    <i name="pawaedc">  -1812.39201874 </i>
    <i name="eentropy">     -0.00040480 </i>
    <i name="bandstr">    101.65101482 </i>
    <i name="atom">   1188.57490811 </i>
    <i name="e_fr_energy">    -15.19815770 </i>
    <i name="e_wo_entrp">    -15.19775290 </i>
    <i name="e_0_energy">    -15.19802277 </i>
   </energy>
  </scstep>
  <structure>
   <crystal>
    <varray name="basis" >
     <v>       2.23680000       0.00000000       0.00000000 </v>
     <v>      -1.11840000       1.93712562       0.00000000 </v>
     <v>       0.00000000       0.00000000       3.79824000 </v>
    </varray>
    <i name="volume">     16.45763184 </i>
    <varray name="rec_basis" >
     <v>       0.44706724       0.25811439       0.00000000 </v>
     <v>       0.00000000       0.51622878       0.00000000 </v>
     <v>       0.00000000       0.00000000       0.26327983 </v>
    </varray>
   </crystal>
   <varray name="positions" >
    <v>       0.00000000       0.00000000       0.00000000 </v>
    <v>       0.33333333       0.66666667       0.50000000 </v>
   </varray>
  </structure>
  <varray name="forces" >
   <v>       0.00000000       0.00000000       0.00000000 </v>
   <v>      -0.00000000      -0.00000000      -0.00000000 </v>
  </varray>
  <varray name="stress" >
   <v>    1188.10116408      -0.00000000       0.00000000 </v>
   <v>      -0.00000000    1188.10116408       0.00000000 </v>
   <v>       0.00000000      -0.00000000     619.48570840 </v>
  </varray>
  <energy>
   <i name="e_fr_energy">    -15.19815770 </i>
   <i name="e_wo_entrp">    -15.19775290 </i>
   <i name="e_0_energy">    -15.19802277 </i>
  </energy>
  <time name="totalsc">    8.78    8.80</time>
  <eigenvalues>
   <array>
    <dimension dim="1">band</dimension>
    <dimension dim="2">kpoint</dimension>
    <dimension dim="3">spin</dimension>
    <field>eigene</field>
    <field>occ</field>
    <set>
     <set comment="spin 1">
      <set comment="kpoint 1">
       <r>   -0.5364    1.0000 </r>
       <r>    3.2905    1.0000 </r>
       <r>    6.9232    1.0000 </r>
       <r>    7.4178    1.0000 </r>
       <r>    7.4178    1.0000 </r>
       <r>    7.9195    1.0000 </r>
       <r>    7.9195    1.0000 </r>
       <r>    8.9342    1.0000 </r>
       <r>    8.9342    1.0000 </r>
       <r>    9.2820    1.0300 </r>
       <r>   10.5976   -0.0000 </r>
       <r>   10.5976   -0.0000 </r>
       <r>   19.7676    0.0000 </r>
       <r>   34.3156    0.0000 </r>
       <r>   36.4667    0.0000 </r>
       <r>   38.1846    0.0000 </r>
       <r>   41.9291    0.0000 </r>
       <r>   41.9291    0.0000 </r>
       <r>   42.5796    0.0000 </r>
       <r>   42.5796    0.0000 </r>
       <r>   44.8933    0.0000 </r>
       <r>   44.8933    0.0000 </r>
       <r>   46.0974    0.0000 </r>
       <r>   46.1147    0.0000 </r>
       <r>   50.2110    0.0000 </r>
       <r>   50.2110    0.0000 </r>
       <r>   52.1677    0.0000 </r>
       <r>   55.1550    0.0000 </r>
       <r>   55.1550    0.0000 </r>
       <r>   56.5182    0.0000 </r>
       <r>   56.5182    0.0000 </r>
       <r>   60.9049    0.0000 </r>
       <r>   66.0159    0.0000 </r>
       <r>   67.4173    0.0000 </r>
       <r>   67.4174    0.0000 </r>
       <r>   68.7338    0.0000 </r>
       <r>   69.0507    0.0000 </r>
       <r>   72.3509    0.0000 </r>
       <r>   72.3510    0.0000 </r>
       <r>   77.0635    0.0000 </r>
      </set>
      <set comment="kpoint 2">
       <r>   -0.1530    1.0000 </r>
       <r>    3.5720    1.0000 </r>
       <r>    6.7823    1.0000 </r>
       <r>    7.4730    1.0000 </r>
       <r>    7.6649    1.0000 </r>
       <r>    7.7810    1.0000 </r>
       <r>    7.9335    1.0000 </r>
       <r>    8.1446    1.0000 </r>
       <r>    8.7729    1.0000 </r>
       <r>    8.8036    1.0000 </r>
       <r>   10.6576   -0.0000 </r>
       <r>   12.1800   -0.0000 </r>
       <r>   19.7608    0.0000 </r>
       <r>   33.5184    0.0000 </r>
       <r>   36.7585    0.0000 </r>
       <r>   36.8526    0.0000 </r>
       <r>   38.7035    0.0000 </r>
       <r>   40.6034    0.0000 </r>
       <r>   40.6933    0.0000 </r>
       <r>   44.5873    0.0000 </r>
       <r>   45.6399    0.0000 </r>
       <r>   45.7202    0.0000 </r>
       <r>   46.4623    0.0000 </r>
       <r>   47.0887    0.0000 </r>
       <r>   50.9869    0.0000 </r>
       <r>   51.1556    0.0000 </r>
       <r>   52.3450    0.0000 </r>
       <r>   52.4753    0.0000 </r>
       <r>   55.8137    0.0000 </r>
       <r>   58.4821    0.0000 </r>
       <r>   58.7814    0.0000 </r>
       <r>   61.7242    0.0000 </r>
       <r>   65.8313    0.0000 </r>
       <r>   66.4507    0.0000 </r>
       <r>   66.7391    0.0000 </r>
       <r>   68.2365    0.0000 </r>
       <r>   68.3032    0.0000 </r>
       <r>   72.3625    0.0000 </r>
       <r>   74.3630    0.0000 </r>
       <r>   76.8705    0.0000 </r>
      </set>
      <set comment="kpoint 3">
       <r>    0.9131    1.0000 </r>
       <r>    4.2096    1.0000 </r>
       <r>    6.3619    1.0000 </r>
       <r>    6.4137    1.0000 </r>
       <r>    7.2951    1.0000 </r>
       <r>    8.0858    1.0000 </r>
       <r>    8.3666    1.0000 </r>
       <r>    8.3983    1.0000 </r>
       <r>    8.4035    1.0000 </r>
       <r>    8.7799    1.0000 </r>
       <r>   10.7671   -0.0000 </r>
       <r>   14.4801   -0.0000 </r>
       <r>   19.7966    0.0000 </r>
       <r>   30.2603    0.0000 </r>
       <r>   35.5182    0.0000 </r>
       <r>   35.5402    0.0000 </r>
       <r>   36.1105    0.0000 </r>
       <r>   37.3972    0.0000 </r>
       <r>   41.8118    0.0000 </r>
       <r>   44.0546    0.0000 </r>
       <r>   44.4580    0.0000 </r>
       <r>   44.9265    0.0000 </r>
       <r>   47.3445    0.0000 </r>
       <r>   49.5265    0.0000 </r>
       <r>   51.5195    0.0000 </r>
       <r>   51.9746    0.0000 </r>
       <r>   53.6928    0.0000 </r>
       <r>   56.1549    0.0000 </r>
       <r>   59.8552    0.0000 </r>
       <r>   60.6728    0.0000 </r>
       <r>   61.3889    0.0000 </r>
       <r>   63.1836    0.0000 </r>
       <r>   64.8000    0.0000 </r>
       <r>   65.3546    0.0000 </r>
       <r>   65.3697    0.0000 </r>
       <r>   66.7999    0.0000 </r>
       <r>   69.7585    0.0000 </r>
       <r>   72.8052    0.0000 </r>
       <r>   75.3523    0.0000 </r>
       <r>   76.8224    0.0000 </r>
      </set>
      <set comment="kpoint 4">
       <r>    2.3452    1.0000 </r>
       <r>    4.4296    1.0000 </r>
       <r>    5.2043    1.0000 </r>
       <r>    6.2761    1.0000 </r>
       <r>    7.1343    1.0000 </r>
       <r>    7.9091    1.0000 </r>
       <r>    7.9781    1.0000 </r>
       <r>    9.0853    1.0016 </r>
       <r>    9.3663    1.0274 </r>
       <r>    9.6728    0.1249 </r>
       <r>   10.8470   -0.0000 </r>
       <r>   16.9632    0.0000 </r>
       <r>   19.8681    0.0000 </r>
       <r>   26.2319    0.0000 </r>
       <r>   32.3636    0.0000 </r>
       <r>   32.7448    0.0000 </r>
       <r>   34.2384    0.0000 </r>
       <r>   36.9155    0.0000 </r>
       <r>   40.9848    0.0000 </r>
       <r>   43.6384    0.0000 </r>
       <r>   44.6888    0.0000 </r>
       <r>   45.0626    0.0000 </r>
       <r>   45.0973    0.0000 </r>
       <r>   49.7107    0.0000 </r>
       <r>   54.7965    0.0000 </r>
       <r>   56.6119    0.0000 </r>
       <r>   57.3209    0.0000 </r>
       <r>   59.7811    0.0000 </r>
       <r>   60.9082    0.0000 </r>
       <r>   61.2675    0.0000 </r>
       <r>   63.3431    0.0000 </r>
       <r>   63.9031    0.0000 </r>
       <r>   64.6332    0.0000 </r>
       <r>   65.0040    0.0000 </r>
       <r>   65.5905    0.0000 </r>
       <r>   69.0454    0.0000 </r>
       <r>   69.5224    0.0000 </r>
       <r>   73.2944    0.0000 </r>
       <r>   75.6060    0.0000 </r>
       <r>   75.9918    0.0000 </r>
      </set>
      <set comment="kpoint 5">
       <r>    3.4078    1.0000 </r>
       <r>    4.0965    1.0000 </r>
       <r>    4.3695    1.0000 </r>
       <r>    6.6682    1.0000 </r>
       <r>    7.4794    1.0000 </r>
       <r>    7.5601    1.0000 </r>
       <r>    7.6349    1.0000 </r>
       <r>   10.3755   -0.0000 </r>
       <r>   10.5809   -0.0000 </r>
       <r>   10.6593   -0.0000 </r>
       <r>   10.8824   -0.0000 </r>
       <r>   19.2436    0.0000 </r>
       <r>   19.5238    0.0000 </r>
       <r>   23.5255    0.0000 </r>
       <r>   29.0299    0.0000 </r>
       <r>   30.5810    0.0000 </r>
       <r>   31.7451    0.0000 </r>
       <r>   35.8313    0.0000 </r>
       <r>   39.6266    0.0000 </r>
       <r>   42.8318    0.0000 </r>
       <r>   43.4612    0.0000 </r>
       <r>   45.9394    0.0000 </r>
       <r>   47.3524    0.0000 </r>
       <r>   49.9996    0.0000 </r>
       <r>   58.2609    0.0000 </r>
       <r>   58.3946    0.0000 </r>
       <r>   58.9201    0.0000 </r>
       <r>   61.8164    0.0000 </r>
       <r>   62.5466    0.0000 </r>
       <r>   62.6504    0.0000 </r>
       <r>   63.9453    0.0000 </r>
       <r>   64.5275    0.0000 </r>
       <r>   65.6313    0.0000 </r>
       <r>   66.0076    0.0000 </r>
       <r>   66.8629    0.0000 </r>
       <r>   68.6232    0.0000 </r>
       <r>   73.5445    0.0000 </r>
       <r>   74.0739    0.0000 </r>
       <r>   75.0153    0.0000 </r>
       <r>   75.8058    0.0000 </r>
      </set>
      <set comment="kpoint 6">
       <r>    3.5353    1.0000 </r>
       <r>    3.9437    1.0000 </r>
       <r>    3.9960    1.0000 </r>
       <r>    7.2341    1.0000 </r>
       <r>    7.3582    1.0000 </r>
       <r>    7.4436    1.0000 </r>
       <r>    7.8797    1.0000 </r>
       <r>   10.8936   -0.0000 </r>
       <r>   11.0030   -0.0000 </r>
       <r>   11.2019   -0.0000 </r>
       <r>   12.7119   -0.0000 </r>
       <r>   16.8321    0.0000 </r>
       <r>   21.8809    0.0000 </r>
       <r>   23.6828    0.0000 </r>
       <r>   26.3458    0.0000 </r>
       <r>   29.1753    0.0000 </r>
       <r>   29.3539    0.0000 </r>
       <r>   35.0909    0.0000 </r>
       <r>   39.1673    0.0000 </r>
       <r>   41.5393    0.0000 </r>
       <r>   43.3438    0.0000 </r>
       <r>   46.9186    0.0000 </r>
       <r>   49.5259    0.0000 </r>
       <r>   50.3572    0.0000 </r>
       <r>   55.0236    0.0000 </r>
       <r>   60.5508    0.0000 </r>
       <r>   60.5571    0.0000 </r>
       <r>   62.6824    0.0000 </r>
       <r>   63.6782    0.0000 </r>
       <r>   64.1592    0.0000 </r>
       <r>   64.7215    0.0000 </r>
       <r>   65.1139    0.0000 </r>
       <r>   66.8726    0.0000 </r>
       <r>   69.1206    0.0000 </r>
       <r>   69.3683    0.0000 </r>
       <r>   71.8394    0.0000 </r>
       <r>   72.4757    0.0000 </r>
       <r>   72.5042    0.0000 </r>
       <r>   75.1155    0.0000 </r>
       <r>   75.1792    0.0000 </r>
      </set>
      <set comment="kpoint 7">
       <r>    0.5765    1.0000 </r>
       <r>    4.0578    1.0000 </r>
       <r>    6.4278    1.0000 </r>
       <r>    6.8248    1.0000 </r>
       <r>    7.5169    1.0000 </r>
       <r>    7.7004    1.0000 </r>
       <r>    8.1790    1.0000 </r>
       <r>    8.2348    1.0000 </r>
       <r>    8.6464    1.0000 </r>
       <r>    8.7926    1.0000 </r>
       <r>   10.7034   -0.0000 </r>
       <r>   13.8508   -0.0000 </r>
       <r>   19.7857    0.0000 </r>
       <r>   31.7884    0.0000 </r>
       <r>   33.7653    0.0000 </r>
       <r>   37.0661    0.0000 </r>
       <r>   37.5634    0.0000 </r>
       <r>   39.3381    0.0000 </r>
       <r>   39.7309    0.0000 </r>
       <r>   42.7812    0.0000 </r>
       <r>   44.9198    0.0000 </r>
       <r>   48.1247    0.0000 </r>
       <r>   48.3189    0.0000 </r>
       <r>   49.3159    0.0000 </r>
       <r>   50.0572    0.0000 </r>
       <r>   50.6330    0.0000 </r>
       <r>   51.0314    0.0000 </r>
       <r>   56.3406    0.0000 </r>
       <r>   59.1868    0.0000 </r>
       <r>   60.1207    0.0000 </r>
       <r>   60.3810    0.0000 </r>
       <r>   62.8028    0.0000 </r>
       <r>   64.1462    0.0000 </r>
       <r>   65.4776    0.0000 </r>
       <r>   67.0362    0.0000 </r>
       <r>   67.7030    0.0000 </r>
       <r>   67.8836    0.0000 </r>
       <r>   73.2158    0.0000 </r>
       <r>   75.1405    0.0000 </r>
       <r>   76.5997    0.0000 </r>
      </set>
      <set comment="kpoint 8">
       <r>    1.8680    1.0000 </r>
       <r>    4.6329    1.0000 </r>
       <r>    5.6516    1.0000 </r>
       <r>    5.9756    1.0000 </r>
       <r>    7.2131    1.0000 </r>
       <r>    7.7060    1.0000 </r>
       <r>    8.2747    1.0000 </r>
       <r>    8.4773    1.0000 </r>
       <r>    9.0986    1.0021 </r>
       <r>    9.5813    0.4565 </r>
       <r>   10.7443   -0.0000 </r>
       <r>   16.1026    0.0000 </r>
       <r>   19.9018    0.0000 </r>
       <r>   28.2576    0.0000 </r>
       <r>   31.1211    0.0000 </r>
       <r>   34.0736    0.0000 </r>
       <r>   36.6341    0.0000 </r>
       <r>   37.3337    0.0000 </r>
       <r>   40.8182    0.0000 </r>
       <r>   42.3112    0.0000 </r>
       <r>   43.3141    0.0000 </r>
       <r>   47.7557    0.0000 </r>
       <r>   48.5014    0.0000 </r>
       <r>   49.2083    0.0000 </r>
       <r>   52.1465    0.0000 </r>
       <r>   52.8683    0.0000 </r>
       <r>   54.7072    0.0000 </r>
       <r>   60.3821    0.0000 </r>
       <r>   61.2669    0.0000 </r>
       <r>   61.9484    0.0000 </r>
       <r>   62.4470    0.0000 </r>
       <r>   63.5132    0.0000 </r>
       <r>   63.9451    0.0000 </r>
       <r>   65.2162    0.0000 </r>
       <r>   66.5541    0.0000 </r>
       <r>   67.2106    0.0000 </r>
       <r>   68.6926    0.0000 </r>
       <r>   73.7658    0.0000 </r>
       <r>   75.3662    0.0000 </r>
       <r>   75.5912    0.0000 </r>
      </set>
      <set comment="kpoint 9">
       <r>    3.2471    1.0000 </r>
       <r>    4.4786    1.0000 </r>
       <r>    4.7302    1.0000 </r>
       <r>    6.1245    1.0000 </r>
       <r>    7.3172    1.0000 </r>
       <r>    7.3323    1.0000 </r>
       <r>    8.0020    1.0000 </r>
       <r>    9.2388    1.0203 </r>
       <r>   10.1212   -0.0004 </r>
       <r>   10.7687   -0.0000 </r>
       <r>   10.8089   -0.0000 </r>
       <r>   18.5874    0.0000 </r>
       <r>   19.9815    0.0000 </r>
       <r>   24.5689    0.0000 </r>
       <r>   29.1864    0.0000 </r>
       <r>   30.7409    0.0000 </r>
       <r>   34.2621    0.0000 </r>
       <r>   35.3301    0.0000 </r>
       <r>   40.5603    0.0000 </r>
       <r>   41.8952    0.0000 </r>
       <r>   43.4961    0.0000 </r>
       <r>   47.8256    0.0000 </r>
       <r>   47.9929    0.0000 </r>
       <r>   50.3816    0.0000 </r>
       <r>   54.4687    0.0000 </r>
       <r>   56.9069    0.0000 </r>
       <r>   59.0068    0.0000 </r>
       <r>   60.0402    0.0000 </r>
       <r>   60.4508    0.0000 </r>
       <r>   63.3985    0.0000 </r>
       <r>   63.4045    0.0000 </r>
       <r>   64.9181    0.0000 </r>
       <r>   65.4964    0.0000 </r>
       <r>   66.6388    0.0000 </r>
       <r>   66.9181    0.0000 </r>
       <r>   67.8317    0.0000 </r>
       <r>   72.3999    0.0000 </r>
       <r>   73.5834    0.0000 </r>
       <r>   73.9769    0.0000 </r>
       <r>   76.0765    0.0000 </r>
      </set>
      <set comment="kpoint 10">
       <r>    3.8117    1.0000 </r>
       <r>    4.1527    1.0000 </r>
       <r>    4.2085    1.0000 </r>
       <r>    6.7616    1.0000 </r>
       <r>    7.1440    1.0000 </r>
       <r>    7.5476    1.0000 </r>
       <r>    7.7659    1.0000 </r>
       <r>   10.3601   -0.0000 </r>
       <r>   10.7727   -0.0000 </r>
       <r>   10.8552   -0.0000 </r>
       <r>   12.3542   -0.0000 </r>
       <r>   18.4593    0.0000 </r>
       <r>   21.1195    0.0000 </r>
       <r>   23.4387    0.0000 </r>
       <r>   27.6695    0.0000 </r>
       <r>   27.7391    0.0000 </r>
       <r>   31.0360    0.0000 </r>
       <r>   34.2673    0.0000 </r>
       <r>   39.5814    0.0000 </r>
       <r>   41.2524    0.0000 </r>
       <r>   44.3483    0.0000 </r>
       <r>   48.3443    0.0000 </r>
       <r>   49.4968    0.0000 </r>
       <r>   50.3939    0.0000 </r>
       <r>   56.9122    0.0000 </r>
       <r>   57.1881    0.0000 </r>
       <r>   60.0200    0.0000 </r>
       <r>   61.0408    0.0000 </r>
       <r>   62.8347    0.0000 </r>
       <r>   63.5829    0.0000 </r>
       <r>   64.0641    0.0000 </r>
       <r>   64.8593    0.0000 </r>
       <r>   65.5863    0.0000 </r>
       <r>   68.3664    0.0000 </r>
       <r>   70.2603    0.0000 </r>
       <r>   70.4132    0.0000 </r>
       <r>   71.0538    0.0000 </r>
       <r>   74.4789    0.0000 </r>
       <r>   75.8792    0.0000 </r>
       <r>   76.1811    0.0000 </r>
      </set>
      <set comment="kpoint 11">
       <r>    3.7441    1.0000 </r>
       <r>    3.9567    1.0000 </r>
       <r>    4.2179    1.0000 </r>
       <r>    7.1776    1.0000 </r>
       <r>    7.2088    1.0000 </r>
       <r>    7.2861    1.0000 </r>
       <r>    7.9351    1.0000 </r>
       <r>   10.7717   -0.0000 </r>
       <r>   10.9856   -0.0000 </r>
       <r>   10.9969   -0.0000 </r>
       <r>   13.7918   -0.0000 </r>
       <r>   16.4917    0.0000 </r>
       <r>   22.8155    0.0000 </r>
       <r>   24.1149    0.0000 </r>
       <r>   25.9061    0.0000 </r>
       <r>   26.9018    0.0000 </r>
       <r>   29.4406    0.0000 </r>
       <r>   33.8793    0.0000 </r>
       <r>   39.1422    0.0000 </r>
       <r>   41.0728    0.0000 </r>
       <r>   44.5123    0.0000 </r>
       <r>   49.1398    0.0000 </r>
       <r>   49.4752    0.0000 </r>
       <r>   51.3694    0.0000 </r>
       <r>   54.7359    0.0000 </r>
       <r>   59.3234    0.0000 </r>
       <r>   60.1487    0.0000 </r>
       <r>   62.1424    0.0000 </r>
       <r>   63.0388    0.0000 </r>
       <r>   63.8871    0.0000 </r>
       <r>   65.0223    0.0000 </r>
       <r>   65.0893    0.0000 </r>
       <r>   66.1796    0.0000 </r>
       <r>   67.7186    0.0000 </r>
       <r>   72.0745    0.0000 </r>
       <r>   72.4802    0.0000 </r>
       <r>   72.8503    0.0000 </r>
       <r>   73.0467    0.0000 </r>
       <r>   74.6708    0.0000 </r>
       <r>   76.5044    0.0000 </r>
      </set>
      <set comment="kpoint 12">
       <r>    3.2298    1.0000 </r>
       <r>    4.9395    1.0000 </r>
       <r>    5.1135    1.0000 </r>
       <r>    5.3906    1.0000 </r>
       <r>    7.1425    1.0000 </r>
       <r>    7.3163    1.0000 </r>
       <r>    8.2196    1.0000 </r>
       <r>    8.6008    1.0000 </r>
       <r>   10.0971   -0.0006 </r>
       <r>   10.6508   -0.0000 </r>
       <r>   10.8827   -0.0000 </r>
       <r>   18.2899    0.0000 </r>
       <r>   20.2628    0.0000 </r>
       <r>   26.0472    0.0000 </r>
       <r>   27.2264    0.0000 </r>
       <r>   31.9829    0.0000 </r>
       <r>   34.3184    0.0000 </r>
       <r>   36.7755    0.0000 </r>
       <r>   37.7198    0.0000 </r>
       <r>   43.2164    0.0000 </r>
       <r>   44.4161    0.0000 </r>
       <r>   49.1835    0.0000 </r>
       <r>   49.5796    0.0000 </r>
       <r>   51.3209    0.0000 </r>
       <r>   52.0042    0.0000 </r>
       <r>   54.1232    0.0000 </r>
       <r>   56.0500    0.0000 </r>
       <r>   61.2844    0.0000 </r>
       <r>   61.6180    0.0000 </r>
       <r>   62.5938    0.0000 </r>
       <r>   62.9365    0.0000 </r>
       <r>   65.1000    0.0000 </r>
       <r>   65.2170    0.0000 </r>
       <r>   66.4860    0.0000 </r>
       <r>   67.9791    0.0000 </r>
       <r>   69.3450    0.0000 </r>
       <r>   69.8514    0.0000 </r>
       <r>   73.5234    0.0000 </r>
       <r>   73.5264    0.0000 </r>
       <r>   76.6440    0.0000 </r>
      </set>
      <set comment="kpoint 13">
       <r>    4.3882    1.0000 </r>
       <r>    4.4214    1.0000 </r>
       <r>    4.7487    1.0000 </r>
       <r>    5.7311    1.0000 </r>
       <r>    6.8604    1.0000 </r>
       <r>    7.6748    1.0000 </r>
       <r>    7.7338    1.0000 </r>
       <r>    9.3088    1.0344 </r>
       <r>   10.5679   -0.0000 </r>
       <r>   10.8066   -0.0000 </r>
       <r>   12.4932   -0.0000 </r>
       <r>   20.3369    0.0000 </r>
       <r>   20.7635    0.0000 </r>
       <r>   23.3223    0.0000 </r>
       <r>   25.3973    0.0000 </r>
       <r>   29.5459    0.0000 </r>
       <r>   32.4326    0.0000 </r>
       <r>   33.3053    0.0000 </r>
       <r>   36.3655    0.0000 </r>
       <r>   44.9468    0.0000 </r>
       <r>   45.2655    0.0000 </r>
       <r>   49.4676    0.0000 </r>
       <r>   51.2193    0.0000 </r>
       <r>   52.1703    0.0000 </r>
       <r>   53.9978    0.0000 </r>
       <r>   55.4652    0.0000 </r>
       <r>   57.3386    0.0000 </r>
       <r>   59.2970    0.0000 </r>
       <r>   61.8075    0.0000 </r>
       <r>   63.4379    0.0000 </r>
       <r>   64.1646    0.0000 </r>
       <r>   64.8832    0.0000 </r>
       <r>   65.5756    0.0000 </r>
       <r>   67.8403    0.0000 </r>
       <r>   69.6110    0.0000 </r>
       <r>   70.4240    0.0000 </r>
       <r>   72.5019    0.0000 </r>
       <r>   73.8824    0.0000 </r>
       <r>   75.7542    0.0000 </r>
       <r>   76.9414    0.0000 </r>
      </set>
      <set comment="kpoint 14">
       <r>    4.1528    1.0000 </r>
       <r>    4.3912    1.0000 </r>
       <r>    4.7381    1.0000 </r>
       <r>    6.4229    1.0000 </r>
       <r>    6.8974    1.0000 </r>
       <r>    7.2400    1.0000 </r>
       <r>    8.0119    1.0000 </r>
       <r>   10.1843   -0.0001 </r>
       <r>   10.5217   -0.0000 </r>
       <r>   10.8910   -0.0000 </r>
       <r>   14.3749   -0.0000 </r>
       <r>   18.0153    0.0000 </r>
       <r>   23.2414    0.0000 </r>
       <r>   23.5482    0.0000 </r>
       <r>   24.7542    0.0000 </r>
       <r>   26.9665    0.0000 </r>
       <r>   30.3262    0.0000 </r>
       <r>   31.5983    0.0000 </r>
       <r>   35.6768    0.0000 </r>
       <r>   44.8911    0.0000 </r>
       <r>   46.8411    0.0000 </r>
       <r>   49.8472    0.0000 </r>
       <r>   51.6400    0.0000 </r>
       <r>   52.3691    0.0000 </r>
       <r>   56.1689    0.0000 </r>
       <r>   56.7170    0.0000 </r>
       <r>   58.3586    0.0000 </r>
       <r>   58.6328    0.0000 </r>
       <r>   62.1123    0.0000 </r>
       <r>   62.9998    0.0000 </r>
       <r>   64.0580    0.0000 </r>
       <r>   65.3447    0.0000 </r>
       <r>   65.8983    0.0000 </r>
       <r>   66.5783    0.0000 </r>
       <r>   70.4294    0.0000 </r>
       <r>   72.1416    0.0000 </r>
       <r>   74.1781    0.0000 </r>
       <r>   74.2179    0.0000 </r>
       <r>   76.2162    0.0000 </r>
       <r>   77.9083    0.0000 </r>
      </set>
      <set comment="kpoint 15">
       <r>    4.2893    1.0000 </r>
       <r>    4.9756    1.0000 </r>
       <r>    5.3296    1.0000 </r>
       <r>    5.4844    1.0000 </r>
       <r>    6.6858    1.0000 </r>
       <r>    7.2749    1.0000 </r>
       <r>    8.0734    1.0000 </r>
       <r>    9.6545    0.1786 </r>
       <r>   10.3913   -0.0000 </r>
       <r>   10.8649   -0.0000 </r>
       <r>   14.5416   -0.0000 </r>
       <r>   20.3265    0.0000 </r>
       <r>   20.7942    0.0000 </r>
       <r>   23.2857    0.0000 </r>
       <r>   24.8363    0.0000 </r>
       <r>   28.6765    0.0000 </r>
       <r>   29.5501    0.0000 </r>
       <r>   32.0416    0.0000 </r>
       <r>   33.0360    0.0000 </r>
       <r>   46.9654    0.0000 </r>
       <r>   47.9995    0.0000 </r>
       <r>   51.5913    0.0000 </r>
       <r>   52.6400    0.0000 </r>
       <r>   53.8752    0.0000 </r>
       <r>   53.9859    0.0000 </r>
       <r>   54.2504    0.0000 </r>
       <r>   57.2507    0.0000 </r>
       <r>   59.6927    0.0000 </r>
       <r>   59.8859    0.0000 </r>
       <r>   61.8734    0.0000 </r>
       <r>   63.6036    0.0000 </r>
       <r>   65.5477    0.0000 </r>
       <r>   66.4174    0.0000 </r>
       <r>   66.4351    0.0000 </r>
       <r>   70.7846    0.0000 </r>
       <r>   72.0708    0.0000 </r>
       <r>   72.0871    0.0000 </r>
       <r>   74.6454    0.0000 </r>
       <r>   77.2995    0.0000 </r>
       <r>   77.4164    0.0000 </r>
      </set>
      <set comment="kpoint 16">
       <r>    4.2607    1.0000 </r>
       <r>    5.0769    1.0000 </r>
       <r>    5.2330    1.0000 </r>
       <r>    5.8454    1.0000 </r>
       <r>    6.7763    1.0000 </r>
       <r>    6.9292    1.0000 </r>
       <r>    8.2686    1.0000 </r>
       <r>   10.1226   -0.0003 </r>
       <r>   10.3245   -0.0000 </r>
       <r>   10.5028   -0.0000 </r>
       <r>   16.4295    0.0000 </r>
       <r>   18.1705    0.0000 </r>
       <r>   20.4019    0.0000 </r>
       <r>   25.4798    0.0000 </r>
       <r>   25.7912    0.0000 </r>
       <r>   26.8077    0.0000 </r>
       <r>   28.8033    0.0000 </r>
       <r>   30.4097    0.0000 </r>
       <r>   32.3778    0.0000 </r>
       <r>   47.3589    0.0000 </r>
       <r>   50.1043    0.0000 </r>
       <r>   51.8868    0.0000 </r>
       <r>   52.4412    0.0000 </r>
       <r>   53.4295    0.0000 </r>
       <r>   54.8406    0.0000 </r>
       <r>   55.3694    0.0000 </r>
       <r>   58.2127    0.0000 </r>
       <r>   58.7076    0.0000 </r>
       <r>   59.0246    0.0000 </r>
       <r>   62.1607    0.0000 </r>
       <r>   62.9290    0.0000 </r>
       <r>   63.4496    0.0000 </r>
       <r>   66.0177    0.0000 </r>
       <r>   66.8281    0.0000 </r>
       <r>   70.2555    0.0000 </r>
       <r>   72.1284    0.0000 </r>
       <r>   75.3142    0.0000 </r>
       <r>   75.3981    0.0000 </r>
       <r>   75.6352    0.0000 </r>
       <r>   76.6172    0.0000 </r>
      </set>
      <set comment="kpoint 17">
       <r>   -0.4356    1.0000 </r>
       <r>    3.2870    1.0000 </r>
       <r>    6.8883    1.0000 </r>
       <r>    7.3970    1.0000 </r>
       <r>    7.3970    1.0000 </r>
       <r>    7.8880    1.0000 </r>
       <r>    7.8880    1.0000 </r>
       <r>    8.9989    1.0002 </r>
       <r>    8.9989    1.0002 </r>
       <r>    9.0044    1.0002 </r>
       <r>   10.5885   -0.0000 </r>
       <r>   10.5885   -0.0000 </r>
       <r>   20.1907    0.0000 </r>
       <r>   34.1134    0.0000 </r>
       <r>   36.2891    0.0000 </r>
       <r>   37.9537    0.0000 </r>
       <r>   41.9359    0.0000 </r>
       <r>   41.9360    0.0000 </r>
       <r>   42.5727    0.0000 </r>
       <r>   42.5727    0.0000 </r>
       <r>   44.8926    0.0000 </r>
       <r>   44.8926    0.0000 </r>
       <r>   46.1953    0.0000 </r>
       <r>   46.4459    0.0000 </r>
       <r>   49.7690    0.0000 </r>
       <r>   49.7690    0.0000 </r>
       <r>   52.5911    0.0000 </r>
       <r>   55.3620    0.0000 </r>
       <r>   55.3621    0.0000 </r>
       <r>   56.8766    0.0000 </r>
       <r>   56.8767    0.0000 </r>
       <r>   60.5769    0.0000 </r>
       <r>   66.3070    0.0000 </r>
       <r>   66.6820    0.0000 </r>
       <r>   67.3132    0.0000 </r>
       <r>   67.3132    0.0000 </r>
       <r>   71.0731    0.0000 </r>
       <r>   71.6615    0.0000 </r>
       <r>   71.6616    0.0000 </r>
       <r>   76.1126    0.0000 </r>
      </set>
      <set comment="kpoint 18">
       <r>   -0.0552    1.0000 </r>
       <r>    3.5738    1.0000 </r>
       <r>    6.7805    1.0000 </r>
       <r>    7.3975    1.0000 </r>
       <r>    7.5773    1.0000 </r>
       <r>    7.6364    1.0000 </r>
       <r>    8.0013    1.0000 </r>
       <r>    8.1094    1.0000 </r>
       <r>    8.8541    1.0000 </r>
       <r>    8.8704    1.0000 </r>
       <r>   10.6433   -0.0000 </r>
       <r>   11.9842   -0.0000 </r>
       <r>   20.2175    0.0000 </r>
       <r>   33.4559    0.0000 </r>
       <r>   36.2861    0.0000 </r>
       <r>   36.8962    0.0000 </r>
       <r>   38.7758    0.0000 </r>
       <r>   39.8469    0.0000 </r>
       <r>   41.5020    0.0000 </r>
       <r>   44.3056    0.0000 </r>
       <r>   45.2858    0.0000 </r>
       <r>   45.8263    0.0000 </r>
       <r>   46.5036    0.0000 </r>
       <r>   47.6485    0.0000 </r>
       <r>   50.7280    0.0000 </r>
       <r>   51.0055    0.0000 </r>
       <r>   52.8349    0.0000 </r>
       <r>   52.9747    0.0000 </r>
       <r>   55.8164    0.0000 </r>
       <r>   58.7371    0.0000 </r>
       <r>   59.0365    0.0000 </r>
       <r>   61.4133    0.0000 </r>
       <r>   65.1969    0.0000 </r>
       <r>   66.1014    0.0000 </r>
       <r>   66.5984    0.0000 </r>
       <r>   67.8015    0.0000 </r>
       <r>   69.8231    0.0000 </r>
       <r>   71.7767    0.0000 </r>
       <r>   73.5141    0.0000 </r>
       <r>   75.8576    0.0000 </r>
      </set>
      <set comment="kpoint 19">
       <r>    0.9980    1.0000 </r>
       <r>    4.2278    1.0000 </r>
       <r>    6.2862    1.0000 </r>
       <r>    6.3992    1.0000 </r>
       <r>    7.2442    1.0000 </r>
       <r>    7.9398    1.0000 </r>
       <r>    8.2155    1.0000 </r>
       <r>    8.5645    1.0000 </r>
       <r>    8.6093    1.0000 </r>
       <r>    8.7878    1.0000 </r>
       <r>   10.7427   -0.0000 </r>
       <r>   14.0860   -0.0000 </r>
       <r>   20.3733    0.0000 </r>
       <r>   30.3153    0.0000 </r>
       <r>   34.9973    0.0000 </r>
       <r>   35.6246    0.0000 </r>
       <r>   36.4178    0.0000 </r>
       <r>   37.0553    0.0000 </r>
       <r>   41.8990    0.0000 </r>
       <r>   43.6029    0.0000 </r>
       <r>   43.6117    0.0000 </r>
       <r>   45.7230    0.0000 </r>
       <r>   47.5915    0.0000 </r>
       <r>   50.1608    0.0000 </r>
       <r>   51.8270    0.0000 </r>
       <r>   52.0437    0.0000 </r>
       <r>   53.5019    0.0000 </r>
       <r>   56.2393    0.0000 </r>
       <r>   59.3052    0.0000 </r>
       <r>   61.1353    0.0000 </r>
       <r>   61.6027    0.0000 </r>
       <r>   62.6985    0.0000 </r>
       <r>   63.9732    0.0000 </r>
       <r>   65.2015    0.0000 </r>
       <r>   65.6812    0.0000 </r>
       <r>   67.6361    0.0000 </r>
       <r>   69.6924    0.0000 </r>
       <r>   72.3442    0.0000 </r>
       <r>   74.6542    0.0000 </r>
       <r>   75.4263    0.0000 </r>
      </set>
      <set comment="kpoint 20">
       <r>    2.3912    1.0000 </r>
       <r>    4.4577    1.0000 </r>
       <r>    5.1711    1.0000 </r>
       <r>    6.2840    1.0000 </r>
       <r>    7.0511    1.0000 </r>
       <r>    7.9685    1.0000 </r>
       <r>    8.0091    1.0000 </r>
       <r>    9.1234    1.0034 </r>
       <r>    9.3839    1.0171 </r>
       <r>    9.6444    0.2113 </r>
       <r>   10.8146   -0.0000 </r>
       <r>   16.2161    0.0000 </r>
       <r>   20.7363    0.0000 </r>
       <r>   26.3070    0.0000 </r>
       <r>   31.9265    0.0000 </r>
       <r>   32.8743    0.0000 </r>
       <r>   34.5159    0.0000 </r>
       <r>   36.8331    0.0000 </r>
       <r>   40.9055    0.0000 </r>
       <r>   42.6956    0.0000 </r>
       <r>   43.6289    0.0000 </r>
       <r>   45.7731    0.0000 </r>
       <r>   46.0247    0.0000 </r>
       <r>   50.7183    0.0000 </r>
       <r>   54.9356    0.0000 </r>
       <r>   56.5002    0.0000 </r>
       <r>   56.9419    0.0000 </r>
       <r>   58.1860    0.0000 </r>
       <r>   61.1756    0.0000 </r>
       <r>   62.4076    0.0000 </r>
       <r>   63.5215    0.0000 </r>
       <r>   63.8299    0.0000 </r>
       <r>   64.1438    0.0000 </r>
       <r>   64.8592    0.0000 </r>
       <r>   66.2431    0.0000 </r>
       <r>   68.7803    0.0000 </r>
       <r>   69.5385    0.0000 </r>
       <r>   72.9494    0.0000 </r>
       <r>   74.4463    0.0000 </r>
       <r>   76.5719    0.0000 </r>
      </set>
      <set comment="kpoint 21">
       <r>    3.3546    1.0000 </r>
       <r>    4.0431    1.0000 </r>
       <r>    4.5503    1.0000 </r>
       <r>    6.3615    1.0000 </r>
       <r>    7.5571    1.0000 </r>
       <r>    7.6851    1.0000 </r>
       <r>    7.8520    1.0000 </r>
       <r>   10.3844   -0.0000 </r>
       <r>   10.5056   -0.0000 </r>
       <r>   10.6084   -0.0000 </r>
       <r>   10.8775   -0.0000 </r>
       <r>   17.7906    0.0000 </r>
       <r>   20.9255    0.0000 </r>
       <r>   23.6948    0.0000 </r>
       <r>   28.6711    0.0000 </r>
       <r>   30.7353    0.0000 </r>
       <r>   32.1264    0.0000 </r>
       <r>   35.8526    0.0000 </r>
       <r>   39.6323    0.0000 </r>
       <r>   41.4607    0.0000 </r>
       <r>   44.8397    0.0000 </r>
       <r>   44.8449    0.0000 </r>
       <r>   47.3563    0.0000 </r>
       <r>   51.3203    0.0000 </r>
       <r>   56.6501    0.0000 </r>
       <r>   58.3606    0.0000 </r>
       <r>   60.1767    0.0000 </r>
       <r>   60.6227    0.0000 </r>
       <r>   62.1886    0.0000 </r>
       <r>   63.4825    0.0000 </r>
       <r>   64.0553    0.0000 </r>
       <r>   64.7900    0.0000 </r>
       <r>   65.9672    0.0000 </r>
       <r>   66.1995    0.0000 </r>
       <r>   66.8002    0.0000 </r>
       <r>   68.5689    0.0000 </r>
       <r>   73.3071    0.0000 </r>
       <r>   73.6299    0.0000 </r>
       <r>   74.2370    0.0000 </r>
       <r>   76.4567    0.0000 </r>
      </set>
      <set comment="kpoint 22">
       <r>    3.5056    1.0000 </r>
       <r>    3.6437    1.0000 </r>
       <r>    4.4179    1.0000 </r>
       <r>    6.4901    1.0000 </r>
       <r>    7.5005    1.0000 </r>
       <r>    7.8652    1.0000 </r>
       <r>    8.2051    1.0000 </r>
       <r>   10.7881   -0.0000 </r>
       <r>   11.0173   -0.0000 </r>
       <r>   11.2081   -0.0000 </r>
       <r>   12.5950   -0.0000 </r>
       <r>   16.6100    0.0000 </r>
       <r>   21.7383    0.0000 </r>
       <r>   23.6826    0.0000 </r>
       <r>   26.5490    0.0000 </r>
       <r>   29.5210    0.0000 </r>
       <r>   29.5452    0.0000 </r>
       <r>   35.1410    0.0000 </r>
       <r>   39.1672    0.0000 </r>
       <r>   40.5178    0.0000 </r>
       <r>   44.3899    0.0000 </r>
       <r>   46.4361    0.0000 </r>
       <r>   47.7535    0.0000 </r>
       <r>   52.4115    0.0000 </r>
       <r>   54.8025    0.0000 </r>
       <r>   60.0088    0.0000 </r>
       <r>   61.1101    0.0000 </r>
       <r>   62.5324    0.0000 </r>
       <r>   63.2121    0.0000 </r>
       <r>   64.2618    0.0000 </r>
       <r>   64.6463    0.0000 </r>
       <r>   65.0725    0.0000 </r>
       <r>   67.4893    0.0000 </r>
       <r>   68.2498    0.0000 </r>
       <r>   70.3423    0.0000 </r>
       <r>   71.0900    0.0000 </r>
       <r>   72.5569    0.0000 </r>
       <r>   73.6699    0.0000 </r>
       <r>   74.9844    0.0000 </r>
       <r>   75.3672    0.0000 </r>
      </set>
      <set comment="kpoint 23">
       <r>    0.6665    1.0000 </r>
       <r>    4.0711    1.0000 </r>
       <r>    6.4472    1.0000 </r>
       <r>    6.6701    1.0000 </r>
       <r>    7.5191    1.0000 </r>
       <r>    7.5762    1.0000 </r>
       <r>    8.1188    1.0000 </r>
       <r>    8.3659    1.0000 </r>
       <r>    8.6759    1.0000 </r>
       <r>    8.8745    1.0000 </r>
       <r>   10.6843   -0.0000 </r>
       <r>   13.5191   -0.0000 </r>
       <r>   20.3190    0.0000 </r>
       <r>   31.8142    0.0000 </r>
       <r>   33.8197    0.0000 </r>
       <r>   36.5828    0.0000 </r>
       <r>   37.1251    0.0000 </r>
       <r>   39.6039    0.0000 </r>
       <r>   40.1966    0.0000 </r>
       <r>   42.1051    0.0000 </r>
       <r>   45.0313    0.0000 </r>
       <r>   48.4255    0.0000 </r>
       <r>   48.5241    0.0000 </r>
       <r>   49.0773    0.0000 </r>
       <r>   49.4080    0.0000 </r>
       <r>   51.5876    0.0000 </r>
       <r>   51.6610    0.0000 </r>
       <r>   56.2159    0.0000 </r>
       <r>   58.9770    0.0000 </r>
       <r>   60.2497    0.0000 </r>
       <r>   60.8139    0.0000 </r>
       <r>   62.4666    0.0000 </r>
       <r>   63.2505    0.0000 </r>
       <r>   65.7155    0.0000 </r>
       <r>   66.7505    0.0000 </r>
       <r>   67.8197    0.0000 </r>
       <r>   68.6606    0.0000 </r>
       <r>   72.8652    0.0000 </r>
       <r>   74.2286    0.0000 </r>
       <r>   75.4949    0.0000 </r>
      </set>
      <set comment="kpoint 24">
       <r>    1.9351    1.0000 </r>
       <r>    4.6669    1.0000 </r>
       <r>    5.5656    1.0000 </r>
       <r>    6.0105    1.0000 </r>
       <r>    7.1582    1.0000 </r>
       <r>    7.6578    1.0000 </r>
       <r>    8.3238    1.0000 </r>
       <r>    8.4853    1.0000 </r>
       <r>    9.1860    1.0101 </r>
       <r>    9.5524    0.5783 </r>
       <r>   10.7252   -0.0000 </r>
       <r>   15.5192    0.0000 </r>
       <r>   20.6324    0.0000 </r>
       <r>   28.3266    0.0000 </r>
       <r>   31.1962    0.0000 </r>
       <r>   33.7580    0.0000 </r>
       <r>   36.1947    0.0000 </r>
       <r>   37.7837    0.0000 </r>
       <r>   41.1846    0.0000 </r>
       <r>   41.2595    0.0000 </r>
       <r>   43.5408    0.0000 </r>
       <r>   47.1905    0.0000 </r>
       <r>   49.1319    0.0000 </r>
       <r>   49.8892    0.0000 </r>
       <r>   52.1673    0.0000 </r>
       <r>   52.9100    0.0000 </r>
       <r>   54.9619    0.0000 </r>
       <r>   59.4910    0.0000 </r>
       <r>   60.8581    0.0000 </r>
       <r>   62.5469    0.0000 </r>
       <r>   62.8983    0.0000 </r>
       <r>   63.2973    0.0000 </r>
       <r>   63.7059    0.0000 </r>
       <r>   65.1966    0.0000 </r>
       <r>   66.5589    0.0000 </r>
       <r>   67.4668    0.0000 </r>
       <r>   68.7456    0.0000 </r>
       <r>   73.4876    0.0000 </r>
       <r>   74.9863    0.0000 </r>
       <r>   75.4806    0.0000 </r>
      </set>
      <set comment="kpoint 25">
       <r>    3.2466    1.0000 </r>
       <r>    4.4977    1.0000 </r>
       <r>    4.7565    1.0000 </r>
       <r>    6.0912    1.0000 </r>
       <r>    7.1478    1.0000 </r>
       <r>    7.5853    1.0000 </r>
       <r>    7.9983    1.0000 </r>
       <r>    9.2464    1.0220 </r>
       <r>   10.1579   -0.0001 </r>
       <r>   10.5589   -0.0000 </r>
       <r>   10.9409   -0.0000 </r>
       <r>   17.4737    0.0000 </r>
       <r>   21.1734    0.0000 </r>
       <r>   24.6602    0.0000 </r>
       <r>   29.2514    0.0000 </r>
       <r>   30.4431    0.0000 </r>
       <r>   34.4559    0.0000 </r>
       <r>   35.3019    0.0000 </r>
       <r>   40.8043    0.0000 </r>
       <r>   41.6242    0.0000 </r>
       <r>   42.8796    0.0000 </r>
       <r>   46.8959    0.0000 </r>
       <r>   49.0767    0.0000 </r>
       <r>   51.3049    0.0000 </r>
       <r>   54.3605    0.0000 </r>
       <r>   56.0292    0.0000 </r>
       <r>   58.6022    0.0000 </r>
       <r>   60.0126    0.0000 </r>
       <r>   61.6302    0.0000 </r>
       <r>   62.6302    0.0000 </r>
       <r>   64.0209    0.0000 </r>
       <r>   64.6419    0.0000 </r>
       <r>   65.4449    0.0000 </r>
       <r>   66.3811    0.0000 </r>
       <r>   67.0670    0.0000 </r>
       <r>   68.2114    0.0000 </r>
       <r>   71.9941    0.0000 </r>
       <r>   73.4234    0.0000 </r>
       <r>   74.5045    0.0000 </r>
       <r>   75.6371    0.0000 </r>
      </set>
      <set comment="kpoint 26">
       <r>    3.7023    1.0000 </r>
       <r>    4.0001    1.0000 </r>
       <r>    4.5596    1.0000 </r>
       <r>    6.3189    1.0000 </r>
       <r>    7.3557    1.0000 </r>
       <r>    7.7710    1.0000 </r>
       <r>    7.8519    1.0000 </r>
       <r>   10.3373   -0.0000 </r>
       <r>   10.6775   -0.0000 </r>
       <r>   10.8799   -0.0000 </r>
       <r>   12.3317   -0.0000 </r>
       <r>   17.9373    0.0000 </r>
       <r>   21.3062    0.0000 </r>
       <r>   23.7908    0.0000 </r>
       <r>   27.3072    0.0000 </r>
       <r>   28.0354    0.0000 </r>
       <r>   31.4338    0.0000 </r>
       <r>   34.1219    0.0000 </r>
       <r>   39.7116    0.0000 </r>
       <r>   41.2257    0.0000 </r>
       <r>   43.8485    0.0000 </r>
       <r>   47.1327    0.0000 </r>
       <r>   49.6891    0.0000 </r>
       <r>   51.9679    0.0000 </r>
       <r>   55.7687    0.0000 </r>
       <r>   57.5929    0.0000 </r>
       <r>   59.4372    0.0000 </r>
       <r>   62.0343    0.0000 </r>
       <r>   63.0900    0.0000 </r>
       <r>   63.5780    0.0000 </r>
       <r>   63.9479    0.0000 </r>
       <r>   64.8543    0.0000 </r>
       <r>   65.5699    0.0000 </r>
       <r>   68.1416    0.0000 </r>
       <r>   69.8170    0.0000 </r>
       <r>   71.0328    0.0000 </r>
       <r>   71.4572    0.0000 </r>
       <r>   74.1472    0.0000 </r>
       <r>   74.9193    0.0000 </r>
       <r>   76.9971    0.0000 </r>
      </set>
      <set comment="kpoint 27">
       <r>    3.6921    1.0000 </r>
       <r>    3.7731    1.0000 </r>
       <r>    4.5585    1.0000 </r>
       <r>    6.4443    1.0000 </r>
       <r>    7.2653    1.0000 </r>
       <r>    7.9750    1.0000 </r>
       <r>    8.0055    1.0000 </r>
       <r>   10.6679   -0.0000 </r>
       <r>   10.9794   -0.0000 </r>
       <r>   11.0127   -0.0000 </r>
       <r>   13.7095   -0.0000 </r>
       <r>   16.3878    0.0000 </r>
       <r>   22.6430    0.0000 </r>
       <r>   23.5956    0.0000 </r>
       <r>   26.6089    0.0000 </r>
       <r>   27.1067    0.0000 </r>
       <r>   29.7463    0.0000 </r>
       <r>   33.7356    0.0000 </r>
       <r>   39.2448    0.0000 </r>
       <r>   41.0732    0.0000 </r>
       <r>   44.2360    0.0000 </r>
       <r>   47.5391    0.0000 </r>
       <r>   49.4459    0.0000 </r>
       <r>   53.4821    0.0000 </r>
       <r>   54.2971    0.0000 </r>
       <r>   58.4498    0.0000 </r>
       <r>   60.5318    0.0000 </r>
       <r>   62.3095    0.0000 </r>
       <r>   63.2955    0.0000 </r>
       <r>   63.9719    0.0000 </r>
       <r>   64.9268    0.0000 </r>
       <r>   64.9513    0.0000 </r>
       <r>   66.6402    0.0000 </r>
       <r>   67.8913    0.0000 </r>
       <r>   71.1021    0.0000 </r>
       <r>   72.2386    0.0000 </r>
       <r>   72.8594    0.0000 </r>
       <r>   73.4846    0.0000 </r>
       <r>   75.3913    0.0000 </r>
       <r>   76.4758    0.0000 </r>
      </set>
      <set comment="kpoint 28">
       <r>    3.2580    1.0000 </r>
       <r>    4.8620    1.0000 </r>
       <r>    5.1994    1.0000 </r>
       <r>    5.4170    1.0000 </r>
       <r>    7.1342    1.0000 </r>
       <r>    7.3097    1.0000 </r>
       <r>    8.1685    1.0000 </r>
       <r>    8.6654    1.0000 </r>
       <r>   10.1549   -0.0001 </r>
       <r>   10.4722   -0.0000 </r>
       <r>   10.9931   -0.0000 </r>
       <r>   17.3347    0.0000 </r>
       <r>   21.3210    0.0000 </r>
       <r>   26.1209    0.0000 </r>
       <r>   27.3234    0.0000 </r>
       <r>   31.6914    0.0000 </r>
       <r>   33.8843    0.0000 </r>
       <r>   37.1907    0.0000 </r>
       <r>   38.1225    0.0000 </r>
       <r>   42.1315    0.0000 </r>
       <r>   44.6571    0.0000 </r>
       <r>   49.0665    0.0000 </r>
       <r>   50.1239    0.0000 </r>
       <r>   51.2940    0.0000 </r>
       <r>   51.5076    0.0000 </r>
       <r>   54.8880    0.0000 </r>
       <r>   55.9545    0.0000 </r>
       <r>   60.6202    0.0000 </r>
       <r>   61.4252    0.0000 </r>
       <r>   62.7000    0.0000 </r>
       <r>   63.8220    0.0000 </r>
       <r>   64.9923    0.0000 </r>
       <r>   65.0707    0.0000 </r>
       <r>   66.3631    0.0000 </r>
       <r>   67.2233    0.0000 </r>
       <r>   69.6312    0.0000 </r>
       <r>   70.0508    0.0000 </r>
       <r>   73.7498    0.0000 </r>
       <r>   73.9436    0.0000 </r>
       <r>   76.0174    0.0000 </r>
      </set>
      <set comment="kpoint 29">
       <r>    4.2066    1.0000 </r>
       <r>    4.5831    1.0000 </r>
       <r>    4.7906    1.0000 </r>
       <r>    5.7142    1.0000 </r>
       <r>    6.9308    1.0000 </r>
       <r>    7.5959    1.0000 </r>
       <r>    7.7998    1.0000 </r>
       <r>    9.3319    1.0353 </r>
       <r>   10.4565   -0.0000 </r>
       <r>   10.8525   -0.0000 </r>
       <r>   12.5256   -0.0000 </r>
       <r>   19.0003    0.0000 </r>
       <r>   21.9519    0.0000 </r>
       <r>   23.6120    0.0000 </r>
       <r>   25.4972    0.0000 </r>
       <r>   29.2307    0.0000 </r>
       <r>   32.0148    0.0000 </r>
       <r>   33.8122    0.0000 </r>
       <r>   36.8385    0.0000 </r>
       <r>   43.7537    0.0000 </r>
       <r>   45.5253    0.0000 </r>
       <r>   49.2361    0.0000 </r>
       <r>   51.3764    0.0000 </r>
       <r>   52.4622    0.0000 </r>
       <r>   53.9610    0.0000 </r>
       <r>   54.8980    0.0000 </r>
       <r>   58.1484    0.0000 </r>
       <r>   59.5743    0.0000 </r>
       <r>   61.6245    0.0000 </r>
       <r>   63.7534    0.0000 </r>
       <r>   64.1910    0.0000 </r>
       <r>   64.8562    0.0000 </r>
       <r>   65.5112    0.0000 </r>
       <r>   67.8100    0.0000 </r>
       <r>   69.4267    0.0000 </r>
       <r>   70.8284    0.0000 </r>
       <r>   72.0463    0.0000 </r>
       <r>   74.2619    0.0000 </r>
       <r>   75.9134    0.0000 </r>
       <r>   76.8624    0.0000 </r>
      </set>
      <set comment="kpoint 30">
       <r>    4.0418    1.0000 </r>
       <r>    4.4281    1.0000 </r>
       <r>    4.9190    1.0000 </r>
       <r>    6.1353    1.0000 </r>
       <r>    6.9536    1.0000 </r>
       <r>    7.3810    1.0000 </r>
       <r>    8.0858    1.0000 </r>
       <r>   10.1861   -0.0001 </r>
       <r>   10.4093   -0.0000 </r>
       <r>   10.9205   -0.0000 </r>
       <r>   14.3986   -0.0000 </r>
       <r>   17.9020    0.0000 </r>
       <r>   22.5577    0.0000 </r>
       <r>   24.1322    0.0000 </r>
       <r>   24.6563    0.0000 </r>
       <r>   27.2298    0.0000 </r>
       <r>   30.7565    0.0000 </r>
       <r>   31.2483    0.0000 </r>
       <r>   36.1768    0.0000 </r>
       <r>   44.6026    0.0000 </r>
       <r>   46.1969    0.0000 </r>
       <r>   48.5330    0.0000 </r>
       <r>   52.4369    0.0000 </r>
       <r>   53.1586    0.0000 </r>
       <r>   55.6601    0.0000 </r>
       <r>   56.4511    0.0000 </r>
       <r>   58.1184    0.0000 </r>
       <r>   60.0672    0.0000 </r>
       <r>   62.4159    0.0000 </r>
       <r>   62.7824    0.0000 </r>
       <r>   64.1425    0.0000 </r>
       <r>   65.2183    0.0000 </r>
       <r>   65.8469    0.0000 </r>
       <r>   66.8917    0.0000 </r>
       <r>   70.4561    0.0000 </r>
       <r>   72.0136    0.0000 </r>
       <r>   73.9898    0.0000 </r>
       <r>   74.3860    0.0000 </r>
       <r>   75.5270    0.0000 </r>
       <r>   77.7868    0.0000 </r>
      </set>
      <set comment="kpoint 31">
       <r>    4.2924    1.0000 </r>
       <r>    4.9998    1.0000 </r>
       <r>    5.3849    1.0000 </r>
       <r>    5.3929    1.0000 </r>
       <r>    6.7905    1.0000 </r>
       <r>    7.1940    1.0000 </r>
       <r>    8.0862    1.0000 </r>
       <r>    9.6897    0.0828 </r>
       <r>   10.2754   -0.0000 </r>
       <r>   10.9011   -0.0000 </r>
       <r>   14.5982   -0.0000 </r>
       <r>   19.9699    0.0000 </r>
       <r>   20.8852    0.0000 </r>
       <r>   23.1507    0.0000 </r>
       <r>   25.3289    0.0000 </r>
       <r>   28.4573    0.0000 </r>
       <r>   29.0889    0.0000 </r>
       <r>   32.5936    0.0000 </r>
       <r>   33.6078    0.0000 </r>
       <r>   45.6546    0.0000 </r>
       <r>   48.2849    0.0000 </r>
       <r>   51.1208    0.0000 </r>
       <r>   51.5319    0.0000 </r>
       <r>   53.3496    0.0000 </r>
       <r>   54.4246    0.0000 </r>
       <r>   55.9303    0.0000 </r>
       <r>   58.0177    0.0000 </r>
       <r>   59.5975    0.0000 </r>
       <r>   60.0179    0.0000 </r>
       <r>   62.0002    0.0000 </r>
       <r>   63.7570    0.0000 </r>
       <r>   65.4098    0.0000 </r>
       <r>   66.3246    0.0000 </r>
       <r>   66.7283    0.0000 </r>
       <r>   70.7389    0.0000 </r>
       <r>   71.9318    0.0000 </r>
       <r>   72.0318    0.0000 </r>
       <r>   74.9229    0.0000 </r>
       <r>   77.2353    0.0000 </r>
       <r>   77.2805    0.0000 </r>
      </set>
      <set comment="kpoint 32">
       <r>    4.2827    1.0000 </r>
       <r>    5.1055    1.0000 </r>
       <r>    5.2588    1.0000 </r>
       <r>    5.7728    1.0000 </r>
       <r>    6.7629    1.0000 </r>
       <r>    6.9495    1.0000 </r>
       <r>    8.2774    1.0000 </r>
       <r>   10.1528   -0.0002 </r>
       <r>   10.2029   -0.0000 </r>
       <r>   10.5392   -0.0000 </r>
       <r>   16.5329    0.0000 </r>
       <r>   18.1622    0.0000 </r>
       <r>   20.4185    0.0000 </r>
       <r>   24.9286    0.0000 </r>
       <r>   25.2362    0.0000 </r>
       <r>   27.5884    0.0000 </r>
       <r>   28.6004    0.0000 </r>
       <r>   30.8851    0.0000 </r>
       <r>   32.9617    0.0000 </r>
       <r>   46.5244    0.0000 </r>
       <r>   49.0380    0.0000 </r>
       <r>   51.0410    0.0000 </r>
       <r>   52.0148    0.0000 </r>
       <r>   54.2954    0.0000 </r>
       <r>   55.4665    0.0000 </r>
       <r>   56.4836    0.0000 </r>
       <r>   58.1903    0.0000 </r>
       <r>   58.8388    0.0000 </r>
       <r>   59.7234    0.0000 </r>
       <r>   61.8889    0.0000 </r>
       <r>   62.9300    0.0000 </r>
       <r>   63.8880    0.0000 </r>
       <r>   65.9457    0.0000 </r>
       <r>   66.7008    0.0000 </r>
       <r>   70.2546    0.0000 </r>
       <r>   72.0602    0.0000 </r>
       <r>   74.7712    0.0000 </r>
       <r>   75.3716    0.0000 </r>
       <r>   76.0694    0.0000 </r>
       <r>   77.1932    0.0000 </r>
      </set>
      <set comment="kpoint 33">
       <r>   -0.1386    1.0000 </r>
       <r>    3.2579    1.0000 </r>
       <r>    6.7922    1.0000 </r>
       <r>    7.3528    1.0000 </r>
       <r>    7.3528    1.0000 </r>
       <r>    7.8028    1.0000 </r>
       <r>    7.8028    1.0000 </r>
       <r>    8.3180    1.0000 </r>
       <r>    9.1784    1.0090 </r>
       <r>    9.1784    1.0090 </r>
       <r>   10.5554   -0.0000 </r>
       <r>   10.5554   -0.0000 </r>
       <r>   21.3279    0.0000 </r>
       <r>   33.4858    0.0000 </r>
       <r>   35.8364    0.0000 </r>
       <r>   37.3840    0.0000 </r>
       <r>   41.9794    0.0000 </r>
       <r>   41.9794    0.0000 </r>
       <r>   42.5512    0.0000 </r>
       <r>   42.5512    0.0000 </r>
       <r>   44.9097    0.0000 </r>
[...]
       <r>   26.8528    0.0000 </r>
       <r>   27.6948    0.0000 </r>
       <r>   32.9859    0.0000 </r>
       <r>   34.2763    0.0000 </r>
       <r>   39.3194    0.0000 </r>
       <r>   40.4500    0.0000 </r>
       <r>   42.5849    0.0000 </r>
       <r>   44.2636    0.0000 </r>
       <r>   49.6481    0.0000 </r>
       <r>   50.1412    0.0000 </r>
       <r>   59.4726    0.0000 </r>
       <r>   59.9856    0.0000 </r>
       <r>   61.3289    0.0000 </r>
       <r>   62.9199    0.0000 </r>
       <r>   63.1747    0.0000 </r>
       <r>   63.5661    0.0000 </r>
       <r>   65.0124    0.0000 </r>
       <r>   65.2964    0.0000 </r>
       <r>   67.5404    0.0000 </r>
       <r>   68.1240    0.0000 </r>
       <r>   70.3361    0.0000 </r>
       <r>   71.1309    0.0000 </r>
       <r>   72.9818    0.0000 </r>
       <r>   74.0643    0.0000 </r>
       <r>   74.7170    0.0000 </r>
       <r>   76.2726    0.0000 </r>
      </set>
      <set comment="kpoint 95">
       <r>    4.4428    1.0000 </r>
       <r>    4.5431    1.0000 </r>
       <r>    5.7629    1.0000 </r>
       <r>    6.0375    1.0000 </r>
       <r>    6.5980    1.0000 </r>
       <r>    6.8943    1.0000 </r>
       <r>    8.4191    1.0000 </r>
       <r>    8.6845    1.0000 </r>
       <r>   10.7170   -0.0000 </r>
       <r>   10.9579   -0.0000 </r>
       <r>   15.7251    0.0000 </r>
       <r>   16.3376    0.0000 </r>
       <r>   22.6986    0.0000 </r>
       <r>   23.2294    0.0000 </r>
       <r>   25.1408    0.0000 </r>
       <r>   25.6298    0.0000 </r>
       <r>   33.2534    0.0000 </r>
       <r>   35.1150    0.0000 </r>
       <r>   39.2531    0.0000 </r>
       <r>   40.9595    0.0000 </r>
       <r>   42.3685    0.0000 </r>
       <r>   43.7889    0.0000 </r>
       <r>   51.2776    0.0000 </r>
       <r>   51.7335    0.0000 </r>
       <r>   57.0838    0.0000 </r>
       <r>   57.1049    0.0000 </r>
       <r>   63.1604    0.0000 </r>
       <r>   63.6014    0.0000 </r>
       <r>   64.0510    0.0000 </r>
       <r>   64.5820    0.0000 </r>
       <r>   65.2198    0.0000 </r>
       <r>   65.3625    0.0000 </r>
       <r>   66.5933    0.0000 </r>
       <r>   67.8260    0.0000 </r>
       <r>   70.6631    0.0000 </r>
       <r>   71.2439    0.0000 </r>
       <r>   72.0573    0.0000 </r>
       <r>   72.1765    0.0000 </r>
       <r>   73.4429    0.0000 </r>
       <r>   75.9867    0.0000 </r>
      </set>
      <set comment="kpoint 96">
       <r>    4.6849    1.0000 </r>
       <r>    4.8713    1.0000 </r>
       <r>    5.6135    1.0000 </r>
       <r>    5.6901    1.0000 </r>
       <r>    6.6725    1.0000 </r>
       <r>    6.8187    1.0000 </r>
       <r>    8.5239    1.0000 </r>
       <r>    8.7241    1.0000 </r>
       <r>   10.6700   -0.0000 </r>
       <r>   10.7614   -0.0000 </r>
       <r>   17.7346    0.0000 </r>
       <r>   17.9061    0.0000 </r>
       <r>   20.9305    0.0000 </r>
       <r>   21.3712    0.0000 </r>
       <r>   24.4866    0.0000 </r>
       <r>   24.9466    0.0000 </r>
       <r>   34.8921    0.0000 </r>
       <r>   36.0736    0.0000 </r>
       <r>   38.5821    0.0000 </r>
       <r>   38.6521    0.0000 </r>
       <r>   42.2134    0.0000 </r>
       <r>   43.1642    0.0000 </r>
       <r>   52.7831    0.0000 </r>
       <r>   53.4864    0.0000 </r>
       <r>   57.4370    0.0000 </r>
       <r>   57.8536    0.0000 </r>
       <r>   61.7332    0.0000 </r>
       <r>   62.0628    0.0000 </r>
       <r>   64.8530    0.0000 </r>
       <r>   65.1456    0.0000 </r>
       <r>   65.3414    0.0000 </r>
       <r>   65.5818    0.0000 </r>
       <r>   66.9519    0.0000 </r>
       <r>   67.5624    0.0000 </r>
       <r>   69.5091    0.0000 </r>
       <r>   70.2951    0.0000 </r>
       <r>   73.1449    0.0000 </r>
       <r>   75.4496    0.0000 </r>
       <r>   75.5208    0.0000 </r>
       <r>   76.7687    0.0000 </r>
      </set>
     </set>
    </set>
   </array>
  </eigenvalues>
  <separator name="orbital magnetization" >
   <v name="MAGDIPOLOUT">      0.00000000      0.00000000      0.00000000</v>
  </separator>
  <dos>
   <i name="efermi">      9.57099659 </i>
   <total>
    <array>
     <dimension dim="1">gridpoints</dimension>
     <dimension dim="2">spin</dimension>
     <field>energy</field>
     <field>total</field>
     <field>integrated</field>
     <set>
      <set comment="spin 1">
       <r>    -4.4835     0.0000     0.0000 </r>
       <r>    -4.1941     0.0000     0.0000 </r>
       <r>    -3.9046     0.0000     0.0000 </r>
       <r>    -3.6151     0.0000     0.0000 </r>
       <r>    -3.3257     0.0000     0.0000 </r>
       <r>    -3.0362     0.0000     0.0000 </r>
       <r>    -2.7468     0.0000     0.0000 </r>
       <r>    -2.4573     0.0000     0.0000 </r>
       <r>    -2.1679    -0.0000    -0.0000 </r>
       <r>    -1.8784    -0.0000    -0.0000 </r>
       <r>    -1.5890    -0.0000    -0.0000 </r>
       <r>    -1.2995    -0.0000    -0.0000 </r>
       <r>    -1.0101    -0.0000    -0.0000 </r>
       <r>    -0.7206    -0.0004    -0.0001 </r>
       <r>    -0.4312     0.0084     0.0023 </r>
       <r>    -0.1417     0.0399     0.0138 </r>
       <r>     0.1477     0.0849     0.0384 </r>
       <r>     0.4372     0.0567     0.0548 </r>
       <r>     0.7267     0.1146     0.0880 </r>
       <r>     1.0161     0.1635     0.1353 </r>
       <r>     1.3056     0.1457     0.1775 </r>
       <r>     1.5950     0.1067     0.2084 </r>
       <r>     1.8845     0.1542     0.2530 </r>
       <r>     2.1739     0.3284     0.3480 </r>
       <r>     2.4634     0.2514     0.4208 </r>
       <r>     2.7528     0.3023     0.5083 </r>
       <r>     3.0423     0.2080     0.5685 </r>
       <r>     3.3317     1.3237     0.9517 </r>
       <r>     3.6212     1.8486     1.4867 </r>
       <r>     3.9106     1.8910     2.0341 </r>
       <r>     4.2001     2.4600     2.7462 </r>
       <r>     4.4895     2.2875     3.4083 </r>
       <r>     4.7790     2.1216     4.0224 </r>
       <r>     5.0684     1.7672     4.5339 </r>
       <r>     5.3579     2.6081     5.2888 </r>
       <r>     5.6474     2.3398     5.9661 </r>
       <r>     5.9368     2.4483     6.6747 </r>
       <r>     6.2263     2.1515     7.2975 </r>
       <r>     6.5157     1.4945     7.7301 </r>
       <r>     6.8052     2.1891     8.3637 </r>
       <r>     7.0946     2.9940     9.2303 </r>
       <r>     7.3841     2.9992    10.0984 </r>
       <r>     7.6735     3.0786    10.9896 </r>
       <r>     7.9630     3.0686    11.8778 </r>
       <r>     8.2524     3.5727    12.9119 </r>
       <r>     8.5419     2.6857    13.6893 </r>
       <r>     8.8313     2.1321    14.3064 </r>
       <r>     9.1208     2.0459    14.8986 </r>
       <r>     9.4102     2.5607    15.6398 </r>
       <r>     9.6997     2.0420    16.2309 </r>
       <r>     9.9892     1.5024    16.6658 </r>
       <r>    10.2786     2.9573    17.5218 </r>
       <r>    10.5681     3.7593    18.6099 </r>
       <r>    10.8575     3.9320    19.7480 </r>
       <r>    11.1470     3.8333    20.8576 </r>
       <r>    11.4364     1.1561    21.1922 </r>
       <r>    11.7259     0.2090    21.2528 </r>
       <r>    12.0153     0.0795    21.2758 </r>
       <r>    12.3048     0.8710    21.5279 </r>
       <r>    12.5942     0.6912    21.7279 </r>
       <r>    12.8837     0.4950    21.8712 </r>
       <r>    13.1731     0.2225    21.9356 </r>
       <r>    13.4626     0.6831    22.1333 </r>
       <r>    13.7520     0.3418    22.2323 </r>
       <r>    14.0415     0.2023    22.2908 </r>
       <r>    14.3310     0.2420    22.3608 </r>
       <r>    14.6204     0.8161    22.5971 </r>
       <r>    14.9099     0.4791    22.7357 </r>
       <r>    15.1993     0.3357    22.8329 </r>
       <r>    15.4888     0.1677    22.8815 </r>
       <r>    15.7782     0.4001    22.9973 </r>
       <r>    16.0677     0.3348    23.0942 </r>
       <r>    16.3571     0.4738    23.2313 </r>
       <r>    16.6466     0.2631    23.3075 </r>
       <r>    16.9360     0.2631    23.3836 </r>
       <r>    17.2255     0.2384    23.4526 </r>
       <r>    17.5149     0.3129    23.5432 </r>
       <r>    17.8044     0.3242    23.6370 </r>
       <r>    18.0938     0.5268    23.7895 </r>
       <r>    18.3833     0.2465    23.8608 </r>
       <r>    18.6727     0.0957    23.8885 </r>
       <r>    18.9622     0.0553    23.9045 </r>
       <r>    19.2517     0.1604    23.9510 </r>
       <r>    19.5411     0.0273    23.9589 </r>
       <r>    19.8306     0.1149    23.9921 </r>
       <r>    20.1200     0.2211    24.0561 </r>
       <r>    20.4095     0.3289    24.1513 </r>
       <r>    20.6989     0.3846    24.2627 </r>
       <r>    20.9884     0.3194    24.3551 </r>
       <r>    21.2778     0.3290    24.4504 </r>
       <r>    21.5673     0.6370    24.6348 </r>
       <r>    21.8567     0.9035    24.8963 </r>
       <r>    22.1462     0.7043    25.1001 </r>
       <r>    22.4356     0.5517    25.2598 </r>
       <r>    22.7251     0.3710    25.3672 </r>
       <r>    23.0145     0.7235    25.5766 </r>
       <r>    23.3040     0.5441    25.7341 </r>
       <r>    23.5935     0.8685    25.9855 </r>
       <r>    23.8829     0.5666    26.1495 </r>
       <r>    24.1724     0.5401    26.3058 </r>
       <r>    24.4618     0.6815    26.5031 </r>
       <r>    24.7513     0.7593    26.7229 </r>
       <r>    25.0407     0.5951    26.8952 </r>
       <r>    25.3302     0.6300    27.0775 </r>
       <r>    25.6196     0.6391    27.2625 </r>
       <r>    25.9091     0.6452    27.4492 </r>
       <r>    26.1985     0.6316    27.6321 </r>
       <r>    26.4880     0.3900    27.7450 </r>
       <r>    26.7774     0.5146    27.8939 </r>
       <r>    27.0669     0.5567    28.0551 </r>
       <r>    27.3563     0.6486    28.2428 </r>
       <r>    27.6458     0.6340    28.4264 </r>
       <r>    27.9353     0.5861    28.5960 </r>
       <r>    28.2247     0.5643    28.7593 </r>
       <r>    28.5142     1.0339    29.0586 </r>
       <r>    28.8036     0.9145    29.3233 </r>
       <r>    29.0931     0.3715    29.4309 </r>
       <r>    29.3825     1.0596    29.7376 </r>
       <r>    29.6720     0.8692    29.9892 </r>
       <r>    29.9614     0.5497    30.1483 </r>
       <r>    30.2509     0.8388    30.3911 </r>
       <r>    30.5403     0.8234    30.6294 </r>
       <r>    30.8298     0.6816    30.8267 </r>
       <r>    31.1192     0.9951    31.1147 </r>
       <r>    31.4087     1.2271    31.4699 </r>
       <r>    31.6981     0.5056    31.6162 </r>
       <r>    31.9876     0.9769    31.8990 </r>
       <r>    32.2770     0.8119    32.1340 </r>
       <r>    32.5665     0.5236    32.2856 </r>
       <r>    32.8560     0.7707    32.5087 </r>
       <r>    33.1454     1.0864    32.8231 </r>
       <r>    33.4349     0.9517    33.0986 </r>
       <r>    33.7243     0.6613    33.2900 </r>
       <r>    34.0138     0.9935    33.5776 </r>
       <r>    34.3032     0.9914    33.8645 </r>
       <r>    34.5927     0.7954    34.0948 </r>
       <r>    34.8821     0.4960    34.2384 </r>
       <r>    35.1716     0.4334    34.3638 </r>
       <r>    35.4610     0.7685    34.5862 </r>
       <r>    35.7505     0.6424    34.7722 </r>
       <r>    36.0399     0.9717    35.0534 </r>
       <r>    36.3294     0.6767    35.2493 </r>
       <r>    36.6188     0.5520    35.4091 </r>
       <r>    36.9083     0.7071    35.6137 </r>
       <r>    37.1978     0.6757    35.8093 </r>
       <r>    37.4872     0.6193    35.9886 </r>
       <r>    37.7767     0.2984    36.0749 </r>
       <r>    38.0661     0.4651    36.2096 </r>
       <r>    38.3556     0.3205    36.3023 </r>
       <r>    38.6450     0.7192    36.5105 </r>
       <r>    38.9345     0.7730    36.7342 </r>
       <r>    39.2239     0.7903    36.9630 </r>
       <r>    39.5134     1.0478    37.2663 </r>
       <r>    39.8028     1.0694    37.5758 </r>
       <r>    40.0923     0.5043    37.7218 </r>
       <r>    40.3817     0.7399    37.9360 </r>
       <r>    40.6712     0.4685    38.0716 </r>
       <r>    40.9606     1.0222    38.3674 </r>
       <r>    41.2501     1.1294    38.6944 </r>
       <r>    41.5395     0.8398    38.9374 </r>
       <r>    41.8290     0.7465    39.1535 </r>
       <r>    42.1185     0.7332    39.3657 </r>
       <r>    42.4079     0.6481    39.5534 </r>
       <r>    42.6974     0.6009    39.7273 </r>
       <r>    42.9868     0.7774    39.9523 </r>
       <r>    43.2763     0.7267    40.1626 </r>
       <r>    43.5657     0.8247    40.4013 </r>
       <r>    43.8552     1.1446    40.7326 </r>
       <r>    44.1446     0.5733    40.8986 </r>
       <r>    44.4341     0.5773    41.0657 </r>
       <r>    44.7235     0.7791    41.2912 </r>
       <r>    45.0130     0.6804    41.4881 </r>
       <r>    45.3024     1.0268    41.7853 </r>
       <r>    45.5919     0.6895    41.9849 </r>
       <r>    45.8813     0.9060    42.2472 </r>
       <r>    46.1708     0.7621    42.4678 </r>
       <r>    46.4603     0.6188    42.6469 </r>
       <r>    46.7497     0.8047    42.8798 </r>
       <r>    47.0392     0.9551    43.1563 </r>
       <r>    47.3286     1.1377    43.4856 </r>
       <r>    47.6181     0.4731    43.6225 </r>
       <r>    47.9075     0.7077    43.8274 </r>
       <r>    48.1970     0.4730    43.9643 </r>
       <r>    48.4864     0.7047    44.1683 </r>
       <r>    48.7759     0.7211    44.3770 </r>
       <r>    49.0653     0.5745    44.5433 </r>
       <r>    49.3548     1.1072    44.8637 </r>
       <r>    49.6442     1.1374    45.1930 </r>
       <r>    49.9337     1.2251    45.5476 </r>
       <r>    50.2231     1.2281    45.9030 </r>
       <r>    50.5126     0.7363    46.1162 </r>
       <r>    50.8021     0.6614    46.3076 </r>
       <r>    51.0915     1.1490    46.6402 </r>
       <r>    51.3810     1.0940    46.9569 </r>
       <r>    51.6704     0.8111    47.1916 </r>
       <r>    51.9599     1.0133    47.4850 </r>
       <r>    52.2493     1.0631    47.7927 </r>
       <r>    52.5388     1.0839    48.1064 </r>
       <r>    52.8282     0.8670    48.3574 </r>
       <r>    53.1177     1.1204    48.6817 </r>
       <r>    53.4071     0.6637    48.8738 </r>
       <r>    53.6966     0.5536    49.0340 </r>
       <r>    53.9860     0.5986    49.2073 </r>
       <r>    54.2755     1.0323    49.5061 </r>
       <r>    54.5649     0.6060    49.6815 </r>
       <r>    54.8544     0.5139    49.8302 </r>
       <r>    55.1438     0.9556    50.1068 </r>
       <r>    55.4333     0.6589    50.2976 </r>
       <r>    55.7228     1.0755    50.6089 </r>
       <r>    56.0122     1.1913    50.9537 </r>
       <r>    56.3017     0.9277    51.2222 </r>
       <r>    56.5911     0.9353    51.4930 </r>
       <r>    56.8806     1.1247    51.8185 </r>
       <r>    57.1700     1.1462    52.1503 </r>
       <r>    57.4595     0.9878    52.4362 </r>
       <r>    57.7489     0.6129    52.6136 </r>
       <r>    58.0384     0.7813    52.8398 </r>
       <r>    58.3278     1.0967    53.1572 </r>
       <r>    58.6173     1.1288    53.4839 </r>
       <r>    58.9067     1.2452    53.8443 </r>
       <r>    59.1962     1.3018    54.2212 </r>
       <r>    59.4856     1.0632    54.5289 </r>
       <r>    59.7751     1.3323    54.9145 </r>
       <r>    60.0646     1.1834    55.2571 </r>
       <r>    60.3540     1.1224    55.5820 </r>
       <r>    60.6435     1.3483    55.9723 </r>
       <r>    60.9329     1.3109    56.3517 </r>
       <r>    61.2224     0.9643    56.6308 </r>
       <r>    61.5118     1.2147    56.9824 </r>
       <r>    61.8013     1.4044    57.3889 </r>
       <r>    62.0907     1.4688    57.8141 </r>
       <r>    62.3802     1.6489    58.2914 </r>
       <r>    62.6696     1.7510    58.7982 </r>
       <r>    62.9591     1.5642    59.2510 </r>
       <r>    63.2485     1.5732    59.7063 </r>
       <r>    63.5380     1.9062    60.2581 </r>
       <r>    63.8274     1.9515    60.8230 </r>
       <r>    64.1169     2.6106    61.5786 </r>
       <r>    64.4064     2.6986    62.3597 </r>
       <r>    64.6958     1.9452    62.9228 </r>
       <r>    64.9853     2.8182    63.7385 </r>
       <r>    65.2747     3.0192    64.6124 </r>
       <r>    65.5642     2.2338    65.2590 </r>
       <r>    65.8536     1.9401    65.8206 </r>
       <r>    66.1431     1.7428    66.3250 </r>
       <r>    66.4325     1.5674    66.7787 </r>
       <r>    66.7220     1.5220    67.2193 </r>
       <r>    67.0114     1.4350    67.6346 </r>
       <r>    67.3009     1.0224    67.9306 </r>
       <r>    67.5903     1.4392    68.3472 </r>
       <r>    67.8798     1.6654    68.8292 </r>
       <r>    68.1692     1.3532    69.2209 </r>
       <r>    68.4587     1.1228    69.5459 </r>
       <r>    68.7481     0.9535    69.8219 </r>
       <r>    69.0376     1.5838    70.2804 </r>
       <r>    69.3271     0.8650    70.5307 </r>
       <r>    69.6165     1.1102    70.8521 </r>
       <r>    69.9060     1.2517    71.2144 </r>
       <r>    70.1954     1.0335    71.5136 </r>
       <r>    70.4849     1.3026    71.8906 </r>
       <r>    70.7743     1.3190    72.2724 </r>
       <r>    71.0638     1.0423    72.5741 </r>
       <r>    71.3532     1.2385    72.9326 </r>
       <r>    71.6427     1.0175    73.2271 </r>
       <r>    71.9321     1.3777    73.6259 </r>
       <r>    72.2216     1.8418    74.1590 </r>
       <r>    72.5110     1.4010    74.5645 </r>
       <r>    72.8005     1.0506    74.8686 </r>
       <r>    73.0899     0.9883    75.1547 </r>
       <r>    73.3794     0.8529    75.4016 </r>
       <r>    73.6689     1.2703    75.7693 </r>
       <r>    73.9583     1.2224    76.1231 </r>
       <r>    74.2478     1.3544    76.5151 </r>
       <r>    74.5372     1.2314    76.8716 </r>
       <r>    74.8267     1.0091    77.1637 </r>
       <r>    75.1161     0.8929    77.4221 </r>
       <r>    75.4056     0.7704    77.6451 </r>
       <r>    75.6950     1.2923    78.0192 </r>
       <r>    75.9845     1.2789    78.3893 </r>
       <r>    76.2739     1.1948    78.7352 </r>
       <r>    76.5634     0.9466    79.0092 </r>
       <r>    76.8528     0.8191    79.2463 </r>
       <r>    77.1423     1.0225    79.5422 </r>
       <r>    77.4317     0.5757    79.7089 </r>
       <r>    77.7212     0.3542    79.8114 </r>
       <r>    78.0106     0.5646    79.9748 </r>
       <r>    78.3001     0.0351    79.9850 </r>
       <r>    78.5896     0.0529    80.0003 </r>
       <r>    78.8790    -0.0008    80.0000 </r>
       <r>    79.1685    -0.0001    80.0000 </r>
       <r>    79.4579    -0.0000    80.0000 </r>
       <r>    79.7474    -0.0000    80.0000 </r>
       <r>    80.0368     0.0000    80.0000 </r>
       <r>    80.3263     0.0000    80.0000 </r>
       <r>    80.6157     0.0000    80.0000 </r>
       <r>    80.9052     0.0000    80.0000 </r>
       <r>    81.1946     0.0000    80.0000 </r>
       <r>    81.4841     0.0000    80.0000 </r>
       <r>    81.7735     0.0000    80.0000 </r>
       <r>    82.0630     0.0000    80.0000 </r>
       <r>    82.3524     0.0000    80.0000 </r>
      </set>
     </set>
    </array>
   </total>
  </dos>
 </calculation>
 <structure name="finalpos" >
  <crystal>
   <varray name="basis" >
    <v>       2.23680000       0.00000000       0.00000000 </v>
    <v>      -1.11840000       1.93712562       0.00000000 </v>
    <v>       0.00000000       0.00000000       3.79824000 </v>
   </varray>
   <i name="volume">     16.45763184 </i>
   <varray name="rec_basis" >
    <v>       0.44706724       0.25811439       0.00000000 </v>
    <v>       0.00000000       0.51622878       0.00000000 </v>
    <v>       0.00000000       0.00000000       0.26327983 </v>
   </varray>
  </crystal>
  <varray name="positions" >
   <v>       0.00000000       0.00000000       0.00000000 </v>
   <v>       0.33333333       0.66666667       0.50000000 </v>
  </varray>
 </structure>
</modeling>
