unknown system                          
   1.00000000000000     
     3.635000    0.000000    0.000000
     0.000000    3.635000    0.000000
     0.000000    0.000000    3.635000
   Cu
     4
Direct
  0.000000  0.000000  0.000000
  0.500000  0.500000  0.000000
  0.500000  0.000000  0.500000
  0.000000  0.500000  0.500000
 
   20   20   20
 0.44451895760E+03 0.39082514616E+03 0.26728052497E+03 0.14626860474E+03 0.73868726998E+02
 0.45476796941E+02 0.26466396766E+02 0.12750323947E+02 0.10341510987E+02 0.15453044909E+02
 0.18769816995E+02 0.15453044909E+02 0.10341510987E+02 0.12750323947E+02 0.26466396766E+02
 0.45476796941E+02 0.73868726998E+02 0.14626860474E+03 0.26728052497E+03 0.39082514616E+03
 0.39082514616E+03 0.34333094433E+03 0.23511045947E+03 0.13087039360E+03 0.69346977062E+02
 0.43929440667E+02 0.25130038807E+02 0.12013741365E+02 0.91672321340E+01 0.12903997661E+02
 0.15453044909E+02 0.12903997661E+02 0.91672321340E+01 0.12013741365E+02 0.25130038807E+02
 0.43929440667E+02 0.69346977062E+02 0.13087039360E+03 0.23511045947E+03 0.34333094433E+03
 0.26728052497E+03 0.23511045947E+03 0.16367930149E+03 0.97705779824E+02 0.59193724647E+02
 0.38754595471E+02 0.21234040607E+02 0.10461514609E+02 0.76562815575E+01 0.91672321340E+01
 0.10341510987E+02 0.91672321340E+01 0.76562815575E+01 0.10461514609E+02 0.21234040607E+02
 0.38754595471E+02 0.59193724647E+02 0.97705779824E+02 0.16367930149E+03 0.23511045947E+03
 0.14626860474E+03 0.13087039360E+03 0.97705779824E+02 0.67803802253E+02 0.47488539957E+02
 0.29868389870E+02 0.16378134467E+02 0.10590958705E+02 0.10461514609E+02 0.12013741365E+02
 0.12750323947E+02 0.12013741365E+02 0.10461514609E+02 0.10590958705E+02 0.16378134467E+02
 0.29868389870E+02 0.47488539957E+02 0.67803802253E+02 0.97705779824E+02 0.13087039360E+03
 0.73868726998E+02 0.69346977062E+02 0.59193724647E+02 0.47488539957E+02 0.33517157026E+02
 0.20659321722E+02 0.14786225767E+02 0.16378134467E+02 0.21234040607E+02 0.25130038807E+02
 0.26466396766E+02 0.25130038807E+02 0.21234040607E+02 0.16378134467E+02 0.14786225767E+02
 0.20659321722E+02 0.33517157026E+02 0.47488539957E+02 0.59193724647E+02 0.69346977062E+02
 0.45476796941E+02 0.43929440667E+02 0.38754595471E+02 0.29868389870E+02 0.20659321722E+02
 0.16664918875E+02 0.20659321722E+02 0.29868389870E+02 0.38754595471E+02 0.43929440667E+02
 0.45476796941E+02 0.43929440667E+02 0.38754595471E+02 0.29868389870E+02 0.20659321722E+02
 0.16664918875E+02 0.20659321722E+02 0.29868389870E+02 0.38754595471E+02 0.43929440667E+02
 0.26466396766E+02 0.25130038807E+02 0.21234040607E+02 0.16378134467E+02 0.14786225767E+02
 0.20659321722E+02 0.33517157026E+02 0.47488539957E+02 0.59193724647E+02 0.69346977062E+02
 0.73868726998E+02 0.69346977062E+02 0.59193724647E+02 0.47488539957E+02 0.33517157026E+02
 0.20659321722E+02 0.14786225767E+02 0.16378134467E+02 0.21234040607E+02 0.25130038807E+02
 0.12750323947E+02 0.12013741365E+02 0.10461514609E+02 0.10590958705E+02 0.16378134467E+02
 0.29868389870E+02 0.47488539957E+02 0.67803802253E+02 0.97705779824E+02 0.13087039360E+03
 0.14626860474E+03 0.13087039360E+03 0.97705779824E+02 0.67803802253E+02 0.47488539957E+02
 0.29868389870E+02 0.16378134467E+02 0.10590958705E+02 0.10461514609E+02 0.12013741365E+02
 0.10341510987E+02 0.91672321340E+01 0.76562815575E+01 0.10461514609E+02 0.21234040607E+02
 0.38754595471E+02 0.59193724647E+02 0.97705779824E+02 0.16367930149E+03 0.23511045947E+03
 0.26728052497E+03 0.23511045947E+03 0.16367930149E+03 0.97705779824E+02 0.59193724647E+02
 0.38754595471E+02 0.21234040607E+02 0.10461514609E+02 0.76562815575E+01 0.91672321340E+01
 0.15453044909E+02 0.12903997661E+02 0.91672321340E+01 0.12013741365E+02 0.25130038807E+02
 0.43929440667E+02 0.69346977062E+02 0.13087039360E+03 0.23511045947E+03 0.34333094433E+03
 0.39082514616E+03 0.34333094433E+03 0.23511045947E+03 0.13087039360E+03 0.69346977062E+02
 0.43929440667E+02 0.25130038807E+02 0.12013741365E+02 0.91672321340E+01 0.12903997661E+02
 0.18769816995E+02 0.15453044909E+02 0.10341510987E+02 0.12750323947E+02 0.26466396766E+02
 0.45476796941E+02 0.73868726998E+02 0.14626860474E+03 0.26728052497E+03 0.39082514616E+03
 0.44451895760E+03 0.39082514616E+03 0.26728052497E+03 0.14626860474E+03 0.73868726998E+02
 0.45476796941E+02 0.26466396766E+02 0.12750323947E+02 0.10341510987E+02 0.15453044909E+02
 0.15453044909E+02 0.12903997661E+02 0.91672321340E+01 0.12013741365E+02 0.25130038807E+02
 0.43929440667E+02 0.69346977062E+02 0.13087039360E+03 0.23511045947E+03 0.34333094433E+03
 0.39082514616E+03 0.34333094433E+03 0.23511045947E+03 0.13087039360E+03 0.69346977062E+02
 0.43929440667E+02 0.25130038807E+02 0.12013741365E+02 0.91672321340E+01 0.12903997661E+02
 0.10341510987E+02 0.91672321340E+01 0.76562815575E+01 0.10461514609E+02 0.21234040607E+02
 0.38754595471E+02 0.59193724647E+02 0.97705779824E+02 0.16367930149E+03 0.23511045947E+03
 0.26728052497E+03 0.23511045947E+03 0.16367930149E+03 0.97705779824E+02 0.59193724647E+02
 0.38754595471E+02 0.21234040607E+02 0.10461514609E+02 0.76562815575E+01 0.91672321340E+01
 0.12750323947E+02 0.12013741365E+02 0.10461514609E+02 0.10590958705E+02 0.16378134467E+02
 0.29868389870E+02 0.47488539957E+02 0.67803802253E+02 0.97705779824E+02 0.13087039360E+03
 0.14626860474E+03 0.13087039360E+03 0.97705779824E+02 0.67803802253E+02 0.47488539957E+02
 0.29868389870E+02 0.16378134467E+02 0.10590958705E+02 0.10461514609E+02 0.12013741365E+02
 0.26466396766E+02 0.25130038807E+02 0.21234040607E+02 0.16378134467E+02 0.14786225767E+02
 0.20659321722E+02 0.33517157026E+02 0.47488539957E+02 0.59193724647E+02 0.69346977062E+02
 0.73868726998E+02 0.69346977062E+02 0.59193724647E+02 0.47488539957E+02 0.33517157026E+02
 0.20659321722E+02 0.14786225767E+02 0.16378134467E+02 0.21234040607E+02 0.25130038807E+02
 0.45476796941E+02 0.43929440667E+02 0.38754595471E+02 0.29868389870E+02 0.20659321722E+02
 0.16664918875E+02 0.20659321722E+02 0.29868389870E+02 0.38754595471E+02 0.43929440667E+02
 0.45476796941E+02 0.43929440667E+02 0.38754595471E+02 0.29868389870E+02 0.20659321722E+02
 0.16664918875E+02 0.20659321722E+02 0.29868389870E+02 0.38754595471E+02 0.43929440667E+02
 0.73868726998E+02 0.69346977062E+02 0.59193724647E+02 0.47488539957E+02 0.33517157026E+02
 0.20659321722E+02 0.14786225767E+02 0.16378134467E+02 0.21234040607E+02 0.25130038807E+02
 0.26466396766E+02 0.25130038807E+02 0.21234040607E+02 0.16378134467E+02 0.14786225767E+02
 0.20659321722E+02 0.33517157026E+02 0.47488539957E+02 0.59193724647E+02 0.69346977062E+02
 0.14626860474E+03 0.13087039360E+03 0.97705779824E+02 0.67803802253E+02 0.47488539957E+02
 0.29868389870E+02 0.16378134467E+02 0.10590958705E+02 0.10461514609E+02 0.12013741365E+02
 0.12750323947E+02 0.12013741365E+02 0.10461514609E+02 0.10590958705E+02 0.16378134467E+02
 0.29868389870E+02 0.47488539957E+02 0.67803802253E+02 0.97705779824E+02 0.13087039360E+03
 0.26728052497E+03 0.23511045947E+03 0.16367930149E+03 0.97705779824E+02 0.59193724647E+02
 0.38754595471E+02 0.21234040607E+02 0.10461514609E+02 0.76562815575E+01 0.91672321340E+01
 0.10341510987E+02 0.91672321340E+01 0.76562815575E+01 0.10461514609E+02 0.21234040607E+02
 0.38754595471E+02 0.59193724647E+02 0.97705779824E+02 0.16367930149E+03 0.23511045947E+03
 0.39082514616E+03 0.34333094433E+03 0.23511045947E+03 0.13087039360E+03 0.69346977062E+02
 0.43929440667E+02 0.25130038807E+02 0.12013741365E+02 0.91672321340E+01 0.12903997661E+02
 0.15453044909E+02 0.12903997661E+02 0.91672321340E+01 0.12013741365E+02 0.25130038807E+02
 0.43929440667E+02 0.69346977062E+02 0.13087039360E+03 0.23511045947E+03 0.34333094433E+03
 0.39082514616E+03 0.34333094433E+03 0.23511045947E+03 0.13087039360E+03 0.69346977062E+02
 0.43929440667E+02 0.25130038807E+02 0.12013741365E+02 0.91672321340E+01 0.12903997661E+02
 0.15453044909E+02 0.12903997661E+02 0.91672321340E+01 0.12013741365E+02 0.25130038807E+02
 0.43929440667E+02 0.69346977062E+02 0.13087039360E+03 0.23511045947E+03 0.34333094433E+03
 0.34333094433E+03 0.30157522574E+03 0.20723650885E+03 0.11767068074E+03 0.65308511786E+02
 0.42298374877E+02 0.24071079120E+02 0.11769834987E+02 0.86059398800E+01 0.11072829079E+02
 0.12903997661E+02 0.11072829079E+02 0.86059398800E+01 0.11769834987E+02 0.24071079120E+02
 0.42298374877E+02 0.65308511786E+02 0.11767068074E+03 0.20723650885E+03 0.30157522574E+03
 0.23511045947E+03 0.20723650885E+03 0.14565140072E+03 0.89158926854E+02 0.55956563290E+02
 0.36920881911E+02 0.20764644666E+02 0.11136326336E+02 0.81729340462E+01 0.86059398800E+01
 0.91672321340E+01 0.86059398800E+01 0.81729340462E+01 0.11136326336E+02 0.20764644666E+02
 0.36920881911E+02 0.55956563290E+02 0.89158926854E+02 0.14565140072E+03 0.20723650885E+03
 0.13087039360E+03 0.11767068074E+03 0.89158926854E+02 0.63096040932E+02 0.44532237388E+02
 0.28029314416E+02 0.16239270986E+02 0.11488679316E+02 0.11136326336E+02 0.11769834987E+02
 0.12013741365E+02 0.11769834987E+02 0.11136326336E+02 0.11488679316E+02 0.16239270986E+02
 0.28029314416E+02 0.44532237388E+02 0.63096040932E+02 0.89158926854E+02 0.11767068074E+03
 0.69346977062E+02 0.65308511786E+02 0.55956563290E+02 0.44532237388E+02 0.30807374324E+02
 0.19019948968E+02 0.14237048540E+02 0.16239270986E+02 0.20764644666E+02 0.24071079120E+02
 0.25130038807E+02 0.24071079120E+02 0.20764644666E+02 0.16239270986E+02 0.14237048540E+02
 0.19019948968E+02 0.30807374324E+02 0.44532237388E+02 0.55956563290E+02 0.65308511786E+02
 0.43929440667E+02 0.42298374877E+02 0.36920881911E+02 0.28029314416E+02 0.19019948968E+02
 0.15149993213E+02 0.19019948968E+02 0.28029314416E+02 0.36920881911E+02 0.42298374877E+02
 0.43929440667E+02 0.42298374877E+02 0.36920881911E+02 0.28029314416E+02 0.19019948968E+02
 0.15149993213E+02 0.19019948968E+02 0.28029314416E+02 0.36920881911E+02 0.42298374877E+02
 0.25130038807E+02 0.24071079120E+02 0.20764644666E+02 0.16239270986E+02 0.14237048540E+02
 0.19019948968E+02 0.30807374324E+02 0.44532237388E+02 0.55956563290E+02 0.65308511786E+02
 0.69346977062E+02 0.65308511786E+02 0.55956563290E+02 0.44532237388E+02 0.30807374324E+02
 0.19019948968E+02 0.14237048540E+02 0.16239270986E+02 0.20764644666E+02 0.24071079120E+02
 0.12013741365E+02 0.11769834987E+02 0.11136326336E+02 0.11488679316E+02 0.16239270986E+02
 0.28029314416E+02 0.44532237388E+02 0.63096040932E+02 0.89158926854E+02 0.11767068074E+03
 0.13087039360E+03 0.11767068074E+03 0.89158926854E+02 0.63096040932E+02 0.44532237388E+02
 0.28029314416E+02 0.16239270986E+02 0.11488679316E+02 0.11136326336E+02 0.11769834987E+02
 0.91672321340E+01 0.86059398800E+01 0.81729340462E+01 0.11136326336E+02 0.20764644666E+02
 0.36920881911E+02 0.55956563290E+02 0.89158926854E+02 0.14565140072E+03 0.20723650885E+03
 0.23511045947E+03 0.20723650885E+03 0.14565140072E+03 0.89158926854E+02 0.55956563290E+02
 0.36920881911E+02 0.20764644666E+02 0.11136326336E+02 0.81729340462E+01 0.86059398800E+01
 0.12903997661E+02 0.11072829079E+02 0.86059398800E+01 0.11769834987E+02 0.24071079120E+02
 0.42298374877E+02 0.65308511786E+02 0.11767068074E+03 0.20723650885E+03 0.30157522574E+03
 0.34333094433E+03 0.30157522574E+03 0.20723650885E+03 0.11767068074E+03 0.65308511786E+02
 0.42298374877E+02 0.24071079120E+02 0.11769834987E+02 0.86059398800E+01 0.11072829079E+02
 0.15453044909E+02 0.12903997661E+02 0.91672321340E+01 0.12013741365E+02 0.25130038807E+02
 0.43929440667E+02 0.69346977062E+02 0.13087039360E+03 0.23511045947E+03 0.34333094433E+03
 0.39082514616E+03 0.34333094433E+03 0.23511045947E+03 0.13087039360E+03 0.69346977062E+02
 0.43929440667E+02 0.25130038807E+02 0.12013741365E+02 0.91672321340E+01 0.12903997661E+02
 0.12903997661E+02 0.11072829079E+02 0.86059398800E+01 0.11769834987E+02 0.24071079120E+02
 0.42298374877E+02 0.65308511786E+02 0.11767068074E+03 0.20723650885E+03 0.30157522574E+03
 0.34333094433E+03 0.30157522574E+03 0.20723650885E+03 0.11767068074E+03 0.65308511786E+02
 0.42298374877E+02 0.24071079120E+02 0.11769834987E+02 0.86059398800E+01 0.11072829079E+02
 0.91672321340E+01 0.86059398800E+01 0.81729340462E+01 0.11136326336E+02 0.20764644666E+02
 0.36920881911E+02 0.55956563290E+02 0.89158926854E+02 0.14565140072E+03 0.20723650885E+03
 0.23511045947E+03 0.20723650885E+03 0.14565140072E+03 0.89158926854E+02 0.55956563290E+02
 0.36920881911E+02 0.20764644666E+02 0.11136326336E+02 0.81729340462E+01 0.86059398800E+01
 0.12013741365E+02 0.11769834987E+02 0.11136326336E+02 0.11488679316E+02 0.16239270986E+02
 0.28029314416E+02 0.44532237388E+02 0.63096040932E+02 0.89158926854E+02 0.11767068074E+03
 0.13087039360E+03 0.11767068074E+03 0.89158926854E+02 0.63096040932E+02 0.44532237388E+02
 0.28029314416E+02 0.16239270986E+02 0.11488679316E+02 0.11136326336E+02 0.11769834987E+02
 0.25130038807E+02 0.24071079120E+02 0.20764644666E+02 0.16239270986E+02 0.14237048540E+02
 0.19019948968E+02 0.30807374324E+02 0.44532237388E+02 0.55956563290E+02 0.65308511786E+02
 0.69346977062E+02 0.65308511786E+02 0.55956563290E+02 0.44532237388E+02 0.30807374324E+02
 0.19019948968E+02 0.14237048540E+02 0.16239270986E+02 0.20764644666E+02 0.24071079120E+02
 0.43929440667E+02 0.42298374877E+02 0.36920881911E+02 0.28029314416E+02 0.19019948968E+02
 0.15149993213E+02 0.19019948968E+02 0.28029314416E+02 0.36920881911E+02 0.42298374877E+02
 0.43929440667E+02 0.42298374877E+02 0.36920881911E+02 0.28029314416E+02 0.19019948968E+02
 0.15149993213E+02 0.19019948968E+02 0.28029314416E+02 0.36920881911E+02 0.42298374877E+02
 0.69346977062E+02 0.65308511786E+02 0.55956563290E+02 0.44532237388E+02 0.30807374324E+02
 0.19019948968E+02 0.14237048540E+02 0.16239270986E+02 0.20764644666E+02 0.24071079120E+02
 0.25130038807E+02 0.24071079120E+02 0.20764644666E+02 0.16239270986E+02 0.14237048540E+02
 0.19019948968E+02 0.30807374324E+02 0.44532237388E+02 0.55956563290E+02 0.65308511786E+02
 0.13087039360E+03 0.11767068074E+03 0.89158926854E+02 0.63096040932E+02 0.44532237388E+02
 0.28029314416E+02 0.16239270986E+02 0.11488679316E+02 0.11136326336E+02 0.11769834987E+02
 0.12013741365E+02 0.11769834987E+02 0.11136326336E+02 0.11488679316E+02 0.16239270986E+02
 0.28029314416E+02 0.44532237388E+02 0.63096040932E+02 0.89158926854E+02 0.11767068074E+03
 0.23511045947E+03 0.20723650885E+03 0.14565140072E+03 0.89158926854E+02 0.55956563290E+02
 0.36920881911E+02 0.20764644666E+02 0.11136326336E+02 0.81729340462E+01 0.86059398800E+01
 0.91672321340E+01 0.86059398800E+01 0.81729340462E+01 0.11136326336E+02 0.20764644666E+02
 0.36920881911E+02 0.55956563290E+02 0.89158926854E+02 0.14565140072E+03 0.20723650885E+03
 0.34333094433E+03 0.30157522574E+03 0.20723650885E+03 0.11767068074E+03 0.65308511786E+02
 0.42298374877E+02 0.24071079120E+02 0.11769834987E+02 0.86059398800E+01 0.11072829079E+02
 0.12903997661E+02 0.11072829079E+02 0.86059398800E+01 0.11769834987E+02 0.24071079120E+02
 0.42298374877E+02 0.65308511786E+02 0.11767068074E+03 0.20723650885E+03 0.30157522574E+03
 0.26728052497E+03 0.23511045947E+03 0.16367930149E+03 0.97705779824E+02 0.59193724647E+02
 0.38754595471E+02 0.21234040607E+02 0.10461514609E+02 0.76562815575E+01 0.91672321340E+01
 0.10341510987E+02 0.91672321340E+01 0.76562815575E+01 0.10461514609E+02 0.21234040607E+02
 0.38754595471E+02 0.59193724647E+02 0.97705779824E+02 0.16367930149E+03 0.23511045947E+03
 0.23511045947E+03 0.20723650885E+03 0.14565140072E+03 0.89158926854E+02 0.55956563290E+02
 0.36920881911E+02 0.20764644666E+02 0.11136326336E+02 0.81729340462E+01 0.86059398800E+01
 0.91672321340E+01 0.86059398800E+01 0.81729340462E+01 0.11136326336E+02 0.20764644666E+02
 0.36920881911E+02 0.55956563290E+02 0.89158926854E+02 0.14565140072E+03 0.20723650885E+03
 0.16367930149E+03 0.14565140072E+03 0.10625727575E+03 0.70395929996E+02 0.47887026669E+02
 0.31480295647E+02 0.18892481025E+02 0.12254503545E+02 0.95123577962E+01 0.81729340462E+01
 0.76562815575E+01 0.81729340462E+01 0.95123577962E+01 0.12254503545E+02 0.18892481025E+02
 0.31480295647E+02 0.47887026669E+02 0.70395929996E+02 0.10625727575E+03 0.14565140072E+03
 0.97705779824E+02 0.89158926854E+02 0.70395929996E+02 0.52179544815E+02 0.36903207892E+02
 0.23475637523E+02 0.15631644091E+02 0.13058557153E+02 0.12254503545E+02 0.11136326336E+02
 0.10461514609E+02 0.11136326336E+02 0.12254503545E+02 0.13058557153E+02 0.15631644091E+02
 0.23475637523E+02 0.36903207892E+02 0.52179544815E+02 0.70395929996E+02 0.89158926854E+02
 0.59193724647E+02 0.55956563290E+02 0.47887026669E+02 0.36903207892E+02 0.24732342377E+02
 0.15964414907E+02 0.13406872557E+02 0.15631644091E+02 0.18892481025E+02 0.20764644666E+02
 0.21234040607E+02 0.20764644666E+02 0.18892481025E+02 0.15631644091E+02 0.13406872557E+02
 0.15964414907E+02 0.24732342377E+02 0.36903207892E+02 0.47887026669E+02 0.55956563290E+02
 0.38754595471E+02 0.36920881911E+02 0.31480295647E+02 0.23475637523E+02 0.15964414907E+02
 0.12850977711E+02 0.15964414907E+02 0.23475637523E+02 0.31480295647E+02 0.36920881911E+02
 0.38754595471E+02 0.36920881911E+02 0.31480295647E+02 0.23475637523E+02 0.15964414907E+02
 0.12850977711E+02 0.15964414907E+02 0.23475637523E+02 0.31480295647E+02 0.36920881911E+02
 0.21234040607E+02 0.20764644666E+02 0.18892481025E+02 0.15631644091E+02 0.13406872557E+02
 0.15964414907E+02 0.24732342377E+02 0.36903207892E+02 0.47887026669E+02 0.55956563290E+02
 0.59193724647E+02 0.55956563290E+02 0.47887026669E+02 0.36903207892E+02 0.24732342377E+02
 0.15964414907E+02 0.13406872557E+02 0.15631644091E+02 0.18892481025E+02 0.20764644666E+02
 0.10461514609E+02 0.11136326336E+02 0.12254503545E+02 0.13058557153E+02 0.15631644091E+02
 0.23475637523E+02 0.36903207892E+02 0.52179544815E+02 0.70395929996E+02 0.89158926854E+02
 0.97705779824E+02 0.89158926854E+02 0.70395929996E+02 0.52179544815E+02 0.36903207892E+02
 0.23475637523E+02 0.15631644091E+02 0.13058557153E+02 0.12254503545E+02 0.11136326336E+02
 0.76562815575E+01 0.81729340462E+01 0.95123577962E+01 0.12254503545E+02 0.18892481025E+02
 0.31480295647E+02 0.47887026669E+02 0.70395929996E+02 0.10625727575E+03 0.14565140072E+03
 0.16367930149E+03 0.14565140072E+03 0.10625727575E+03 0.70395929996E+02 0.47887026669E+02
 0.31480295647E+02 0.18892481025E+02 0.12254503545E+02 0.95123577962E+01 0.81729340462E+01
 0.91672321340E+01 0.86059398800E+01 0.81729340462E+01 0.11136326336E+02 0.20764644666E+02
 0.36920881911E+02 0.55956563290E+02 0.89158926854E+02 0.14565140072E+03 0.20723650885E+03
 0.23511045947E+03 0.20723650885E+03 0.14565140072E+03 0.89158926854E+02 0.55956563290E+02
 0.36920881911E+02 0.20764644666E+02 0.11136326336E+02 0.81729340462E+01 0.86059398800E+01
 0.10341510987E+02 0.91672321340E+01 0.76562815575E+01 0.10461514609E+02 0.21234040607E+02
 0.38754595471E+02 0.59193724647E+02 0.97705779824E+02 0.16367930149E+03 0.23511045947E+03
 0.26728052497E+03 0.23511045947E+03 0.16367930149E+03 0.97705779824E+02 0.59193724647E+02
 0.38754595471E+02 0.21234040607E+02 0.10461514609E+02 0.76562815575E+01 0.91672321340E+01
 0.91672321340E+01 0.86059398800E+01 0.81729340462E+01 0.11136326336E+02 0.20764644666E+02
 0.36920881911E+02 0.55956563290E+02 0.89158926854E+02 0.14565140072E+03 0.20723650885E+03
 0.23511045947E+03 0.20723650885E+03 0.14565140072E+03 0.89158926854E+02 0.55956563290E+02
 0.36920881911E+02 0.20764644666E+02 0.11136326336E+02 0.81729340462E+01 0.86059398800E+01
 0.76562815575E+01 0.81729340462E+01 0.95123577962E+01 0.12254503545E+02 0.18892481025E+02
 0.31480295647E+02 0.47887026669E+02 0.70395929996E+02 0.10625727575E+03 0.14565140072E+03
 0.16367930149E+03 0.14565140072E+03 0.10625727575E+03 0.70395929996E+02 0.47887026669E+02
 0.31480295647E+02 0.18892481025E+02 0.12254503545E+02 0.95123577962E+01 0.81729340462E+01
 0.10461514609E+02 0.11136326336E+02 0.12254503545E+02 0.13058557153E+02 0.15631644091E+02
 0.23475637523E+02 0.36903207892E+02 0.52179544815E+02 0.70395929996E+02 0.89158926854E+02
 0.97705779824E+02 0.89158926854E+02 0.70395929996E+02 0.52179544815E+02 0.36903207892E+02
 0.23475637523E+02 0.15631644091E+02 0.13058557153E+02 0.12254503545E+02 0.11136326336E+02
 0.21234040607E+02 0.20764644666E+02 0.18892481025E+02 0.15631644091E+02 0.13406872557E+02
 0.15964414907E+02 0.24732342377E+02 0.36903207892E+02 0.47887026669E+02 0.55956563290E+02
 0.59193724647E+02 0.55956563290E+02 0.47887026669E+02 0.36903207892E+02 0.24732342377E+02
 0.15964414907E+02 0.13406872557E+02 0.15631644091E+02 0.18892481025E+02 0.20764644666E+02
 0.38754595471E+02 0.36920881911E+02 0.31480295647E+02 0.23475637523E+02 0.15964414907E+02
 0.12850977711E+02 0.15964414907E+02 0.23475637523E+02 0.31480295647E+02 0.36920881911E+02
 0.38754595471E+02 0.36920881911E+02 0.31480295647E+02 0.23475637523E+02 0.15964414907E+02
 0.12850977711E+02 0.15964414907E+02 0.23475637523E+02 0.31480295647E+02 0.36920881911E+02
 0.59193724647E+02 0.55956563290E+02 0.47887026669E+02 0.36903207892E+02 0.24732342377E+02
 0.15964414907E+02 0.13406872557E+02 0.15631644091E+02 0.18892481025E+02 0.20764644666E+02
 0.21234040607E+02 0.20764644666E+02 0.18892481025E+02 0.15631644091E+02 0.13406872557E+02
 0.15964414907E+02 0.24732342377E+02 0.36903207892E+02 0.47887026669E+02 0.55956563290E+02
 0.97705779824E+02 0.89158926854E+02 0.70395929996E+02 0.52179544815E+02 0.36903207892E+02
 0.23475637523E+02 0.15631644091E+02 0.13058557153E+02 0.12254503545E+02 0.11136326336E+02
 0.10461514609E+02 0.11136326336E+02 0.12254503545E+02 0.13058557153E+02 0.15631644091E+02
 0.23475637523E+02 0.36903207892E+02 0.52179544815E+02 0.70395929996E+02 0.89158926854E+02
 0.16367930149E+03 0.14565140072E+03 0.10625727575E+03 0.70395929996E+02 0.47887026669E+02
 0.31480295647E+02 0.18892481025E+02 0.12254503545E+02 0.95123577962E+01 0.81729340462E+01
 0.76562815575E+01 0.81729340462E+01 0.95123577962E+01 0.12254503545E+02 0.18892481025E+02
 0.31480295647E+02 0.47887026669E+02 0.70395929996E+02 0.10625727575E+03 0.14565140072E+03
 0.23511045947E+03 0.20723650885E+03 0.14565140072E+03 0.89158926854E+02 0.55956563290E+02
 0.36920881911E+02 0.20764644666E+02 0.11136326336E+02 0.81729340462E+01 0.86059398800E+01
 0.91672321340E+01 0.86059398800E+01 0.81729340462E+01 0.11136326336E+02 0.20764644666E+02
 0.36920881911E+02 0.55956563290E+02 0.89158926854E+02 0.14565140072E+03 0.20723650885E+03
 0.14626860474E+03 0.13087039360E+03 0.97705779824E+02 0.67803802253E+02 0.47488539957E+02
 0.29868389870E+02 0.16378134467E+02 0.10590958705E+02 0.10461514609E+02 0.12013741365E+02
 0.12750323947E+02 0.12013741365E+02 0.10461514609E+02 0.10590958705E+02 0.16378134467E+02
 0.29868389870E+02 0.47488539957E+02 0.67803802253E+02 0.97705779824E+02 0.13087039360E+03
 0.13087039360E+03 0.11767068074E+03 0.89158926854E+02 0.63096040932E+02 0.44532237388E+02
 0.28029314416E+02 0.16239270986E+02 0.11488679316E+02 0.11136326336E+02 0.11769834987E+02
 0.12013741365E+02 0.11769834987E+02 0.11136326336E+02 0.11488679316E+02 0.16239270986E+02
 0.28029314416E+02 0.44532237388E+02 0.63096040932E+02 0.89158926854E+02 0.11767068074E+03
 0.97705779824E+02 0.89158926854E+02 0.70395929996E+02 0.52179544815E+02 0.36903207892E+02
 0.23475637523E+02 0.15631644091E+02 0.13058557153E+02 0.12254503545E+02 0.11136326336E+02
 0.10461514609E+02 0.11136326336E+02 0.12254503545E+02 0.13058557153E+02 0.15631644091E+02
 0.23475637523E+02 0.36903207892E+02 0.52179544815E+02 0.70395929996E+02 0.89158926854E+02
 0.67803802253E+02 0.63096040932E+02 0.52179544815E+02 0.39781200880E+02 0.27411177368E+02
 0.18369153675E+02 0.14463457557E+02 0.13746544960E+02 0.13058557153E+02 0.11488679316E+02
 0.10590958705E+02 0.11488679316E+02 0.13058557153E+02 0.13746544960E+02 0.14463457557E+02
 0.18369153675E+02 0.27411177368E+02 0.39781200880E+02 0.52179544815E+02 0.63096040932E+02
 0.47488539957E+02 0.44532237388E+02 0.36903207892E+02 0.27411177368E+02 0.19299183516E+02
 0.14660366143E+02 0.13558444936E+02 0.14463457557E+02 0.15631644091E+02 0.16239270986E+02
 0.16378134467E+02 0.16239270986E+02 0.15631644091E+02 0.14463457557E+02 0.13558444936E+02
 0.14660366143E+02 0.19299183516E+02 0.27411177368E+02 0.36903207892E+02 0.44532237388E+02
 0.29868389870E+02 0.28029314416E+02 0.23475637523E+02 0.18369153675E+02 0.14660366143E+02
 0.13343461020E+02 0.14660366143E+02 0.18369153675E+02 0.23475637523E+02 0.28029314416E+02
 0.29868389870E+02 0.28029314416E+02 0.23475637523E+02 0.18369153675E+02 0.14660366143E+02
 0.13343461020E+02 0.14660366143E+02 0.18369153675E+02 0.23475637523E+02 0.28029314416E+02
 0.16378134467E+02 0.16239270986E+02 0.15631644091E+02 0.14463457557E+02 0.13558444936E+02
 0.14660366143E+02 0.19299183516E+02 0.27411177368E+02 0.36903207892E+02 0.44532237388E+02
 0.47488539957E+02 0.44532237388E+02 0.36903207892E+02 0.27411177368E+02 0.19299183516E+02
 0.14660366143E+02 0.13558444936E+02 0.14463457557E+02 0.15631644091E+02 0.16239270986E+02
 0.10590958705E+02 0.11488679316E+02 0.13058557153E+02 0.13746544960E+02 0.14463457557E+02
 0.18369153675E+02 0.27411177368E+02 0.39781200880E+02 0.52179544815E+02 0.63096040932E+02
 0.67803802253E+02 0.63096040932E+02 0.52179544815E+02 0.39781200880E+02 0.27411177368E+02
 0.18369153675E+02 0.14463457557E+02 0.13746544960E+02 0.13058557153E+02 0.11488679316E+02
 0.10461514609E+02 0.11136326336E+02 0.12254503545E+02 0.13058557153E+02 0.15631644091E+02
 0.23475637523E+02 0.36903207892E+02 0.52179544815E+02 0.70395929996E+02 0.89158926854E+02
 0.97705779824E+02 0.89158926854E+02 0.70395929996E+02 0.52179544815E+02 0.36903207892E+02
 0.23475637523E+02 0.15631644091E+02 0.13058557153E+02 0.12254503545E+02 0.11136326336E+02
 0.12013741365E+02 0.11769834987E+02 0.11136326336E+02 0.11488679316E+02 0.16239270986E+02
 0.28029314416E+02 0.44532237388E+02 0.63096040932E+02 0.89158926854E+02 0.11767068074E+03
 0.13087039360E+03 0.11767068074E+03 0.89158926854E+02 0.63096040932E+02 0.44532237388E+02
 0.28029314416E+02 0.16239270986E+02 0.11488679316E+02 0.11136326336E+02 0.11769834987E+02
 0.12750323947E+02 0.12013741365E+02 0.10461514609E+02 0.10590958705E+02 0.16378134467E+02
 0.29868389870E+02 0.47488539957E+02 0.67803802253E+02 0.97705779824E+02 0.13087039360E+03
 0.14626860474E+03 0.13087039360E+03 0.97705779824E+02 0.67803802253E+02 0.47488539957E+02
 0.29868389870E+02 0.16378134467E+02 0.10590958705E+02 0.10461514609E+02 0.12013741365E+02
 0.12013741365E+02 0.11769834987E+02 0.11136326336E+02 0.11488679316E+02 0.16239270986E+02
 0.28029314416E+02 0.44532237388E+02 0.63096040932E+02 0.89158926854E+02 0.11767068074E+03
 0.13087039360E+03 0.11767068074E+03 0.89158926854E+02 0.63096040932E+02 0.44532237388E+02
 0.28029314416E+02 0.16239270986E+02 0.11488679316E+02 0.11136326336E+02 0.11769834987E+02
 0.10461514609E+02 0.11136326336E+02 0.12254503545E+02 0.13058557153E+02 0.15631644091E+02
 0.23475637523E+02 0.36903207892E+02 0.52179544815E+02 0.70395929996E+02 0.89158926854E+02
 0.97705779824E+02 0.89158926854E+02 0.70395929996E+02 0.52179544815E+02 0.36903207892E+02
 0.23475637523E+02 0.15631644091E+02 0.13058557153E+02 0.12254503545E+02 0.11136326336E+02
 0.10590958705E+02 0.11488679316E+02 0.13058557153E+02 0.13746544960E+02 0.14463457557E+02
 0.18369153675E+02 0.27411177368E+02 0.39781200880E+02 0.52179544815E+02 0.63096040932E+02
 0.67803802253E+02 0.63096040932E+02 0.52179544815E+02 0.39781200880E+02 0.27411177368E+02
 0.18369153675E+02 0.14463457557E+02 0.13746544960E+02 0.13058557153E+02 0.11488679316E+02
 0.16378134467E+02 0.16239270986E+02 0.15631644091E+02 0.14463457557E+02 0.13558444936E+02
 0.14660366143E+02 0.19299183516E+02 0.27411177368E+02 0.36903207892E+02 0.44532237388E+02
 0.47488539957E+02 0.44532237388E+02 0.36903207892E+02 0.27411177368E+02 0.19299183516E+02
 0.14660366143E+02 0.13558444936E+02 0.14463457557E+02 0.15631644091E+02 0.16239270986E+02
 0.29868389870E+02 0.28029314416E+02 0.23475637523E+02 0.18369153675E+02 0.14660366143E+02
 0.13343461020E+02 0.14660366143E+02 0.18369153675E+02 0.23475637523E+02 0.28029314416E+02
 0.29868389870E+02 0.28029314416E+02 0.23475637523E+02 0.18369153675E+02 0.14660366143E+02
 0.13343461020E+02 0.14660366143E+02 0.18369153675E+02 0.23475637523E+02 0.28029314416E+02
 0.47488539957E+02 0.44532237388E+02 0.36903207892E+02 0.27411177368E+02 0.19299183516E+02
 0.14660366143E+02 0.13558444936E+02 0.14463457557E+02 0.15631644091E+02 0.16239270986E+02
 0.16378134467E+02 0.16239270986E+02 0.15631644091E+02 0.14463457557E+02 0.13558444936E+02
 0.14660366143E+02 0.19299183516E+02 0.27411177368E+02 0.36903207892E+02 0.44532237388E+02
 0.67803802253E+02 0.63096040932E+02 0.52179544815E+02 0.39781200880E+02 0.27411177368E+02
 0.18369153675E+02 0.14463457557E+02 0.13746544960E+02 0.13058557153E+02 0.11488679316E+02
 0.10590958705E+02 0.11488679316E+02 0.13058557153E+02 0.13746544960E+02 0.14463457557E+02
 0.18369153675E+02 0.27411177368E+02 0.39781200880E+02 0.52179544815E+02 0.63096040932E+02
 0.97705779824E+02 0.89158926854E+02 0.70395929996E+02 0.52179544815E+02 0.36903207892E+02
 0.23475637523E+02 0.15631644091E+02 0.13058557153E+02 0.12254503545E+02 0.11136326336E+02
 0.10461514609E+02 0.11136326336E+02 0.12254503545E+02 0.13058557153E+02 0.15631644091E+02
 0.23475637523E+02 0.36903207892E+02 0.52179544815E+02 0.70395929996E+02 0.89158926854E+02
 0.13087039360E+03 0.11767068074E+03 0.89158926854E+02 0.63096040932E+02 0.44532237388E+02
 0.28029314416E+02 0.16239270986E+02 0.11488679316E+02 0.11136326336E+02 0.11769834987E+02
 0.12013741365E+02 0.11769834987E+02 0.11136326336E+02 0.11488679316E+02 0.16239270986E+02
 0.28029314416E+02 0.44532237388E+02 0.63096040932E+02 0.89158926854E+02 0.11767068074E+03
 0.73868726998E+02 0.69346977062E+02 0.59193724647E+02 0.47488539957E+02 0.33517157026E+02
 0.20659321722E+02 0.14786225767E+02 0.16378134467E+02 0.21234040607E+02 0.25130038807E+02
 0.26466396766E+02 0.25130038807E+02 0.21234040607E+02 0.16378134467E+02 0.14786225767E+02
 0.20659321722E+02 0.33517157026E+02 0.47488539957E+02 0.59193724647E+02 0.69346977062E+02
 0.69346977062E+02 0.65308511786E+02 0.55956563290E+02 0.44532237388E+02 0.30807374324E+02