   4   4   0   0
  0.1200752E+02  0.3635000E-09  0.3635000E-09  0.3635000E-09  0.5000000E-15
  1.000000000000000E-004
  CAR 
 unknown system                          
     23.79200687    -20.76002683  301     10.68133157      1.00000000
    -20.760  0.0000E+00  0.0000E+00
    -20.612  0.0000E+00  0.0000E+00
    -20.463 -0.1190E-31 -0.1768E-32
    -20.315 -0.2343E-26 -0.3480E-27
    -20.166 -0.1518E-21 -0.2254E-22
    -20.017 -0.3230E-17 -0.4797E-18
    -19.869 -0.2179E-13 -0.3236E-14
    -19.720 -0.4912E-10 -0.7299E-11
    -19.572 -0.3570E-07 -0.5309E-08
    -19.423 -0.8259E-05 -0.1232E-05
    -19.275 -0.5914E-03 -0.8906E-04
    -19.126 -0.1214E-01 -0.1892E-02
    -18.978 -0.4872E-01 -0.9127E-02
    -18.829  0.2060E+00  0.2146E-01
    -18.681  0.1049E+01  0.1772E+00
    -18.532  0.1150E+01  0.3480E+00
    -18.384  0.3057E+00  0.3934E+00
    -18.235 -0.4569E-01  0.3867E+00
    -18.087 -0.1683E-01  0.3842E+00
    -17.938 -0.9995E-03  0.3840E+00
    -17.790 -0.1680E-04  0.3840E+00
    -17.641 -0.3057E-04  0.3840E+00
    -17.493 -0.1832E-02  0.3837E+00
    -17.344 -0.2969E-01  0.3793E+00
    -17.196 -0.5495E-01  0.3712E+00
    -17.047  0.6178E+00  0.4629E+00
    -16.899  0.1507E+01  0.6867E+00
    -16.750  0.6327E+00  0.7807E+00
    -16.602 -0.5311E-01  0.7728E+00
    -16.453 -0.3044E-01  0.7683E+00
    -16.305 -0.1912E-02  0.7680E+00
    -16.156 -0.3260E-04  0.7680E+00
    -16.008 -0.5025E-04  0.7680E+00
    -15.859 -0.2640E-02  0.7676E+00
    -15.711 -0.3669E-01  0.7622E+00
    -15.562 -0.3930E-01  0.7563E+00
    -15.414  0.7280E+00  0.8644E+00
    -15.265  0.1565E+01  0.1097E+01
    -15.117  0.9443E+00  0.1237E+01
    -14.968  0.3789E+00  0.1293E+01
    -14.820  0.4599E-01  0.1300E+01
    -14.671 -0.2383E-01  0.1297E+01
    -14.523 -0.4134E-02  0.1296E+01
    -14.374 -0.1605E-03  0.1296E+01
    -14.226 -0.1865E-05  0.1296E+01
    -14.077 -0.1067E-04  0.1296E+01
    -13.929 -0.8352E-03  0.1296E+01
    -13.780 -0.1837E-01  0.1293E+01
    -13.632 -0.7135E-01  0.1283E+01
    -13.483  0.3749E+00  0.1338E+01
    -13.335  0.1436E+01  0.1551E+01
    -13.186  0.7934E+00  0.1669E+01
    -13.038 -0.7351E-01  0.1658E+01
    -12.889  0.2013E+01  0.1957E+01
    -12.741  0.5604E+01  0.2790E+01
    -12.592  0.3971E+01  0.3379E+01
    -12.444  0.4153E+00  0.3441E+01
    -12.295 -0.2282E+00  0.3407E+01
    -12.147 -0.2466E-01  0.3403E+01
    -11.998  0.6362E+00  0.3498E+01
    -11.850  0.1652E+01  0.3743E+01
    -11.701  0.1464E+01  0.3961E+01
    -11.553  0.2478E+00  0.3998E+01
    -11.404 -0.7607E-01  0.3986E+01
    -11.256 -0.1456E-01  0.3984E+01
    -11.107 -0.5742E-03  0.3984E+01
    -10.959 -0.6498E-05  0.3984E+01
    -10.810 -0.2276E-07  0.3984E+01
    -10.662 -0.2820E-10  0.3984E+01
    -10.513 -0.3302E-08  0.3984E+01
    -10.365 -0.1242E-05  0.3984E+01
    -10.216 -0.1457E-03  0.3984E+01
    -10.068 -0.5017E-02  0.3983E+01
     -9.919 -0.4007E-01  0.3977E+01
     -9.771  0.6748E-01  0.3987E+01
     -9.622  0.7708E+00  0.4102E+01
     -9.474  0.8275E+00  0.4225E+01
     -9.325  0.1391E-01  0.4227E+01
     -9.176  0.2906E+00  0.4270E+01
     -9.028  0.2411E+01  0.4628E+01
     -8.879  0.5735E+01  0.5480E+01
     -8.731  0.4416E+01  0.6135E+01
     -8.582  0.4091E+00  0.6196E+01
     -8.434 -0.3090E+00  0.6150E+01
     -8.285  0.3140E+00  0.6197E+01
     -8.137  0.1552E+01  0.6427E+01
     -7.988  0.1998E+01  0.6724E+01
     -7.840  0.1225E+01  0.6906E+01
     -7.691  0.2488E+00  0.6943E+01
     -7.543  0.1203E+01  0.7121E+01
     -7.394  0.1820E+01  0.7392E+01
     -7.246  0.8991E+00  0.7525E+01
     -7.097  0.3100E+00  0.7571E+01
     -6.949  0.1185E+01  0.7747E+01
     -6.800  0.1207E+01  0.7926E+01
     -6.652  0.1249E+00  0.7945E+01
     -6.503 -0.1540E+00  0.7922E+01
     -6.355  0.1483E+00  0.7944E+01
     -6.206  0.1728E+01  0.8201E+01
     -6.058  0.1779E+01  0.8465E+01
     -5.909  0.3393E+00  0.8515E+01
     -5.761  0.2693E+01  0.8915E+01
     -5.612  0.4521E+01  0.9587E+01
     -5.464  0.1815E+01  0.9856E+01
     -5.315  0.6535E-01  0.9866E+01
     -5.167 -0.7780E-01  0.9855E+01
     -5.018  0.4469E+00  0.9921E+01
     -4.870  0.1135E+01  0.1009E+02
     -4.721  0.1667E+01  0.1034E+02
     -4.573  0.1752E+01  0.1060E+02
     -4.424  0.1330E+01  0.1079E+02
     -4.276  0.2302E+00  0.1083E+02
     -4.127 -0.7746E-01  0.1082E+02
     -3.979 -0.2160E-01  0.1081E+02
     -3.830  0.4356E-01  0.1082E+02
     -3.682  0.2820E+00  0.1086E+02
     -3.533  0.5195E+00  0.1094E+02
     -3.385  0.1290E+01  0.1113E+02
     -3.236  0.1682E+01  0.1138E+02
     -3.088  0.4667E+00  0.1145E+02
     -2.939  0.1049E+01  0.1161E+02
     -2.791  0.2015E+01  0.1191E+02
     -2.642  0.7616E+00  0.1202E+02
     -2.494  0.4988E+00  0.1209E+02
     -2.345  0.2004E+01  0.1239E+02
     -2.197  0.3438E+01  0.1290E+02
     -2.048  0.2810E+01  0.1332E+02
     -1.900  0.5197E+00  0.1340E+02
     -1.751  0.1240E+00  0.1341E+02
     -1.603  0.1788E+01  0.1368E+02
     -1.454  0.2031E+01  0.1398E+02
     -1.306  0.1354E+01  0.1418E+02
     -1.157  0.2152E+01  0.1450E+02
     -1.009  0.1534E+01  0.1473E+02
     -0.860  0.5071E-01  0.1474E+02
     -0.712  0.1988E+00  0.1477E+02
     -0.563  0.1334E+01  0.1496E+02
     -0.415  0.9634E+00  0.1511E+02
     -0.266  0.7251E+00  0.1522E+02
     -0.118  0.2330E+01  0.1556E+02
      0.031  0.3297E+01  0.1605E+02
      0.179  0.4944E+01  0.1679E+02
      0.328  0.5817E+01  0.1765E+02
      0.476  0.2249E+01  0.1798E+02
      0.625  0.2403E+01  0.1834E+02
      0.773  0.3028E+01  0.1879E+02
      0.922  0.1541E+01  0.1902E+02
      1.070  0.1124E+01  0.1919E+02
      1.219  0.1523E+01  0.1941E+02
      1.367  0.1402E+01  0.1962E+02
      1.516  0.2340E+01  0.1997E+02
      1.664  0.2430E+01  0.2033E+02
      1.813  0.1131E+01  0.2050E+02
      1.962  0.1103E+01  0.2066E+02
      2.110  0.1123E+01  0.2083E+02
      2.259  0.1504E+01  0.2105E+02
      2.407  0.5220E+01  0.2183E+02
      2.556  0.6812E+01  0.2284E+02
      2.704  0.3407E+01  0.2334E+02
      2.853  0.5274E+00  0.2342E+02
      3.001  0.1079E+01  0.2358E+02
      3.150  0.2183E+01  0.2391E+02
      3.298  0.1271E+01  0.2409E+02
      3.447  0.5048E+00  0.2417E+02
      3.595  0.1640E+01  0.2441E+02
      3.744  0.2972E+01  0.2485E+02
      3.892  0.1599E+01  0.2509E+02
      4.041  0.3141E+00  0.2514E+02
      4.189  0.1728E+01  0.2539E+02
      4.338  0.1558E+01  0.2563E+02
      4.486  0.1694E+01  0.2588E+02
      4.635  0.4794E+01  0.2659E+02
      4.783  0.2909E+01  0.2702E+02
      4.932  0.1729E+01  0.2728E+02
      5.080  0.4323E+01  0.2792E+02
      5.229  0.4730E+01  0.2862E+02
      5.377  0.4816E+01  0.2934E+02
      5.526  0.2960E+01  0.2978E+02
      5.674  0.1381E+01  0.2998E+02
      5.823  0.6540E+00  0.3008E+02
      5.971  0.2330E+00  0.3011E+02
      6.120  0.2966E+00  0.3016E+02
      6.268  0.2023E+01  0.3046E+02
      6.417  0.2693E+01  0.3086E+02
      6.565  0.9284E+00  0.3100E+02
      6.714  0.3925E+01  0.3158E+02
      6.862  0.6187E+01  0.3250E+02
      7.011  0.2204E+01  0.3283E+02
      7.159  0.1657E+01  0.3307E+02
      7.308  0.2151E+01  0.3339E+02
      7.456  0.1145E+01  0.3356E+02
      7.605  0.1633E+01  0.3380E+02
      7.753  0.4609E+01  0.3449E+02
      7.902  0.5498E+01  0.3530E+02
      8.050  0.4418E+01  0.3596E+02
      8.199  0.4240E+01  0.3659E+02
      8.347  0.4346E+01  0.3724E+02
      8.496  0.3517E+01  0.3776E+02
      8.644  0.1293E+01  0.3795E+02
      8.793  0.2010E+01  0.3825E+02
      8.941  0.3704E+01  0.3880E+02
      9.090  0.3733E+01  0.3935E+02
      9.238  0.1823E+01  0.3962E+02
      9.387  0.3942E+01  0.4021E+02
      9.535  0.6034E+01  0.4111E+02
      9.684  0.4582E+01  0.4179E+02
      9.832  0.4046E+01  0.4239E+02
      9.981  0.9037E+00  0.4252E+02
     10.129  0.4906E+00  0.4259E+02
     10.278  0.2466E+01  0.4296E+02
     10.426  0.3145E+01  0.4343E+02
     10.575  0.2077E+01  0.4374E+02
     10.723  0.2638E+01  0.4413E+02
     10.872  0.2614E+01  0.4452E+02
     11.020  0.2157E+01  0.4484E+02
     11.169  0.2338E+01  0.4518E+02
     11.317  0.2133E+01  0.4550E+02
     11.466  0.4830E+01  0.4622E+02
     11.614  0.6789E+01  0.4723E+02
     11.763  0.5403E+01  0.4803E+02
     11.911  0.4797E+01  0.4874E+02
     12.060  0.4667E+01  0.4943E+02
     12.208  0.3806E+01  0.5000E+02
     12.357  0.2661E+01  0.5039E+02
     12.505  0.3006E+01  0.5084E+02
     12.654  0.1710E+01  0.5109E+02
     12.803  0.1332E+00  0.5111E+02
     12.951  0.2398E+00  0.5115E+02
     13.100  0.6120E+00  0.5124E+02
     13.248  0.2405E+00  0.5128E+02
     13.397  0.2451E+01  0.5164E+02
     13.545  0.4393E+01  0.5229E+02
     13.694  0.2237E+01  0.5262E+02
     13.842  0.1216E+01  0.5281E+02
     13.991  0.2703E+00  0.5285E+02
     14.139 -0.8877E-01  0.5283E+02
     14.288 -0.1498E+00  0.5281E+02
     14.436  0.4081E-01  0.5282E+02
     14.585  0.2543E+01  0.5319E+02
     14.733  0.4637E+01  0.5388E+02
     14.882  0.2784E+01  0.5430E+02
     15.030  0.1515E+01  0.5452E+02
     15.179  0.2931E+01  0.5496E+02
     15.327  0.5040E+01  0.5570E+02
     15.476  0.2650E+01  0.5610E+02
     15.624  0.1169E+00  0.5612E+02
     15.773  0.1511E+01  0.5634E+02
     15.921  0.3478E+01  0.5686E+02
     16.070  0.3249E+01  0.5734E+02
     16.218  0.1714E+01  0.5759E+02
     16.367  0.8515E+00  0.5772E+02
     16.515  0.1386E+01  0.5793E+02
     16.664  0.5510E+00  0.5801E+02
     16.812  0.4189E+00  0.5807E+02
     16.961  0.2315E+01  0.5841E+02
     17.109  0.2098E+01  0.5872E+02
     17.258  0.2582E+00  0.5876E+02
     17.406  0.1106E-01  0.5876E+02
     17.555  0.7238E+00  0.5887E+02
     17.703  0.8006E+00  0.5899E+02
     17.852  0.6524E+00  0.5909E+02
     18.000  0.1758E+01  0.5935E+02
     18.149  0.1650E+01  0.5959E+02
     18.297  0.2469E+00  0.5963E+02
     18.446 -0.8478E-01  0.5962E+02
     18.594 -0.1657E-01  0.5962E+02
     18.743 -0.1416E-01  0.5961E+02
     18.891  0.1374E-01  0.5962E+02
     19.040  0.2653E+00  0.5966E+02
     19.188  0.3401E+00  0.5971E+02
     19.337  0.6342E-01  0.5972E+02
     19.485 -0.1762E-01  0.5971E+02
     19.634 -0.3329E-02  0.5971E+02
     19.782 -0.1271E-03  0.5971E+02
     19.931 -0.1389E-05  0.5971E+02
     20.079 -0.4698E-08  0.5971E+02
     20.228 -0.1712E-09  0.5971E+02
     20.376 -0.1037E-06  0.5971E+02
     20.525 -0.2047E-04  0.5971E+02
     20.673 -0.1228E-02  0.5971E+02
     20.822 -0.1985E-01  0.5971E+02
     20.970 -0.3649E-01  0.5970E+02
     21.119  0.4130E+00  0.5976E+02
     21.267  0.1005E+01  0.5991E+02
     21.416  0.4174E+00  0.5998E+02
     21.564 -0.3775E-01  0.5997E+02
     21.713  0.4589E-01  0.5998E+02
     21.861  0.1225E+00  0.6000E+02
     22.010  0.3894E-01  0.6000E+02
     22.158 -0.5666E-02  0.6000E+02
     22.307 -0.1873E-02  0.6000E+02
     22.455 -0.9608E-04  0.6000E+02
     22.604 -0.1364E-05  0.6000E+02
     22.752 -0.5930E-08  0.6000E+02
     22.901 -0.8177E-11  0.6000E+02
     23.049 -0.3636E-14  0.6000E+02
     23.198  0.0000E+00  0.6000E+02
     23.346  0.0000E+00  0.6000E+02
     23.495  0.0000E+00  0.6000E+02
     23.644  0.0000E+00  0.6000E+02
     23.792  0.0000E+00  0.6000E+02
