unknown system                          
   1.00000000000000     
     2.236800    0.000000    0.000000
    -1.118400    1.937126    0.000000
     0.000000    0.000000    4.093440
   Fe
     2
Direct
  0.000000  0.000000  0.000000
  0.333333  0.666667  0.500000
 
   20   20   36
 0.14893850522E+03 0.14171838965E+03 0.12216273638E+03 0.95513321286E+02 0.67783592658E+02
 0.43742665928E+02 0.26090734574E+02 0.15472678010E+02 0.10739533942E+02 0.94364684986E+01
 0.91449361473E+01 0.94364935008E+01 0.10739557906E+02 0.15472682730E+02 0.26090731770E+02
 0.43742678491E+02 0.67783621686E+02 0.95513344056E+02 0.12216273704E+03 0.14171837958E+03
 0.14172108304E+03 0.14171838849E+03 0.12835982686E+03 0.10539925642E+03 0.78529594765E+02
 0.53124946662E+02 0.32850611609E+02 0.19321236582E+02 0.12242259658E+02 0.97404271285E+01
 0.91397501419E+01 0.91396572252E+01 0.97403388969E+01 0.12242258149E+02 0.19320807969E+02
 0.32849447193E+02 0.53124210042E+02 0.78531465973E+02 0.10540445731E+03 0.12836585647E+03
 0.12216672337E+03 0.12834039141E+03 0.12216273708E+03 0.10539925787E+03 0.82477726010E+02
 0.58562913494E+02 0.37856830493E+02 0.22800640416E+02 0.13956211362E+02 0.10184103990E+02
 0.91473934177E+01 0.88645286516E+01 0.91472129527E+01 0.10184191056E+02 0.13956367721E+02
 0.22799886374E+02 0.37854991581E+02 0.58561775580E+02 0.82479536564E+02 0.10540381157E+03
 0.95511471607E+02 0.10534553293E+03 0.10534616453E+03 0.95513324125E+02 0.78529593768E+02
 0.58562911950E+02 0.39704804779E+02 0.24867580086E+02 0.15325548683E+02 0.10678969000E+02
 0.91632666166E+01 0.86518999118E+01 0.86517906579E+01 0.91632523991E+01 0.10679479139E+02
 0.15326297369E+02 0.24867586837E+02 0.39703347605E+02 0.58560298824E+02 0.78526890061E+02
 0.67777794530E+02 0.78451434888E+02 0.82371052735E+02 0.78455979897E+02 0.67783592454E+02
 0.53124943631E+02 0.37856831936E+02 0.24867581588E+02 0.15848438344E+02 0.11010005664E+02
 0.91911741761E+01 0.85174377791E+01 0.82751361350E+01 0.85173293437E+01 0.91911772852E+01
 0.11010666969E+02 0.15850120405E+02 0.24869459286E+02 0.37856832409E+02 0.53121506579E+02
 0.43741928875E+02 0.53055995346E+02 0.58443472480E+02 0.58444945330E+02 0.53058688487E+02
 0.43742664424E+02 0.32850612301E+02 0.22800643316E+02 0.15325546565E+02 0.11010004172E+02
 0.92072493301E+01 0.84553634456E+01 0.80508233838E+01 0.80508205204E+01 0.84550496648E+01
 0.92065166063E+01 0.11009917353E+02 0.15327420203E+02 0.22803985195E+02 0.32852900272E+02
 0.26094718097E+02 0.32817567268E+02 0.37777117932E+02 0.39603634746E+02 0.37775305242E+02
 0.32814139026E+02 0.26090733264E+02 0.19321237866E+02 0.13956209799E+02 0.10678966098E+02
 0.91911767766E+01 0.84553648269E+01 0.79778210392E+01 0.78145335371E+01 0.79779949399E+01
 0.84547222046E+01 0.91893364574E+01 0.10677184535E+02 0.13956367721E+02 0.19323933588E+02
 0.15472684757E+02 0.19321106189E+02 0.22781687266E+02 0.24828994175E+02 0.24827142936E+02
 0.22777627274E+02 0.19317996940E+02 0.15472676521E+02 0.12242260481E+02 0.10184102629E+02
 0.91632687519E+01 0.85174404644E+01 0.80508204919E+01 0.78145324334E+01 0.78149536655E+01
 0.80515721634E+01 0.85173313709E+01 0.91613779230E+01 0.10180839824E+02 0.12239556713E+02
 0.10735394434E+02 0.12257228007E+02 0.13980628660E+02 0.15349995178E+02 0.15870699581E+02
 0.15348879523E+02 0.13980628167E+02 0.12259912743E+02 0.10739535831E+02 0.97404284477E+01
 0.91473927982E+01 0.86519011963E+01 0.82751337217E+01 0.80508184647E+01 0.79779981837E+01
 0.80515729995E+01 0.82767998181E+01 0.86536631069E+01 0.91473900973E+01 0.97376354337E+01
 0.94363836585E+01 0.97622262704E+01 0.10227098849E+02 0.10738733555E+02 0.11078897845E+02
 0.11079633190E+02 0.10741000111E+02 0.10230431800E+02 0.97649206688E+01 0.94364708907E+01
 0.91397479448E+01 0.88645275585E+01 0.86517913539E+01 0.85173285949E+01 0.84550525137E+01
 0.84547236721E+01 0.85173279368E+01 0.86536625184E+01 0.88679876991E+01 0.91424705308E+01
 0.91489224751E+01 0.91682821099E+01 0.91993766221E+01 0.92377355638E+01 0.92834419901E+01
 0.93071182179E+01 0.92852535859E+01 0.92395941246E+01 0.91992221604E+01 0.91655016854E+01
 0.91449352227E+01 0.91396552969E+01 0.91472156536E+01 0.91632535846E+01 0.91911767766E+01
 0.92065169087E+01 0.91893333483E+01 0.91613769732E+01 0.91473934177E+01 0.91424707995E+01
 0.94363805145E+01 0.91682821139E+01 0.89215476500E+01 0.87359061765E+01 0.86246347208E+01
 0.85769384496E+01 0.85772587618E+01 0.86246265603E+01 0.87340535909E+01 0.89181345426E+01
 0.91656068639E+01 0.94364927490E+01 0.97403404636E+01 0.10184192640E+02 0.10679476238E+02
 0.11010665804E+02 0.11009917679E+02 0.10677184535E+02 0.10180842769E+02 0.97376356813E+01
 0.10735391703E+02 0.97622266254E+01 0.91993794990E+01 0.87359060137E+01 0.83892217914E+01
 0.81871208663E+01 0.81223015939E+01 0.81863797507E+01 0.83875659737E+01 0.87341415750E+01
 0.91993780713E+01 0.97650305111E+01 0.10739557064E+02 0.12242258454E+02 0.13956365710E+02
 0.15326296181E+02 0.15850123261E+02 0.15327421132E+02 0.13956367273E+02 0.12239556195E+02
 0.15472685301E+02 0.12257228986E+02 0.10227101286E+02 0.92377348733E+01 0.86246323421E+01
 0.81871211647E+01 0.79677153876E+01 0.79673083591E+01 0.81863870408E+01 0.86247218345E+01
 0.92395696400E+01 0.10230314668E+02 0.12259920033E+02 0.15472681784E+02 0.19320808420E+02
 0.22799886410E+02 0.24867588878E+02 0.24869459825E+02 0.22803982331E+02 0.19323932755E+02
 0.26094720902E+02 0.19321106995E+02 0.13980628065E+02 0.10738732361E+02 0.92834401523E+01
 0.85769394401E+01 0.81223034587E+01 0.79673080085E+01 0.81221456829E+01 0.85775854470E+01
 0.92852535859E+01 0.10740475599E+02 0.13980451023E+02 0.19318413636E+02 0.26090733264E+02
 0.32849448015E+02 0.37854991108E+02 0.39703346999E+02 0.37856830493E+02 0.32852900403E+02
 0.43741930698E+02 0.32817566681E+02 0.22781684707E+02 0.15349994463E+02 0.11078898658E+02
 0.93071196421E+01 0.85772600012E+01 0.81863786443E+01 0.81863856360E+01 0.85775856959E+01
 0.93078706426E+01 0.11079007802E+02 0.15348144293E+02 0.22778364531E+02 0.32815296412E+02
 0.43742678810E+02 0.53124208401E+02 0.58561774731E+02 0.58560299519E+02 0.53121507968E+02
 0.67777793885E+02 0.53055993477E+02 0.37777116427E+02 0.24828995052E+02 0.15870701788E+02
 0.11079633889E+02 0.92852525968E+01 0.86246250520E+01 0.83875652578E+01 0.86247227049E+01
 0.92852544346E+01 0.11079007687E+02 0.15869064281E+02 0.24827140909E+02 0.37777117687E+02
 0.53059438103E+02 0.67783620838E+02 0.78531466217E+02 0.82479538454E+02 0.78526891302E+02
 0.95511469991E+02 0.78451433558E+02 0.58443473186E+02 0.39603636778E+02 0.24827143757E+02
 0.15348878398E+02 0.10740998326E+02 0.92395934586E+01 0.87340547185E+01 0.87341428654E+01
 0.92395696646E+01 0.10740475008E+02 0.15348143883E+02 0.24827140852E+02 0.39605063886E+02
 0.58446047009E+02 0.78454128602E+02 0.95513345279E+02 0.10540445837E+03 0.10540381118E+03
 0.12216672271E+03 0.10534553371E+03 0.82371054002E+02 0.58444946416E+02 0.37775303982E+02
 0.22777624953E+02 0.13980628065E+02 0.10230433101E+02 0.91992235881E+01 0.89181351415E+01
 0.91993766221E+01 0.10230313532E+02 0.13980451515E+02 0.22778364769E+02 0.37777117932E+02
 0.58446047389E+02 0.82369211907E+02 0.10534096756E+03 0.12216273708E+03 0.12836585485E+03
 0.14172108329E+03 0.12834039358E+03 0.10534616460E+03 0.78455978489E+02 0.53058687113E+02
 0.32814137815E+02 0.19317998690E+02 0.12259915332E+02 0.97649202615E+01 0.91655004936E+01
 0.91656056682E+01 0.97650297489E+01 0.12259921643E+02 0.19318414580E+02 0.32815295787E+02
 0.53059438598E+02 0.78454128524E+02 0.10534096685E+03 0.12833434857E+03 0.14171837866E+03
 0.14145532530E+03 0.13460235861E+03 0.11603097482E+03 0.90702870965E+02 0.64338322648E+02
 0.41506136007E+02 0.24807520326E+02 0.14848275485E+02 0.10477459589E+02 0.92823352907E+01
 0.89949817973E+01 0.92823601265E+01 0.10477483726E+02 0.14848280732E+02 0.24807517532E+02
 0.41506147305E+02 0.64338349650E+02 0.90702892364E+02 0.11603097548E+03 0.13460234912E+03
 0.13460489882E+03 0.13460235745E+03 0.12191600622E+03 0.10009627570E+03 0.74547071318E+02
 0.50400320366E+02 0.31179251707E+02 0.18433002508E+02 0.11844487147E+02 0.95578423075E+01
 0.89838473876E+01 0.89837546586E+01 0.95577542921E+01 0.11844498692E+02 0.18432629660E+02
 0.31178184112E+02 0.50399637389E+02 0.74548830157E+02 0.10010117164E+03 0.12192168964E+03
 0.11603473635E+03 0.12190090794E+03 0.11603097552E+03 0.10009627715E+03 0.78298157745E+02
 0.55559576031E+02 0.35908537839E+02 0.21689454093E+02 0.13418330677E+02 0.99493617462E+01
 0.89884460875E+01 0.87113450301E+01 0.89882612302E+01 0.99494355663E+01 0.13418491272E+02
 0.21688767487E+02 0.35906816985E+02 0.55558496848E+02 0.78299852267E+02 0.10010056609E+03
 0.90701132284E+02 0.10005425236E+03 0.10005484470E+03 0.90702873799E+02 0.74547070321E+02
 0.55559574489E+02 0.37655935659E+02 0.23628741411E+02 0.14682965120E+02 0.10390149890E+02
 0.90021703796E+01 0.85034073494E+01 0.85032984696E+01 0.90021433043E+01 0.10390616587E+02
 0.14683658895E+02 0.23628735634E+02 0.37654548947E+02 0.55557101672E+02 0.74544520374E+02
 0.64332866014E+02 0.74487851379E+02 0.78217446350E+02 0.74492132213E+02 0.64338322442E+02
 0.50400317339E+02 0.35908539281E+02 0.23628742913E+02 0.15167141295E+02 0.10687286754E+02
 0.90237593518E+01 0.83731791553E+01 0.81382783914E+01 0.83730841311E+01 0.90237624477E+01
 0.10687893349E+02 0.15168701061E+02 0.23630495714E+02 0.35908539754E+02 0.50397087686E+02
 0.41505452599E+02 0.50354279781E+02 0.55477148898E+02 0.55478540316E+02 0.50356819747E+02
 0.41506134504E+02 0.31179252400E+02 0.21689456995E+02 0.14682963009E+02 0.10687285265E+02
 0.90364703678E+01 0.83134661776E+01 0.79222951262E+01 0.79223053058E+01 0.83131952447E+01
 0.90357923514E+01 0.10687198643E+02 0.14684724269E+02 0.21692617449E+02 0.31181428521E+02
 0.24811278399E+02 0.31169105703E+02 0.35870098552E+02 0.37603084825E+02 0.35868401893E+02
 0.31165884266E+02 0.24807519021E+02 0.18433003798E+02 0.13418329122E+02 0.10390146994E+02
 0.90237619460E+01 0.83134675541E+01 0.78522319825E+01 0.76951950679E+01 0.78524102829E+01
 0.83128794637E+01 0.90220396785E+01 0.10388477582E+02 0.13418491272E+02 0.18435558287E+02
 0.14848269714E+02 0.18453491948E+02 0.21710006918E+02 0.23641116720E+02 0.23639376482E+02
 0.21706192996E+02 0.18450577776E+02 0.14848274005E+02 0.11844487976E+02 0.99493603888E+01
 0.90021725071E+01 0.83731818288E+01 0.79222922324E+01 0.76951939647E+01 0.76955850109E+01
 0.79229889935E+01 0.83730731129E+01 0.90003942429E+01 0.99462913284E+01 0.11841937971E+02
 0.10473541315E+02 0.11877412529E+02 0.13477759189E+02 0.14755013560E+02 0.15241702092E+02
 0.14753955270E+02 0.13477758701E+02 0.11879956624E+02 0.10477461483E+02 0.95578436277E+01
 0.89884454629E+01 0.85034086213E+01 0.81382759718E+01 0.79223032506E+01 0.78524135263E+01
 0.79229898321E+01 0.81398196168E+01 0.85050585492E+01 0.89884427740E+01 0.95552045891E+01
 0.92822506598E+01 0.95953986330E+01 0.10022978487E+02 0.10492313804E+02 0.10805124117E+02
 0.10805805825E+02 0.10494427459E+02 0.10026106483E+02 0.95979398622E+01 0.92823376820E+01
 0.89838451890E+01 0.87113439284E+01 0.85032991545E+01 0.83730833803E+01 0.83131980960E+01
 0.83128809385E+01 0.83730696885E+01 0.85050579623E+01 0.87146097530E+01 0.89864138283E+01
 0.89987426643E+01 0.90268504047E+01 0.90681765594E+01 0.91148335953E+01 0.91608681407E+01
 0.91834147305E+01 0.91625637074E+01 0.91165686323E+01 0.90680178676E+01 0.90242233600E+01
 0.89949808726E+01 0.89837527258E+01 0.89882639191E+01 0.90021444854E+01 0.90237619460E+01
 0.90357926654E+01 0.90220365827E+01 0.90003932965E+01 0.89884460875E+01 0.89864140941E+01
 0.92822475156E+01 0.90268504080E+01 0.87950352206E+01 0.86232722662E+01 0.85221980547E+01
 0.84797333598E+01 0.84800419385E+01 0.85222024218E+01 0.86215306840E+01 0.87918147564E+01
 0.90243281387E+01 0.92823593736E+01 0.95577558525E+01 0.99494371457E+01 0.10390613694E+02
 0.10687892196E+02 0.10687198979E+02 0.10388477586E+02 0.99462942652E+01 0.95552048294E+01
 0.10473538581E+02 0.95953989857E+01 0.90681794339E+01 0.86232721047E+01 0.82928989065E+01
 0.81013665293E+01 0.80401443284E+01 0.81006915756E+01 0.82913633503E+01 0.86216184592E+01
 0.90681780096E+01 0.95980493289E+01 0.10477482885E+02 0.11844498995E+02 0.13418489264E+02
 0.14683657715E+02 0.15168703922E+02 0.14684725200E+02 0.13418490819E+02 0.11841937444E+02
 0.14848270249E+02 0.11877413504E+02 0.10022980923E+02 0.91148329087E+01 0.85221956805E+01
 0.81013668277E+01 0.78911520784E+01 0.78907744269E+01 0.81006863395E+01 0.85222849608E+01
 0.91165568650E+01 0.10026002253E+02 0.11879951388E+02 0.14848279787E+02 0.18432630109E+02
 0.21688767525E+02 0.23628737677E+02 0.23630496255E+02 0.21692614585E+02 0.18435557447E+02
 0.24811281193E+02 0.18453492750E+02 0.13477758597E+02 0.10492312616E+02 0.91608663080E+01
 0.84797343503E+01 0.80401461917E+01 0.78907740774E+01 0.80399841864E+01 0.84803269282E+01
 0.91625637074E+01 0.10493945227E+02 0.13477577158E+02 0.18450939523E+02 0.24807519021E+02
 0.31178184930E+02 0.35906816512E+02 0.37654548344E+02 0.35908537839E+02 0.31181428645E+02
 0.41505454415E+02 0.31169105114E+02 0.21710004364E+02 0.14755012850E+02 0.10805124933E+02
 0.91834161547E+01 0.84800431775E+01 0.81006904720E+01 0.81006849374E+01 0.84803271766E+01
 0.91841133260E+01 0.10805233700E+02 0.14753273678E+02 0.21706863570E+02 0.31166944783E+02
 0.41506147618E+02 0.50399635747E+02 0.55558496001E+02 0.55557102367E+02 0.50397089071E+02
 0.64332865369E+02 0.50354277913E+02 0.35870097051E+02 0.23641117601E+02 0.15241704300E+02
 0.10805806525E+02 0.91625627201E+01 0.85222009167E+01 0.82913626365E+01 0.85222858298E+01
 0.91625645527E+01 0.10805233584E+02 0.15240187223E+02 0.23639387501E+02 0.35870098305E+02
 0.50357514453E+02 0.64338348799E+02 0.74548830401E+02 0.78299854157E+02 0.74544521615E+02
 0.90701130670E+02 0.74487850049E+02 0.55477149605E+02 0.37603086858E+02 0.23639377307E+02
 0.14753954148E+02 0.10494425675E+02 0.91165679667E+01 0.86215318105E+01 0.86216197471E+01
 0.91165568860E+01 0.10493944632E+02 0.14753273266E+02 0.23639387444E+02 0.37604446194E+02
 0.55479585904E+02 0.74490391919E+02 0.90702893585E+02 0.10010117270E+03 0.10010056570E+03
 0.11603473569E+03 0.10005425314E+03 0.78217447616E+02 0.55478541403E+02 0.35868400639E+02
 0.21706190680E+02 0.13477758597E+02 0.10026107779E+02 0.90680192919E+01 0.87918153529E+01
 0.90681765594E+01 0.10026001113E+02 0.13477577645E+02 0.21706863807E+02 0.35870098552E+02
 0.55479586285E+02 0.78215723581E+02 0.10004995252E+03 0.11603097552E+03 0.12192168801E+03
 0.13460489907E+03 0.12190091011E+03 0.10005484477E+03 0.74492130808E+02 0.50356818378E+02
 0.31165883058E+02 0.18450579521E+02 0.11879959205E+02 0.95979394506E+01 0.90242221679E+01
 0.90243269433E+01 0.95980485647E+01 0.11879952994E+02 0.18450940465E+02 0.31166944163E+02
 0.50357514952E+02 0.74490391844E+02 0.10004995182E+03 0.12189521222E+03 0.13460234821E+03
 0.12124971527E+03 0.11537795613E+03 0.99444441415E+02 0.77676744699E+02 0.55016930552E+02
 0.35485407410E+02 0.21393328860E+02 0.13219938228E+02 0.98033133543E+01 0.88590277938E+01
 0.85860747276E+01 0.88590519679E+01 0.98033376681E+01 0.13219944713E+02 0.21393326093E+02
 0.35485415433E+02 0.55016952248E+02 0.77676762483E+02 0.99444442068E+02 0.11537794820E+03
 0.11538007920E+03 0.11537795497E+03 0.10449161552E+03 0.85739581432E+02 0.63763816026E+02
 0.43044516408E+02 0.26704356431E+02 0.16092289844E+02 0.10817186930E+02 0.90743115325E+01
 0.85568359740E+01 0.85567447499E+01 0.90742250387E+01 0.10817231484E+02 0.16092062728E+02
 0.26703546545E+02 0.43043977251E+02 0.63765270051E+02 0.85743648716E+02 0.10449635680E+03
 0.99447588714E+02 0.10448875029E+03 0.99444442109E+02 0.85739582872E+02 0.66979723081E+02
 0.47442275344E+02 0.30675780986E+02 0.18742881211E+02 0.12019073626E+02 0.93394157385E+01
 0.85504222188E+01 0.82915063104E+01 0.85502282276E+01 0.93394550868E+01 0.12019243213E+02
 0.18742373478E+02 0.30674378963E+02 0.47441357176E+02 0.66981104085E+02 0.85743151902E+02
 0.77675307221E+02 0.85730357036E+02 0.85730843080E+02 0.77676747518E+02 0.63763815029E+02
 0.47442273808E+02 0.32147856645E+02 0.20334276606E+02 0.13003123964E+02 0.96428461708E+01
 0.85584119159E+01 0.80950680717E+01 0.80949613518E+01 0.85583525082E+01 0.96431974150E+01
 0.13003670634E+02 0.20334239052E+02 0.32146664155E+02 0.47440184623E+02 0.63761683789E+02
 0.55012401665E+02 0.63757373339E+02 0.66971435984E+02 0.63760935814E+02 0.55016930340E+02
 0.43044513390E+02 0.30675782429E+02 0.20334278108E+02 0.13383150799E+02 0.98523358409E+01
 0.85698692304E+01 0.79748321327E+01 0.77613988839E+01 0.79747722354E+01 0.85698722908E+01
 0.98527968140E+01 0.13384382740E+02 0.20335694314E+02 0.30675782900E+02 0.43041846250E+02
 0.35484867827E+02 0.43062030052E+02 0.47462638972E+02 0.47463808169E+02 0.43064152866E+02
 0.35485405910E+02 0.26704357132E+02 0.18742884119E+02 0.13003121871E+02 0.98523343584E+01
 0.85758742889E+01 0.79205437704E+01 0.75674348020E+01 0.75674779649E+01 0.79203845952E+01
 0.85753426766E+01 0.98522492081E+01 0.13004578289E+02 0.18745548899E+02 0.26706225152E+02
 0.21396472739E+02 0.26757660917E+02 0.30751729081E+02 0.32228946351E+02 0.30750345941E+02
 0.26755000419E+02 0.21393327571E+02 0.16092291151E+02 0.12019072095E+02 0.96428432885E+01
 0.85698718069E+01 0.79205451336E+01 0.75050605769E+01 0.73653078435E+01 0.75052480321E+01
 0.79201019744E+01 0.85684683535E+01 0.96414771684E+01 0.12019243213E+02 0.16094458714E+02
 0.13219900706E+02 0.16170225040E+02 0.18873303503E+02 0.20488316301E+02 0.20486877274E+02
 0.18870156819E+02 0.16167838608E+02 0.13219936775E+02 0.10817187776E+02 0.93394143919E+01
 0.85584140217E+01 0.79748347739E+01 0.75674319037E+01 0.73653067415E+01 0.73656168358E+01
 0.75679815635E+01 0.79747282282E+01 0.85569412538E+01 0.93368712790E+01 0.10815056476E+02
 0.98000003266E+01 0.10900836301E+02 0.12177050273E+02 0.13208959652E+02 0.13604644325E+02
 0.13208058771E+02 0.12177049798E+02 0.10902995043E+02 0.98033152593E+01 0.90743128542E+01
 0.85504215800E+01 0.80950693091E+01 0.77613964478E+01 0.75674759109E+01 0.75052512727E+01
 0.75679824078E+01 0.77626121253E+01 0.80964166134E+01 0.85504189234E+01 0.90720940377E+01
 0.88589446657E+01 0.91572301222E+01 0.95009454236E+01 0.98666050880E+01 0.10110508251E+02
 0.10111046155E+02 0.98683069491E+01 0.95035182290E+01 0.91593542146E+01 0.88590301802E+01
 0.85568337704E+01 0.82915051852E+01 0.80949620069E+01 0.79747714789E+01 0.79203874507E+01
 0.79201034668E+01 0.79747248304E+01 0.80964160310E+01 0.82942414277E+01 0.85589830531E+01
 0.85892213732E+01 0.86420298998E+01 0.87112888660E+01 0.87832096011E+01 0.88389910906E+01
 0.88615681570E+01 0.88403731413E+01 0.87846116622E+01 0.87111211919E+01 0.86398214958E+01
 0.85860738006E+01 0.85567428051E+01 0.85502308842E+01 0.85583536776E+01 0.85698718069E+01
 0.85753430199E+01 0.85684652932E+01 0.85569403174E+01 0.85504222188E+01 0.85589833118E+01
 0.88589415226E+01 0.86420299012E+01 0.84536995013E+01 0.83216426276E+01 0.82495325753E+01
 0.82219058147E+01 0.82221811783E+01 0.82495687171E+01 0.83202022593E+01 0.84510039713E+01
 0.86399241039E+01 0.88590512113E+01 0.90742265831E+01 0.93394566559E+01 0.96431945448E+01
 0.98527956931E+01 0.98522495698E+01 0.96414771804E+01 0.93368741947E+01 0.90720942604E+01
 0.97999975849E+01 0.91572304686E+01 0.87112917327E+01 0.83216424687E+01 0.80388778374E+01
 0.78779988165E+01 0.78271951924E+01 0.78774994343E+01 0.80376647784E+01 0.83202885304E+01
 0.87112903158E+01 0.91594615168E+01 0.98033368313E+01 0.10817231783E+02 0.12019241218E+02
 0.13003669477E+02 0.13384385613E+02 0.13004579225E+02 0.12019242750E+02 0.10815055929E+02
 0.13219901220E+02 0.10900837266E+02 0.95009478550E+01 0.87832089228E+01 0.82495302125E+01
 0.78779991146E+01 0.76946619966E+01 0.76943631611E+01 0.78774624255E+01 0.82496179794E+01
 0.87846323341E+01 0.95034479356E+01 0.10902958034E+02 0.13219943773E+02 0.16092063175E+02
 0.18742373522E+02 0.20334241099E+02 0.20335694858E+02 0.18745546035E+02 0.16094457854E+02
 0.21396475506E+02 0.16170225834E+02 0.12177049688E+02 0.98666039134E+01 0.88389892700E+01
 0.82219068038E+01 0.78271970509E+01 0.76943628152E+01 0.78270260686E+01 0.82223570798E+01
 0.88403731413E+01 0.98679374742E+01 0.12176859102E+02 0.16168056774E+02 0.21393327571E+02
 0.26703547354E+02 0.30674378491E+02 0.32146663556E+02 0.30675780986E+02 0.26706225260E+02
 0.35484869625E+02 0.26757660326E+02 0.18873300964E+02 0.13208958956E+02 0.10110509072E+02
 0.88615695790E+01 0.82221824154E+01 0.78774983391E+01 0.78774610323E+01 0.82223573278E+01
 0.88621222782E+01 0.10110615673E+02 0.13207520987E+02 0.18870650597E+02 0.26755803188E+02
 0.35485415732E+02 0.43043975606E+02 0.47441356330E+02 0.47440185314E+02 0.43041847622E+02
 0.55012401018E+02 0.43062028188E+02 0.30751727591E+02 0.20488317191E+02 0.13604646535E+02
 0.10111046857E+02 0.88403721586E+01 0.82495672213E+01 0.80376640727E+01 0.82496188464E+01
 0.88403739792E+01 0.10110615553E+02 0.13603452132E+02 0.20486921282E+02 0.30751728830E+02
 0.43064700472E+02 0.55016951388E+02 0.63765270291E+02 0.66981105970E+02 0.63761685025E+02
 0.77675305615E+02 0.63757372014E+02 0.47462639681E+02 0.32228948388E+02 0.20486878107E+02
 0.13208057656E+02 0.98683051701E+01 0.87846109980E+01 0.83202033847E+01 0.83202898147E+01
 0.87846323482E+01 0.98679368697E+01 0.13207520568E+02 0.20486921224E+02 0.32230120450E+02
 0.47464699647E+02 0.63759496730E+02 0.77676763696E+02 0.85743649771E+02 0.85743151517E+02
 0.99447588061E+02 0.85730357812E+02 0.66971437250E+02 0.47463809263E+02 0.30750344703E+02
 0.18870154514E+02 0.12177049688E+02 0.95035195119E+01 0.87111226088E+01 0.84510045645E+01
 0.87112888660E+01 0.95034467870E+01 0.12176859577E+02 0.18870650830E+02 0.30751729081E+02
 0.47464700032E+02 0.66970032047E+02 0.85726779152E+02 0.99444442109E+02 0.10449635519E+03
 0.11538007945E+03 0.10448875245E+03 0.85730843153E+02 0.63760934423E+02 0.43064151512E+02
 0.26754999217E+02 0.16167840337E+02 0.10902997599E+02 0.91593537928E+01 0.86398203058E+01
 0.86399229125E+01 0.91594607487E+01 0.10902959625E+02 0.16168057709E+02 0.26755802578E+02
 0.43064700982E+02 0.63759496663E+02 0.85726778450E+02 0.10448399915E+03 0.11537794729E+03
 0.93867197716E+02 0.89305813004E+02 0.76914201183E+02 0.59975434356E+02 0.42401983320E+02
 0.27442836893E+02 0.16953470606E+02 0.11190595645E+02 0.89716070995E+01 0.82650172102E+01
 0.80199076536E+01 0.82650393644E+01 0.89716301261E+01 0.11190602796E+02 0.16953467872E+02
 0.27442841270E+02 0.42401998754E+02 0.59975447747E+02 0.76914201829E+02 0.89305807015E+02
 0.89307365222E+02 0.89305811849E+02 0.80832766307E+02 0.66226023770E+02 0.49134065911E+02
 0.33150003218E+02 0.20803545196E+02 0.13112290676E+02 0.95571707838E+01 0.84234439606E+01
 0.79620201452E+01 0.79619338144E+01 0.84233620614E+01 0.95572527676E+01 0.13112244758E+02
 0.20803070399E+02 0.33149654321E+02 0.49135106504E+02 0.66228962560E+02 0.80836220307E+02
 0.76916507348E+02 0.80847290150E+02 0.76914201866E+02 0.66226025198E+02 0.51614503015E+02
 0.36492402001E+02 0.23726178233E+02 0.14941192660E+02 0.10283495720E+02 0.85657788801E+01
 0.79339821610E+01 0.77065558447E+01 0.79337843776E+01 0.85657762668E+01 0.10283670422E+02
 0.14940915597E+02 0.23725204369E+02 0.36491707062E+02 0.51615462150E+02 0.66228612383E+02
 0.59974405933E+02 0.66263004945E+02 0.66263347354E+02 0.59975437146E+02 0.49134064912E+02
 0.36492400474E+02 0.24816665578E+02 0.16057243093E+02 0.10900176136E+02 0.87136955190E+01
 0.79272374356E+01 0.75227720105E+01 0.75226718737E+01 0.79271423069E+01 0.87138977617E+01
 0.10900528897E+02 0.16057168773E+02 0.24815745376E+02 0.36490840491E+02 0.49132506482E+02
 0.42398717452E+02 0.49201264117E+02 0.51707439042E+02 0.49203846664E+02 0.42401983097E+02
 0.33150000219E+02 0.23726179679E+02 0.16057244596E+02 0.11142512256E+02 0.88187720965E+01
 0.79298888836E+01 0.74122299381E+01 0.72316262940E+01 0.74122140042E+01 0.79298918971E+01
 0.88190437115E+01 0.11143310927E+02 0.16058210587E+02 0.23726180152E+02 0.33148096114E+02
 0.27442487569E+02 0.33255470369E+02 0.36655299443E+02 0.36656163227E+02 0.33257022325E+02
 0.27442835404E+02 0.20803545912E+02 0.14941195578E+02 0.10900174070E+02 0.88187706245E+01
 0.79320434906E+01 0.73627151238E+01 0.70660248331E+01 0.70661053998E+01 0.73626937514E+01
 0.79317040440E+01 0.88186900100E+01 0.10901217010E+02 0.14943177683E+02 0.20804982308E+02
 0.16955773391E+02 0.20944353272E+02 0.23960008055E+02 0.25082713842E+02 0.23959046808E+02
 0.20942453860E+02 0.16953469347E+02 0.13112292011E+02 0.10283494223E+02 0.87136926580E+01
 0.79298914344E+01 0.73627164681E+01 0.70133270694E+01 0.68978985092E+01 0.70135183482E+01
 0.73624606231E+01 0.79289161143E+01 0.87127353745E+01 0.10283670422E+02 0.13113923538E+02
 0.11190521380E+02 0.13269971342E+02 0.15223803609E+02 0.16407436978E+02 0.16406407021E+02
 0.15221561653E+02 0.13268296946E+02 0.11190594233E+02 0.95571716542E+01 0.85657775483E+01
 0.79272395099E+01 0.74122325352E+01 0.70660219306E+01 0.68978974092E+01 0.68981004990E+01
 0.70663776846E+01 0.74121325875E+01 0.79261819096E+01 0.85639492986E+01 0.95556131436E+01
 0.89691300962E+01 0.97126219611E+01 0.10580250308E+02 0.11294015588E+02 0.11570375624E+02
 0.11293333546E+02 0.10580249855E+02 0.97142466430E+01 0.89716090186E+01 0.84234452801E+01
 0.79339815018E+01 0.75227732012E+01 0.72316238369E+01 0.70661033472E+01 0.70135215799E+01
 0.70663785346E+01 0.72324075662E+01 0.75237136877E+01 0.79339788882E+01 0.84218038540E+01
 0.82649386524E+01 0.85722662611E+01 0.88545111962E+01 0.91130801760E+01 0.92795391474E+01
 0.92798868204E+01 0.91142318184E+01 0.88563327661E+01 0.85738195031E+01 0.82650195826E+01
 0.79620179329E+01 0.77065546877E+01 0.75226724893E+01 0.74122132399E+01 0.73626966069E+01
 0.73624621342E+01 0.74121292262E+01 0.75237131124E+01 0.77085649415E+01 0.79635927337E+01
 0.80222131730E+01 0.81093985194E+01 0.82148906021E+01 0.83188182386E+01 0.83961177254E+01
 0.84251871425E+01 0.83970778916E+01 0.83197744701E+01 0.82147178136E+01 0.81077655308E+01
 0.80199067183E+01 0.79619318535E+01 0.79337869912E+01 0.79271434607E+01 0.79298914344E+01
 0.79317044217E+01 0.79289131009E+01 0.79261809891E+01 0.79339821610E+01 0.79635929852E+01
 0.82649355160E+01 0.81093985182E+01 0.79857698844E+01 0.79104714146E+01 0.78788390815E+01
 0.78717138289E+01 0.78719401178E+01 0.78789119877E+01 0.79094401098E+01 0.79837934042E+01
 0.81078618576E+01 0.82650386004E+01 0.84233635859E+01 0.85657778259E+01 0.87138949254E+01
 0.88190426318E+01 0.88186904024E+01 0.87127353992E+01 0.85639521894E+01 0.84218040590E+01
 0.89691273512E+01 0.85722665992E+01 0.82148934534E+01 0.79104712575E+01 0.76984581508E+01
 0.75823631151E+01 0.75466785843E+01 0.75820907201E+01 0.76976720707E+01 0.79095218040E+01
 0.82148920424E+01 0.85739202151E+01 0.89716293003E+01 0.95572530709E+01 0.10283668452E+02
 0.10900527772E+02 0.11143313810E+02 0.10901217950E+02 0.10283669949E+02 0.95556125764E+01
 0.11190521870E+02 0.97126229128E+01 0.88545136163E+01 0.83188175668E+01 0.78788367321E+01
 0.75823634110E+01 0.74391449435E+01 0.74389504991E+01 0.75820169446E+01 0.78789199064E+01
 0.83198336129E+01 0.88563058295E+01 0.97141728676E+01 0.11190601874E+02 0.13112245213E+02
 0.14940915652E+02 0.16057170821E+02 0.16058211131E+02 0.14943174820E+02 0.13113922658E+02
 0.16955776125E+02 0.13269972126E+02 0.10580249732E+02 0.91130790142E+01 0.83961159164E+01
 0.78717148125E+01 0.75466804352E+01 0.74389501588E+01 0.75465043555E+01 0.78719794329E+01
 0.83970778916E+01 0.91140100972E+01 0.10580055344E+02 0.13268336539E+02 0.16953469347E+02
 0.20803071201E+02 0.23725203896E+02 0.24815744774E+02 0.23726178233E+02 0.20804982394E+02
 0.27442489346E+02 0.20944352683E+02 0.15223801094E+02 0.11294014906E+02 0.92795399690E+01
 0.84251885558E+01 0.78719413509E+01 0.75820896388E+01 0.75820155675E+01 0.78719796824E+01
 0.84255493227E+01 0.92796399847E+01 0.11292985998E+02 0.15221827784E+02 0.20942921981E+02
 0.27442841558E+02 0.33149652671E+02 0.36491706208E+02 0.36490841164E+02 0.33148097463E+02
 0.42398716804E+02 0.33255468520E+02 0.23960006588E+02 0.16407437880E+02 0.11570377830E+02
 0.92798875166E+01 0.83970769137E+01 0.78789105075E+01 0.76976713824E+01 0.78789207756E+01
 0.83970787227E+01 0.92796398593E+01 0.11569609137E+02 0.16406488438E+02 0.23960007805E+02
 0.33257376026E+02 0.42401997883E+02 0.49135106726E+02 0.51615464013E+02 0.49132507704E+02
 0.59974404337E+02 0.49201262809E+02 0.36655300167E+02 0.25082715889E+02 0.16406407861E+02
 0.11293332436E+02 0.91142300420E+01 0.83197738098E+01 0.79094412390E+01 0.79095230903E+01
 0.83198336245E+01 0.91140094825E+01 0.11292985569E+02 0.16406488376E+02 0.25083623287E+02
 0.36656839544E+02 0.49202816645E+02 0.59975448941E+02 0.66228963601E+02 0.66228611996E+02
 0.76916506703E+02 0.66263005727E+02 0.51707440320E+02 0.36656164337E+02 0.23959045591E+02
 0.15221559358E+02 0.10580249732E+02 0.88563340292E+01 0.82147192246E+01 0.79837940018E+01
 0.82148906021E+01 0.88563046725E+01 0.10580055797E+02 0.15221828004E+02 0.23960008055E+02
 0.36656839930E+02 0.51706463259E+02 0.66260411352E+02 0.76914201866E+02 0.80836218703E+02
 0.89307365476E+02 0.80847292307E+02 0.66263347443E+02 0.49203845300E+02 0.33257020992E+02
 0.20942452663E+02 0.13268298644E+02 0.97142491606E+01 0.85738190715E+01 0.81077643516E+01
 0.81078606796E+01 0.85739194454E+01 0.97141744335E+01 0.13268337453E+02 0.20942921373E+02
 0.33257376542E+02 0.49202816589E+02 0.66260410658E+02 0.80843829293E+02 0.89305806114E+02
 0.65578664882E+02 0.62363809131E+02 0.53637246497E+02 0.41755775147E+02 0.29575168711E+02
 0.19483856016E+02 0.12770097251E+02 0.94003305454E+01 0.81883060336E+01 0.76176700966E+01
 0.74135246267E+01 0.76176872016E+01 0.81883236921E+01 0.94003357041E+01 0.12770094546E+02
 0.19483858752E+02 0.29575180181E+02 0.41755785372E+02 0.53637247135E+02 0.62363804674E+02
 0.62364772747E+02 0.62363807977E+02 0.56384050462E+02 0.46101298942E+02 0.34166868814E+02
 0.23225044828E+02 0.15106198835E+02 0.10403551730E+02 0.84471654622E+01 0.77099833853E+01