   2   2   0   0
  0.8868361E+01  0.2236800E-09  0.2236800E-09  0.4093440E-09  0.5000000E-15
  1.000000000000000E-004
  CAR 
 unknown system                          
     78.95702595     -4.90976458  301      8.62312342      1.00000000
     -4.910  0.0000E+00  0.0000E+00
     -4.630  0.0000E+00  0.0000E+00
     -4.351  0.0000E+00  0.0000E+00
     -4.071  0.0000E+00  0.0000E+00
     -3.792  0.0000E+00  0.0000E+00
     -3.512  0.0000E+00  0.0000E+00
     -3.232  0.0000E+00  0.0000E+00
     -2.953 -0.6001E-39 -0.1678E-39
     -2.673 -0.1324E-28 -0.3701E-29
     -2.394 -0.5700E-20 -0.1593E-20
     -2.114 -0.4575E-13 -0.1279E-13
     -1.835 -0.7114E-08 -0.1989E-08
     -1.555 -0.1985E-04 -0.5551E-05
     -1.276 -0.4214E-03 -0.1233E-03
     -0.996  0.8932E-02  0.2374E-02
     -0.716  0.4223E-01  0.1418E-01
     -0.437  0.9764E-01  0.4148E-01
     -0.157  0.5143E-01  0.5585E-01
      0.122  0.1295E+00  0.9206E-01
      0.402  0.1533E+00  0.1349E+00
      0.681  0.1965E+00  0.1898E+00
      0.961  0.8573E-01  0.2138E+00
      1.240  0.1745E+00  0.2626E+00
      1.520  0.3003E+00  0.3465E+00
      1.800  0.2955E+00  0.4291E+00
      2.079  0.3154E+00  0.5173E+00
      2.359  0.2548E+00  0.5885E+00
      2.638  0.4038E+00  0.7014E+00
      2.918  0.1636E+01  0.1159E+01
      3.197  0.1944E+01  0.1702E+01
      3.477  0.2039E+01  0.2272E+01
      3.756  0.2402E+01  0.2944E+01
      4.036  0.2566E+01  0.3661E+01
      4.316  0.2204E+01  0.4277E+01
      4.595  0.2350E+01  0.4934E+01
      4.875  0.2659E+01  0.5677E+01
      5.154  0.2756E+01  0.6448E+01
      5.434  0.2665E+01  0.7193E+01
      5.713  0.2115E+01  0.7784E+01
      5.993  0.1671E+01  0.8251E+01
      6.272  0.3418E+01  0.9206E+01
      6.552  0.2931E+01  0.1003E+02
      6.832  0.3010E+01  0.1087E+02
      7.111  0.3089E+01  0.1173E+02
      7.391  0.2522E+01  0.1244E+02
      7.670  0.3011E+01  0.1328E+02
      7.950  0.2931E+01  0.1410E+02
      8.229  0.2884E+01  0.1490E+02
      8.509  0.2864E+01  0.1570E+02
      8.788  0.2592E+01  0.1643E+02
      9.068  0.2886E+01  0.1724E+02
      9.348  0.3713E+01  0.1827E+02
      9.627  0.3958E+01  0.1938E+02
      9.907  0.3209E+01  0.2028E+02
     10.186  0.2809E+01  0.2106E+02
     10.466  0.6905E+00  0.2126E+02
     10.745  0.3828E+00  0.2136E+02
     11.025  0.3637E+00  0.2146E+02
     11.304  0.4907E+00  0.2160E+02
     11.584  0.7137E+00  0.2180E+02
     11.864  0.8156E+00  0.2203E+02
     12.143  0.3484E+00  0.2213E+02
     12.423  0.3223E+00  0.2222E+02
     12.702  0.4612E+00  0.2235E+02
     12.982  0.3759E+00  0.2245E+02
     13.261  0.2280E+00  0.2251E+02
     13.541  0.5436E+00  0.2267E+02
     13.820  0.5554E+00  0.2282E+02
     14.100  0.5026E+00  0.2296E+02
     14.380  0.3849E+00  0.2307E+02
     14.659  0.3638E+00  0.2317E+02
     14.939  0.9331E-01  0.2320E+02
     15.218  0.4486E+00  0.2332E+02
     15.498  0.2795E+00  0.2340E+02
     15.777  0.4107E+00  0.2352E+02
     16.057  0.1599E+00  0.2356E+02
     16.336  0.3071E+00  0.2365E+02
     16.616  0.2532E+00  0.2372E+02
     16.896  0.4658E+00  0.2385E+02
     17.175  0.5377E+00  0.2400E+02
     17.455  0.2357E+00  0.2406E+02
     17.734  0.1984E+00  0.2412E+02
     18.014  0.1309E+00  0.2416E+02
     18.293  0.7555E-01  0.2418E+02
     18.573  0.3014E+00  0.2426E+02
     18.852  0.3376E+00  0.2436E+02
     19.132  0.7828E-01  0.2438E+02
     19.412  0.4472E+00  0.2450E+02
     19.691  0.4215E+00  0.2462E+02
     19.971  0.7735E+00  0.2484E+02
     20.250  0.1008E+01  0.2512E+02
     20.530  0.7058E+00  0.2532E+02
     20.809  0.4266E+00  0.2543E+02
     21.089  0.4794E+00  0.2557E+02
     21.368  0.6563E+00  0.2575E+02
     21.648  0.5130E+00  0.2590E+02
     21.928  0.7140E+00  0.2609E+02
     22.207  0.1029E+01  0.2638E+02
     22.487  0.5500E+00  0.2654E+02
     22.766  0.5429E+00  0.2669E+02
     23.046  0.3787E+00  0.2679E+02
     23.325  0.7311E+00  0.2700E+02
     23.605  0.7746E+00  0.2721E+02
     23.885  0.5706E+00  0.2737E+02
     24.164  0.4836E+00  0.2751E+02
     24.444  0.5125E+00  0.2765E+02
     24.723  0.6553E+00  0.2784E+02
     25.003  0.5649E+00  0.2799E+02
     25.282  0.7753E+00  0.2821E+02
     25.562  0.6252E+00  0.2839E+02
     25.841  0.5254E+00  0.2853E+02
     26.121  0.5609E+00  0.2869E+02
     26.401  0.5844E+00  0.2885E+02
     26.680  0.8498E+00  0.2909E+02
     26.960  0.1140E+01  0.2941E+02
     27.239  0.8137E+00  0.2964E+02
     27.519  0.5544E+00  0.2979E+02
     27.798  0.9188E+00  0.3005E+02
     28.078  0.7268E+00  0.3025E+02
     28.357  0.8836E+00  0.3050E+02
     28.637  0.9670E+00  0.3077E+02
     28.917  0.8690E+00  0.3101E+02
     29.196  0.7497E+00  0.3122E+02
     29.476  0.9457E+00  0.3149E+02
     29.755  0.6504E+00  0.3167E+02
     30.035  0.1235E+01  0.3201E+02
     30.314  0.1260E+01  0.3236E+02
     30.594  0.7809E+00  0.3258E+02
     30.873  0.5058E+00  0.3272E+02
     31.153  0.8130E+00  0.3295E+02
     31.433  0.6780E+00  0.3314E+02
     31.712  0.9759E+00  0.3341E+02
     31.992  0.7005E+00  0.3361E+02
     32.271  0.9508E+00  0.3388E+02
     32.551  0.8203E+00  0.3411E+02
     32.830  0.7667E+00  0.3432E+02
     33.110  0.7339E+00  0.3452E+02
     33.389  0.5101E+00  0.3467E+02
     33.669  0.6558E+00  0.3485E+02
     33.949  0.5293E+00  0.3500E+02
     34.228  0.5879E+00  0.3516E+02
     34.508  0.6566E+00  0.3535E+02
     34.787  0.6887E+00  0.3554E+02
     35.067  0.5600E+00  0.3570E+02
     35.346  0.6416E+00  0.3588E+02
     35.626  0.6891E+00  0.3607E+02
     35.905  0.7051E+00  0.3626E+02
     36.185  0.1064E+01  0.3656E+02
     36.465  0.6221E+00  0.3674E+02
     36.744  0.5057E+00  0.3688E+02
     37.024  0.6023E+00  0.3705E+02
     37.303  0.6903E+00  0.3724E+02
     37.583  0.6353E+00  0.3742E+02
     37.862  0.7429E+00  0.3762E+02
     38.142  0.1465E+01  0.3803E+02
     38.421  0.6481E+00  0.3821E+02
     38.701  0.5972E+00  0.3838E+02
     38.981  0.7574E+00  0.3859E+02
     39.260  0.9391E+00  0.3886E+02
     39.540  0.1237E+01  0.3920E+02
     39.819  0.8777E+00  0.3945E+02
     40.099  0.6416E+00  0.3963E+02
     40.378  0.1240E+01  0.3997E+02
     40.658  0.1179E+01  0.4030E+02
     40.937  0.1075E+01  0.4060E+02
     41.217  0.8477E+00  0.4084E+02
     41.497  0.1028E+01  0.4113E+02
     41.776  0.7632E+00  0.4134E+02
     42.056  0.5258E+00  0.4149E+02
     42.335  0.7456E+00  0.4170E+02
     42.615  0.6511E+00  0.4188E+02
     42.894  0.5998E+00  0.4205E+02
     43.174  0.5832E+00  0.4221E+02
     43.453  0.5817E+00  0.4237E+02
     43.733  0.1015E+01  0.4266E+02
     44.013  0.6957E+00  0.4285E+02
     44.292  0.9848E+00  0.4313E+02
     44.572  0.4416E+00  0.4325E+02
     44.851  0.7105E+00  0.4345E+02
     45.131  0.7367E+00  0.4365E+02
     45.410  0.6817E+00  0.4384E+02
     45.690  0.5772E+00  0.4401E+02
     45.969  0.8290E+00  0.4424E+02
     46.249  0.9895E+00  0.4451E+02
     46.529  0.9091E+00  0.4477E+02
     46.808  0.1163E+01  0.4509E+02
     47.088  0.1154E+01  0.4542E+02
     47.367  0.1175E+01  0.4574E+02
     47.647  0.7912E+00  0.4597E+02
     47.926  0.1091E+01  0.4627E+02
     48.206  0.1400E+01  0.4666E+02
     48.485  0.1028E+01  0.4695E+02
     48.765  0.9075E+00  0.4720E+02
     49.045  0.9231E+00  0.4746E+02
     49.324  0.1122E+01  0.4777E+02
     49.604  0.7523E+00  0.4799E+02
     49.883  0.8186E+00  0.4821E+02
     50.163  0.6502E+00  0.4840E+02
     50.442  0.8429E+00  0.4863E+02
     50.722  0.1117E+01  0.4894E+02
     51.001  0.1107E+01  0.4925E+02
     51.281  0.8326E+00  0.4949E+02
     51.561  0.7125E+00  0.4968E+02
     51.840  0.1005E+01  0.4997E+02
     52.120  0.1192E+01  0.5030E+02
     52.399  0.9856E+00  0.5057E+02
     52.679  0.5845E+00  0.5074E+02
     52.958  0.6741E+00  0.5093E+02
     53.238  0.1241E+01  0.5127E+02
     53.517  0.1179E+01  0.5160E+02
     53.797  0.8872E+00  0.5185E+02
     54.077  0.5134E+00  0.5199E+02
     54.356  0.8519E+00  0.5223E+02
     54.636  0.8123E+00  0.5246E+02
     54.915  0.1200E+01  0.5280E+02
     55.195  0.1005E+01  0.5308E+02
     55.474  0.1292E+01  0.5344E+02
     55.754  0.1290E+01  0.5380E+02
     56.033  0.1049E+01  0.5409E+02
     56.313  0.1349E+01  0.5447E+02
     56.593  0.1183E+01  0.5480E+02
     56.872  0.1275E+01  0.5516E+02
     57.152  0.1081E+01  0.5546E+02
     57.431  0.9039E+00  0.5571E+02
     57.711  0.8875E+00  0.5596E+02
     57.990  0.9284E+00  0.5622E+02
     58.270  0.9791E+00  0.5649E+02
     58.549  0.1523E+01  0.5692E+02
     58.829  0.1269E+01  0.5727E+02
     59.109  0.1047E+01  0.5757E+02
     59.388  0.1181E+01  0.5790E+02
     59.668  0.1295E+01  0.5826E+02
     59.947  0.1521E+01  0.5868E+02
     60.227  0.1259E+01  0.5903E+02
     60.506  0.1915E+01  0.5957E+02
     60.786  0.1404E+01  0.5996E+02
     61.065  0.1226E+01  0.6030E+02
     61.345  0.1613E+01  0.6076E+02
     61.625  0.1770E+01  0.6125E+02
     61.904  0.2022E+01  0.6182E+02
     62.184  0.1616E+01  0.6227E+02
     62.463  0.1822E+01  0.6278E+02
     62.743  0.1963E+01  0.6333E+02
     63.022  0.1338E+01  0.6370E+02
     63.302  0.1903E+01  0.6423E+02
     63.581  0.2492E+01  0.6493E+02
     63.861  0.3010E+01  0.6577E+02
     64.141  0.2830E+01  0.6656E+02
     64.420  0.2499E+01  0.6726E+02
     64.700  0.1695E+01  0.6773E+02
     64.979  0.1524E+01  0.6816E+02
     65.259  0.1535E+01  0.6859E+02
     65.538  0.1681E+01  0.6906E+02
     65.818  0.1258E+01  0.6941E+02
     66.097  0.1171E+01  0.6974E+02
     66.377  0.1119E+01  0.7005E+02
     66.657  0.1448E+01  0.7046E+02
     66.936  0.1242E+01  0.7080E+02
     67.216  0.1379E+01  0.7119E+02
     67.495  0.1355E+01  0.7157E+02
     67.775  0.1478E+01  0.7198E+02
     68.054  0.1915E+01  0.7252E+02
     68.334  0.1320E+01  0.7288E+02
     68.613  0.1349E+01  0.7326E+02
     68.893  0.9208E+00  0.7352E+02
     69.173  0.1462E+01  0.7393E+02
     69.452  0.1621E+01  0.7438E+02
     69.732  0.1215E+01  0.7472E+02
     70.011  0.9037E+00  0.7497E+02
     70.291  0.1253E+01  0.7532E+02
     70.570  0.1960E+01  0.7587E+02
     70.850  0.1287E+01  0.7623E+02
     71.129  0.1739E+01  0.7672E+02
     71.409  0.1666E+01  0.7718E+02
     71.689  0.1508E+01  0.7760E+02
     71.968  0.8086E+00  0.7783E+02
     72.248  0.1034E+01  0.7812E+02
     72.527  0.1278E+01  0.7848E+02
     72.807  0.7943E+00  0.7870E+02
     73.086  0.1064E+01  0.7900E+02
     73.366  0.1200E+01  0.7933E+02
     73.645  0.1144E+01  0.7965E+02
     73.925  0.3981E+00  0.7976E+02
     74.205  0.4898E+00  0.7990E+02
     74.484  0.2053E+00  0.7996E+02
     74.764  0.1256E+00  0.7999E+02
     75.043  0.1114E-02  0.7999E+02
     75.323  0.2820E-01  0.8000E+02
     75.602 -0.2161E-03  0.8000E+02
     75.882 -0.9154E-04  0.8000E+02
     76.161 -0.3942E-07  0.8000E+02
     76.441 -0.2680E-12  0.8000E+02
     76.721  0.0000E+00  0.8000E+02
     77.000  0.0000E+00  0.8000E+02
     77.280  0.0000E+00  0.8000E+02
     77.559  0.0000E+00  0.8000E+02
     77.839  0.0000E+00  0.8000E+02
     78.118  0.0000E+00  0.8000E+02
     78.398  0.0000E+00  0.8000E+02
     78.677  0.0000E+00  0.8000E+02
     78.957  0.0000E+00  0.8000E+02
