unknown system                          
   1.00000000000000     
     3.862764    0.000000    0.000000
     0.000000    3.862764    0.000000
     0.000000    0.000000    3.862764
   Cu
     4
Direct
  0.000000  0.000000  0.000000
  0.500000  0.500000  0.000000
  0.500000  0.000000  0.500000
  0.000000  0.500000  0.500000
 
   36   36   36
  1019.5      966.88      824.10      629.13      426.61      252.99      129.02      58.245      28.993      19.880    
  14.473      10.977      8.9168      7.7547      7.0338      6.5043      6.1593      6.0245      6.0051      6.0245    
  6.1593      6.5043      7.0338      7.7547      8.9168      10.977      14.473      19.880      28.993      58.245    
  129.02      252.99      426.61      629.13      824.10      966.88      966.88      916.80      780.87      595.29    
  402.70      238.03      121.09      54.993      28.104      19.555      14.291      10.899      8.8974      7.7609    
  7.0498      6.5260      6.1832      6.0459      6.0245      6.0459      6.1832      6.5260      7.0498      7.7609    
  8.8974      10.899      14.291      19.555      28.104      54.993      121.09      238.03      402.70      595.29    
  780.87      916.80      824.10      780.87      663.55      503.54      338.11      197.93      100.15      46.655    
  25.888      18.635      13.788      10.694      8.8625      7.8068      7.1357      6.6416      6.3178      6.1832    
  6.1593      6.1832      6.3178      6.6416      7.1357      7.8068      8.8625      10.694      13.788      18.635    
  25.888      46.655      100.15      197.93      338.11      503.54      663.55      780.87      629.13      595.29    
  503.54      378.87      251.15      144.95      73.450      36.656      23.268      17.271      13.074      10.431    
  8.8597      7.9383      7.3463      6.9175      6.6416      6.5260      6.5043      6.5260      6.6416      6.9175    
  7.3463      7.9383      8.8597      10.431      13.074      17.271      23.268      36.656      73.450      144.95    
  251.15      378.87      503.54      595.29      426.61      402.70      338.11      251.15      163.71      93.530    
  49.125      28.393      20.671      15.689      12.299      10.190      8.9293      8.1749      7.6877      7.3463    
  7.1357      7.0498      7.0338      7.0498      7.1357      7.3463      7.6877      8.1749      8.9293      10.190    
  12.299      15.689      20.671      28.393      49.125      93.530      163.71      251.15      338.11      402.70    
  252.99      238.03      197.93      144.95      93.530      54.742      32.568      23.148      17.984      14.136    
  11.603      10.045      9.1063      8.5371      8.1749      7.9383      7.8068      7.7609      7.7547      7.7609    
  7.8068      7.9383      8.1749      8.5371      9.1063      10.045      11.603      14.136      17.984      23.148    
  32.568      54.742      93.530      144.95      197.93      238.03      129.02      121.09      100.15      73.450    
  49.125      32.568      24.112      19.333      15.516      12.816      11.094      10.055      9.4479      9.1063    
  8.9293      8.8597      8.8625      8.8974      8.9168      8.8974      8.8625      8.8597      8.9293      9.1063    
  9.4479      10.055      11.094      12.816      15.516      19.333      24.112      32.568      49.125      73.450    
  100.15      121.09      58.245      54.993      46.655      36.656      28.393      23.148      19.333      16.033    
  13.531      11.851      10.836      10.287      10.055      10.045      10.190      10.431      10.694      10.899    
  10.977      10.899      10.694      10.431      10.190      10.045      10.055      10.287      10.836      11.851    
  13.531      16.033      19.333      23.148      28.393      36.656      46.655      54.993      28.993      28.104    
  25.888      23.268      20.671      17.984      15.516      13.531      12.130      11.277      10.877      10.836    
  11.094      11.603      12.299      13.074      13.788      14.291      14.473      14.291      13.788      13.074    
  12.299      11.603      11.094      10.836      10.877      11.277      12.130      13.531      15.516      17.984    
  20.671      23.268      25.888      28.104      19.880      19.555      18.635      17.271      15.689      14.136    
  12.816      11.851      11.277      11.089      11.277      11.851      12.816      14.136      15.689      17.271    
  18.635      19.555      19.880      19.555      18.635      17.271      15.689      14.136      12.816      11.851    
  11.277      11.089      11.277      11.851      12.816      14.136      15.689      17.271      18.635      19.555    
  14.473      14.291      13.788      13.074      12.299      11.603      11.094      10.836      10.877      11.277    
  12.130      13.531      15.516      17.984      20.671      23.268      25.888      28.104      28.993      28.104    
  25.888      23.268      20.671      17.984      15.516      13.531      12.130      11.277      10.877      10.836    
  11.094      11.603      12.299      13.074      13.788      14.291      10.977      10.899      10.694      10.431    
  10.190      10.045      10.055      10.287      10.836      11.851      13.531      16.033      19.333      23.148    
  28.393      36.656      46.655      54.993      58.245      54.993      46.655      36.656      28.393      23.148    
  19.333      16.033      13.531      11.851      10.836      10.287      10.055      10.045      10.190      10.431    
  10.694      10.899      8.9168      8.8974      8.8625      8.8597      8.9293      9.1063      9.4479      10.055    
  11.094      12.816      15.516      19.333      24.112      32.568      49.125      73.450      100.15      121.09    
  129.02      121.09      100.15      73.450      49.125      32.568      24.112      19.333      15.516      12.816    
  11.094      10.055      9.4479      9.1063      8.9293      8.8597      8.8625      8.8974      7.7547      7.7609    
  7.8068      7.9383      8.1749      8.5371      9.1063      10.045      11.603      14.136      17.984      23.148    
  32.568      54.742      93.530      144.95      197.93      238.03      252.99      238.03      197.93      144.95    
  93.530      54.742      32.568      23.148      17.984      14.136      11.603      10.045      9.1063      8.5371    
  8.1749      7.9383      7.8068      7.7609      7.0338      7.0498      7.1357      7.3463      7.6877      8.1749    
  8.9293      10.190      12.299      15.689      20.671      28.393      49.125      93.530      163.71      251.15    
  338.11      402.70      426.61      402.70      338.11      251.15      163.71      93.530      49.125      28.393    
  20.671      15.689      12.299      10.190      8.9293      8.1749      7.6877      7.3463      7.1357      7.0498    
  6.5043      6.5260      6.6416      6.9175      7.3463      7.9383      8.8597      10.431      13.074      17.271    
  23.268      36.656      73.450      144.95      251.15      378.87      503.54      595.29      629.13      595.29    
  503.54      378.87      251.15      144.95      73.450      36.656      23.268      17.271      13.074      10.431    
  8.8597      7.9383      7.3463      6.9175      6.6416      6.5260      6.1593      6.1832      6.3178      6.6416    
  7.1357      7.8068      8.8625      10.694      13.788      18.635      25.888      46.655      100.15      197.93    
  338.11      503.54      663.55      780.87      824.10      780.87      663.55      503.54      338.11      197.93    
  100.15      46.655      25.888      18.635      13.788      10.694      8.8625      7.8068      7.1357      6.6416    
  6.3178      6.1832      6.0245      6.0459      6.1832      6.5260      7.0498      7.7609      8.8974      10.899    
  14.291      19.555      28.104      54.993      121.09      238.03      402.70      595.29      780.87      916.80    
  966.88      916.80      780.87      595.29      402.70      238.03      121.09      54.993      28.104      19.555    
  14.291      10.899      8.8974      7.7609      7.0498      6.5260      6.1832      6.0459      6.0051      6.0245    
  6.1593      6.5043      7.0338      7.7547      8.9168      10.977      14.473      19.880      28.993      58.245    
  129.02      252.99      426.61      629.13      824.10      966.88      1019.5      966.88      824.10      629.13    
  426.61      252.99      129.02      58.245      28.993      19.880      14.473      10.977      8.9168      7.7547    
  7.0338      6.5043      6.1593      6.0245      6.0245      6.0459      6.1832      6.5260      7.0498      7.7609    
  8.8974      10.899      14.291      19.555      28.104      54.993      121.09      238.03      402.70      595.29    
  780.87      916.80      966.88      916.80      780.87      595.29      402.70      238.03      121.09      54.993    
  28.104      19.555      14.291      10.899      8.8974      7.7609      7.0498      6.5260      6.1832      6.0459    
  6.1593      6.1832      6.3178      6.6416      7.1357      7.8068      8.8625      10.694      13.788      18.635    
  25.888      46.655      100.15      197.93      338.11      503.54      663.55      780.87      824.10      780.87    
  663.55      503.54      338.11      197.93      100.15      46.655      25.888      18.635      13.788      10.694    
  8.8625      7.8068      7.1357      6.6416      6.3178      6.1832      6.5043      6.5260      6.6416      6.9175    
  7.3463      7.9383      8.8597      10.431      13.074      17.271      23.268      36.656      73.450      144.95    
  251.15      378.87      503.54      595.29      629.13      595.29      503.54      378.87      251.15      144.95    
  73.450      36.656      23.268      17.271      13.074      10.431      8.8597      7.9383      7.3463      6.9175    
  6.6416      6.5260      7.0338      7.0498      7.1357      7.3463      7.6877      8.1749      8.9293      10.190    
  12.299      15.689      20.671      28.393      49.125      93.530      163.71      251.15      338.11      402.70    
  426.61      402.70      338.11      251.15      163.71      93.530      49.125      28.393      20.671      15.689    
  12.299      10.190      8.9293      8.1749      7.6877      7.3463      7.1357      7.0498      7.7547      7.7609    
  7.8068      7.9383      8.1749      8.5371      9.1063      10.045      11.603      14.136      17.984      23.148    
  32.568      54.742      93.530      144.95      197.93      238.03      252.99      238.03      197.93      144.95    
  93.530      54.742      32.568      23.148      17.984      14.136      11.603      10.045      9.1063      8.5371    
  8.1749      7.9383      7.8068      7.7609      8.9168      8.8974      8.8625      8.8597      8.9293      9.1063    
  9.4479      10.055      11.094      12.816      15.516      19.333      24.112      32.568      49.125      73.450    
  100.15      121.09      129.02      121.09      100.15      73.450      49.125      32.568      24.112      19.333    
  15.516      12.816      11.094      10.055      9.4479      9.1063      8.9293      8.8597      8.8625      8.8974    
  10.977      10.899      10.694      10.431      10.190      10.045      10.055      10.287      10.836      11.851    
  13.531      16.033      19.333      23.148      28.393      36.656      46.655      54.993      58.245      54.993    
  46.655      36.656      28.393      23.148      19.333      16.033      13.531      11.851      10.836      10.287    
  10.055      10.045      10.190      10.431      10.694      10.899      14.473      14.291      13.788      13.074    
  12.299      11.603      11.094      10.836      10.877      11.277      12.130      13.531      15.516      17.984    
  20.671      23.268      25.888      28.104      28.993      28.104      25.888      23.268      20.671      17.984    
  15.516      13.531      12.130      11.277      10.877      10.836      11.094      11.603      12.299      13.074    
  13.788      14.291      19.880      19.555      18.635      17.271      15.689      14.136      12.816      11.851    
  11.277      11.089      11.277      11.851      12.816      14.136      15.689      17.271      18.635      19.555    
  19.880      19.555      18.635      17.271      15.689      14.136      12.816      11.851      11.277      11.089    
  11.277      11.851      12.816      14.136      15.689      17.271      18.635      19.555      28.993      28.104    
  25.888      23.268      20.671      17.984      15.516      13.531      12.130      11.277      10.877      10.836    
  11.094      11.603      12.299      13.074      13.788      14.291      14.473      14.291      13.788      13.074    
  12.299      11.603      11.094      10.836      10.877      11.277      12.130      13.531      15.516      17.984    
  20.671      23.268      25.888      28.104      58.245      54.993      46.655      36.656      28.393      23.148    
  19.333      16.033      13.531      11.851      10.836      10.287      10.055      10.045      10.190      10.431    
  10.694      10.899      10.977      10.899      10.694      10.431      10.190      10.045      10.055      10.287    
  10.836      11.851      13.531      16.033      19.333      23.148      28.393      36.656      46.655      54.993    
  129.02      121.09      100.15      73.450      49.125      32.568      24.112      19.333      15.516      12.816    
  11.094      10.055      9.4479      9.1063      8.9293      8.8597      8.8625      8.8974      8.9168      8.8974    
  8.8625      8.8597      8.9293      9.1063      9.4479      10.055      11.094      12.816      15.516      19.333    
  24.112      32.568      49.125      73.450      100.15      121.09      252.99      238.03      197.93      144.95    
  93.530      54.742      32.568      23.148      17.984      14.136      11.603      10.045      9.1063      8.5371    
  8.1749      7.9383      7.8068      7.7609      7.7547      7.7609      7.8068      7.9383      8.1749      8.5371    
  9.1063      10.045      11.603      14.136      17.984      23.148      32.568      54.742      93.530      144.95    
  197.93      238.03      426.61      402.70      338.11      251.15      163.71      93.530      49.125      28.393    
  20.671      15.689      12.299      10.190      8.9293      8.1749      7.6877      7.3463      7.1357      7.0498    
  7.0338      7.0498      7.1357      7.3463      7.6877      8.1749      8.9293      10.190      12.299      15.689    
  20.671      28.393      49.125      93.530      163.71      251.15      338.11      402.70      629.13      595.29    
  503.54      378.87      251.15      144.95      73.450      36.656      23.268      17.271      13.074      10.431    
  8.8597      7.9383      7.3463      6.9175      6.6416      6.5260      6.5043      6.5260      6.6416      6.9175    
  7.3463      7.9383      8.8597      10.431      13.074      17.271      23.268      36.656      73.450      144.95    
  251.15      378.87      503.54      595.29      824.10      780.87      663.55      503.54      338.11      197.93    
  100.15      46.655      25.888      18.635      13.788      10.694      8.8625      7.8068      7.1357      6.6416    
  6.3178      6.1832      6.1593      6.1832      6.3178      6.6416      7.1357      7.8068      8.8625      10.694    
  13.788      18.635      25.888      46.655      100.15      197.93      338.11      503.54      663.55      780.87    
  966.88      916.80      780.87      595.29      402.70      238.03      121.09      54.993      28.104      19.555    
  14.291      10.899      8.8974      7.7609      7.0498      6.5260      6.1832      6.0459      6.0245      6.0459    
  6.1832      6.5260      7.0498      7.7609      8.8974      10.899      14.291      19.555      28.104      54.993    
  121.09      238.03      402.70      595.29      780.87      916.80      966.88      916.80      780.87      595.29    
  402.70      238.03      121.09      54.993      28.104      19.555      14.291      10.899      8.8974      7.7609    
  7.0498      6.5260      6.1832      6.0459      6.0245      6.0459      6.1832      6.5260      7.0498      7.7609    
  8.8974      10.899      14.291      19.555      28.104      54.993      121.09      238.03      402.70      595.29    
  780.87      916.80      916.80      869.12      739.71      563.09      379.99      223.88      113.64      51.985    
  27.294      19.238      14.114      10.823      8.8783      7.7669      7.0660      6.5484      6.2083      6.0693    
  6.0459      6.0693      6.2083      6.5484      7.0660      7.7669      8.8783      10.823      14.114      19.238    
  27.294      51.985      113.64      223.88      379.99      563.09      739.71      869.12      780.87      739.71    
  628.05      475.85      318.72      186.01      94.043      44.295      25.268      18.338      13.624      10.623    
  8.8434      7.8113      7.1508      6.6637      6.3436      6.2083      6.1832      6.2083      6.3436      6.6637    
  7.1508      7.8113      8.8434      10.623      13.624      18.338      25.268      44.295      94.043      186.01    
  318.72      475.85      628.05      739.71      595.29      563.09      475.85      357.42      236.34      136.10    
  69.131      35.118      22.838      17.008      12.930      10.366      8.8394      7.9387      7.3568      6.9353    
  6.6637      6.5484      6.5260      6.5484      6.6637      6.9353      7.3568      7.9387      8.8394      10.366    
  12.930      17.008      22.838      35.118      69.131      136.10      236.34      357.42      475.85      563.09    
  402.70      379.99      318.72      236.34      153.77      87.874      46.589      27.576      20.321      15.467    
  12.178      10.133      8.9063      8.1691      7.6913      7.3568      7.1508      7.0660      7.0498      7.0660    
  7.1508      7.3568      7.6913      8.1691      8.9063      10.133      12.178      15.467      20.321      27.576    
  46.589      87.874      153.77      236.34      318.72      379.99      238.03      223.88      186.01      136.10    
  87.874      51.783      31.394      22.728      17.698      13.959      11.504      9.9917      9.0790      8.5233    
  8.1691      7.9387      7.8113      7.7669      7.7609      7.7669      7.8113      7.9387      8.1691      8.5233    
  9.0790      9.9917      11.504      13.959      17.698      22.728      31.394      51.783      87.874      136.10    
  186.01      223.88      121.09      113.64      94.043      69.131      46.589      31.394      23.641      19.012    
  15.299      12.681      11.012      10.004      9.4126      9.0790      8.9063      8.8394      8.8434      8.8783    
  8.8974      8.8783      8.8434      8.8394      8.9063      9.0790      9.4126      10.004      11.012      12.681    
  15.299      19.012      23.641      31.394      46.589      69.131      94.043      113.64      54.993      51.985    
  44.295      35.118      27.576      22.728      19.012      15.802      13.375      11.748      10.764      10.231    
  10.004      9.9917      10.133      10.366      10.623      10.823      10.899      10.823      10.623      10.366    
  10.133      9.9917      10.004      10.231      10.764      11.748      13.375      15.802      19.012      22.728    
  27.576      35.118      44.295      51.985      28.104      27.294      25.268      22.838      20.321      17.698    
  15.299      13.375      12.019      11.195      10.806      10.764      11.012      11.504      12.178      12.930    
  13.624      14.114      14.291      14.114      13.624      12.930      12.178      11.504      11.012      10.764    
  10.806      11.195      12.019      13.375      15.299      17.698      20.321      22.838      25.268      27.294    
  19.555      19.238      18.338      17.008      15.467      13.959      12.681      11.748      11.195      11.013    
  11.195      11.748      12.681      13.959      15.467      17.008      18.338      19.238      19.555      19.238    
  18.338      17.008      15.467      13.959      12.681      11.748      11.195      11.013      11.195      11.748    
  12.681      13.959      15.467      17.008      18.338      19.238      14.291      14.114      13.624      12.930    
  12.178      11.504      11.012      10.764      10.806      11.195      12.019      13.375      15.299      17.698    
  20.321      22.838      25.268      27.294      28.104      27.294      25.268      22.838      20.321      17.698    
  15.299      13.375      12.019      11.195      10.806      10.764      11.012      11.504      12.178      12.930    
  13.624      14.114      10.899      10.823      10.623      10.366      10.133      9.9917      10.004      10.231    
  10.764      11.748      13.375      15.802      19.012      22.728      27.576      35.118      44.295      51.985    
  54.993      51.985      44.295      35.118      27.576      22.728      19.012      15.802      13.375      11.748    
  10.764      10.231      10.004      9.9917      10.133      10.366      10.623      10.823      8.8974      8.8783    
  8.8434      8.8394      8.9063      9.0790      9.4126      10.004      11.012      12.681      15.299      19.012    
  23.641      31.394      46.589      69.131      94.043      113.64      121.09      113.64      94.043      69.131    
  46.589      31.394      23.641      19.012      15.299      12.681      11.012      10.004      9.4126      9.0790    
  8.9063      8.8394      8.8434      8.8783      7.7609      7.7669      7.8113      7.9387      8.1691      8.5233    
  9.0790      9.9917      11.504      13.959      17.698      22.728      31.394      51.783      87.874      136.10    
  186.01      223.88      238.03      223.88      186.01      136.10      87.874      51.783      31.394      22.728    
  17.698      13.959      11.504      9.9917      9.0790      8.5233      8.1691      7.9387      7.8113      7.7669    
  7.0498      7.0660      7.1508      7.3568      7.6913      8.1691      8.9063      10.133      12.178      15.467    
  20.321      27.576      46.589      87.874      153.77      236.34      318.72      379.99      402.70      379.99    
  318.72      236.34      153.77      87.874      46.589      27.576      20.321      15.467      12.178      10.133    
  8.9063      8.1691      7.6913      7.3568      7.1508      7.0660      6.5260      6.5484      6.6637      6.9353    
  7.3568      7.9387      8.8394      10.366      12.930      17.008      22.838      35.118      69.131      136.10    
  236.34      357.42      475.85      563.09      595.29      563.09      475.85      357.42      236.34      136.10    
  69.131      35.118      22.838      17.008      12.930      10.366      8.8394      7.9387      7.3568      6.9353    
  6.6637      6.5484      6.1832      6.2083      6.3436      6.6637      7.1508      7.8113      8.8434      10.623    
  13.624      18.338      25.268      44.295      94.043      186.01      318.72      475.85      628.05      739.71    
  780.87      739.71      628.05      475.85      318.72      186.01      94.043      44.295      25.268      18.338    
  13.624      10.623      8.8434      7.8113      7.1508      6.6637      6.3436      6.2083      6.0459      6.0693    
  6.2083      6.5484      7.0660      7.7669      8.8783      10.823      14.114      19.238      27.294      51.985    
  113.64      223.88      379.99      563.09      739.71      869.12      916.80      869.12      739.71      563.09    
  379.99      223.88      113.64      51.985      27.294      19.238      14.114      10.823      8.8783      7.7669    
  7.0660      6.5484      6.2083      6.0693      6.0245      6.0459      6.1832      6.5260      7.0498      7.7609    
  8.8974      10.899      14.291      19.555      28.104      54.993      121.09      238.03      402.70      595.29    
  780.87      916.80      966.88      916.80      780.87      595.29      402.70      238.03      121.09      54.993    
  28.104      19.555      14.291      10.899      8.8974      7.7609      7.0498      6.5260      6.1832      6.0459    
  6.0459      6.0693      6.2083      6.5484      7.0660      7.7669      8.8783      10.823      14.114      19.238    
  27.294      51.985      113.64      223.88      379.99      563.09      739.71      869.12      916.80      869.12    
  739.71      563.09      379.99      223.88      113.64      51.985      27.294      19.238      14.114      10.823    
  8.8783      7.7669      7.0660      6.5484      6.2083      6.0693      6.1832      6.2083      6.3436      6.6637    
  7.1508      7.8113      8.8434      10.623      13.624      18.338      25.268      44.295      94.043      186.01    
  318.72      475.85      628.05      739.71      780.87      739.71      628.05      475.85      318.72      186.01    
  94.043      44.295      25.268      18.338      13.624      10.623      8.8434      7.8113      7.1508      6.6637    
  6.3436      6.2083      6.5260      6.5484      6.6637      6.9353      7.3568      7.9387      8.8394      10.366    
  12.930      17.008      22.838      35.118      69.131      136.10      236.34      357.42      475.85      563.09    
  595.29      563.09      475.85      357.42      236.34      136.10      69.131      35.118      22.838      17.008    
  12.930      10.366      8.8394      7.9387      7.3568      6.9353      6.6637      6.5484      7.0498      7.0660    
  7.1508      7.3568      7.6913      8.1691      8.9063      10.133      12.178      15.467      20.321      27.576    
  46.589      87.874      153.77      236.34      318.72      379.99      402.70      379.99      318.72      236.34    
  153.77      87.874      46.589      27.576      20.321      15.467      12.178      10.133      8.9063      8.1691    
  7.6913      7.3568      7.1508      7.0660      7.7609      7.7669      7.8113      7.9387      8.1691      8.5233    
  9.0790      9.9917      11.504      13.959      17.698      22.728      31.394      51.783      87.874      136.10    
  186.01      223.88      238.03      223.88      186.01      136.10      87.874      51.783      31.394      22.728    
  17.698      13.959      11.504      9.9917      9.0790      8.5233      8.1691      7.9387      7.8113      7.7669    
  8.8974      8.8783      8.8434      8.8394      8.9063      9.0790      9.4126      10.004      11.012      12.681    
  15.299      19.012      23.641      31.394      46.589      69.131      94.043      113.64      121.09      113.64    
  94.043      69.131      46.589      31.394      23.641      19.012      15.299      12.681      11.012      10.004    
  9.4126      9.0790      8.9063      8.8394      8.8434      8.8783      10.899      10.823      10.623      10.366    
  10.133      9.9917      10.004      10.231      10.764      11.748      13.375      15.802      19.012      22.728    
  27.576      35.118      44.295      51.985      54.993      51.985      44.295      35.118      27.576      22.728    
  19.012      15.802      13.375      11.748      10.764      10.231      10.004      9.9917      10.133      10.366    
  10.623      10.823      14.291      14.114      13.624      12.930      12.178      11.504      11.012      10.764    
  10.806      11.195      12.019      13.375      15.299      17.698      20.321      22.838      25.268      27.294    
  28.104      27.294      25.268      22.838      20.321      17.698      15.299      13.375      12.019      11.195    
  10.806      10.764      11.012      11.504      12.178      12.930      13.624      14.114      19.555      19.238    
  18.338      17.008      15.467      13.959      12.681      11.748      11.195      11.013      11.195      11.748    
  12.681      13.959      15.467      17.008      18.338      19.238      19.555      19.238      18.338      17.008    
  15.467      13.959      12.681      11.748      11.195      11.013      11.195      11.748      12.681      13.959    
  15.467      17.008      18.338      19.238      28.104      27.294      25.268      22.838      20.321      17.698    
  15.299      13.375      12.019      11.195      10.806      10.764      11.012      11.504      12.178      12.930    
  13.624      14.114      14.291      14.114      13.624      12.930      12.178      11.504      11.012      10.764    
  10.806      11.195      12.019      13.375      15.299      17.698      20.321      22.838      25.268      27.294    
  54.993      51.985      44.295      35.118      27.576      22.728      19.012      15.802      13.375      11.748    
  10.764      10.231      10.004      9.9917      10.133      10.366      10.623      10.823      10.899      10.823    
  10.623      10.366      10.133      9.9917      10.004      10.231      10.764      11.748      13.375      15.802    
  19.012      22.728      27.576      35.118      44.295      51.985      121.09      113.64      94.043      69.131    
  46.589      31.394      23.641      19.012      15.299      12.681      11.012      10.004      9.4126      9.0790    
  8.9063      8.8394      8.8434      8.8783      8.8974      8.8783      8.8434      8.8394      8.9063      9.0790    
  9.4126      10.004      11.012      12.681      15.299      19.012      23.641      31.394      46.589      69.131    
  94.043      113.64      238.03      223.88      186.01      136.10      87.874      51.783      31.394      22.728    
  17.698      13.959      11.504      9.9917      9.0790      8.5233      8.1691      7.9387      7.8113      7.7669    
  7.7609      7.7669      7.8113      7.9387      8.1691      8.5233      9.0790      9.9917      11.504      13.959    
  17.698      22.728      31.394      51.783      87.874      136.10      186.01      223.88      402.70      379.99    