unknown system                          
   1.00000000000000     
     3.862764    0.000000    0.000000
     0.000000    3.862764    0.000000
     0.000000    0.000000    3.862764
   Cu
     4
Direct
  0.000000  0.000000  0.000000
  0.500000  0.500000  0.000000
  0.500000  0.000000  0.500000
  0.000000  0.500000  0.500000
 
   36   36   36
 0.10194911477E+04 0.96688038895E+03 0.82410428978E+03 0.62913439071E+03 0.42660926115E+03
 0.25299477166E+03 0.12902435602E+03 0.58245105929E+02 0.28992637355E+02 0.19879586894E+02
 0.14473039778E+02 0.10977240817E+02 0.89167572948E+01 0.77547322625E+01 0.70337974056E+01
 0.65042844336E+01 0.61592983789E+01 0.60244657021E+01 0.60051018505E+01 0.60244657021E+01
 0.61592983789E+01 0.65042844336E+01 0.70337974055E+01 0.77547322625E+01 0.89167572948E+01
 0.10977240817E+02 0.14473039778E+02 0.19879586894E+02 0.28992637355E+02 0.58245105929E+02
 0.12902435602E+03 0.25299477166E+03 0.42660926115E+03 0.62913439071E+03 0.82410428978E+03
 0.96688038895E+03 0.96688038895E+03 0.91679571163E+03 0.78086889300E+03 0.59528552731E+03
 0.40269626865E+03 0.23802929649E+03 0.12108806796E+03 0.54992732038E+02 0.28104050514E+02
 0.19555278868E+02 0.14291190440E+02 0.10899350559E+02 0.88973964873E+01 0.77608615892E+01
 0.70498065957E+01 0.65260013103E+01 0.61831887805E+01 0.60459438513E+01 0.60244657021E+01
 0.60459438513E+01 0.61831887805E+01 0.65260013103E+01 0.70498065957E+01 0.77608615892E+01
 0.88973964873E+01 0.10899350559E+02 0.14291190440E+02 0.19555278868E+02 0.28104050514E+02
 0.54992732038E+02 0.12108806796E+03 0.23802929649E+03 0.40269626865E+03 0.59528552731E+03
 0.78086889300E+03 0.91679571163E+03 0.82410428978E+03 0.78086889300E+03 0.66354676372E+03
 0.50353971140E+03 0.33811154952E+03 0.19793298146E+03 0.10015448010E+03 0.46655246722E+02
 0.25887781769E+02 0.18635096600E+02 0.13787500402E+02 0.10693941070E+02 0.88624645281E+01
 0.78067571372E+01 0.71357292039E+01 0.66416207605E+01 0.63177591758E+01 0.61831887805E+01
 0.61592983789E+01 0.61831887805E+01 0.63177591758E+01 0.66416207605E+01 0.71357292039E+01
 0.78067571372E+01 0.88624645281E+01 0.10693941070E+02 0.13787500402E+02 0.18635096600E+02
 0.25887781769E+02 0.46655246722E+02 0.10015448010E+03 0.19793298146E+03 0.33811154952E+03
 0.50353971140E+03 0.66354676372E+03 0.78086889300E+03 0.62913439071E+03 0.59528552731E+03
 0.50353971140E+03 0.37887439273E+03 0.25114935438E+03 0.14494849672E+03 0.73449756005E+02
 0.36655705452E+02 0.23268336195E+02 0.17271102688E+02 0.13074145904E+02 0.10430720586E+02
 0.88597155453E+01 0.79382718457E+01 0.73463031223E+01 0.69175377780E+01 0.66416207605E+01
 0.65260013103E+01 0.65042844336E+01 0.65260013103E+01 0.66416207605E+01 0.69175377780E+01
 0.73463031223E+01 0.79382718457E+01 0.88597155453E+01 0.10430720586E+02 0.13074145904E+02
 0.17271102688E+02 0.23268336195E+02 0.36655705452E+02 0.73449756005E+02 0.14494849672E+03
 0.25114935438E+03 0.37887439273E+03 0.50353971140E+03 0.59528552731E+03 0.42660926115E+03
 0.40269626865E+03 0.33811154952E+03 0.25114935438E+03 0.16371311731E+03 0.93530142912E+02
 0.49125118069E+02 0.28392658569E+02 0.20670883113E+02 0.15688996578E+02 0.12298849242E+02
 0.10190430760E+02 0.89293122217E+01 0.81748747129E+01 0.76876546984E+01 0.73463031223E+01
 0.71357292039E+01 0.70498065957E+01 0.70337974056E+01 0.70498065957E+01 0.71357292039E+01
 0.73463031223E+01 0.76876546984E+01 0.81748747129E+01 0.89293122217E+01 0.10190430760E+02
 0.12298849242E+02 0.15688996578E+02 0.20670883113E+02 0.28392658569E+02 0.49125118069E+02
 0.93530142912E+02 0.16371311731E+03 0.25114935438E+03 0.33811154952E+03 0.40269626865E+03
 0.25299477166E+03 0.23802929649E+03 0.19793298146E+03 0.14494849672E+03 0.93530142912E+02
 0.54742336013E+02 0.32567661499E+02 0.23148066706E+02 0.17983968568E+02 0.14135853331E+02
 0.11603376604E+02 0.10044697624E+02 0.91062515525E+01 0.85371090428E+01 0.81748747129E+01
 0.79382718457E+01 0.78067571372E+01 0.77608615892E+01 0.77547322625E+01 0.77608615892E+01
 0.78067571372E+01 0.79382718457E+01 0.81748747129E+01 0.85371090428E+01 0.91062515525E+01
 0.10044697624E+02 0.11603376604E+02 0.14135853331E+02 0.17983968568E+02 0.23148066706E+02
 0.32567661499E+02 0.54742336013E+02 0.93530142912E+02 0.14494849672E+03 0.19793298146E+03
 0.23802929649E+03 0.12902435602E+03 0.12108806796E+03 0.10015448010E+03 0.73449756005E+02
 0.49125118069E+02 0.32567661499E+02 0.24111842929E+02 0.19333339766E+02 0.15516134529E+02
 0.12816392031E+02 0.11093743609E+02 0.10055216922E+02 0.94478922967E+01 0.91062515525E+01
 0.89293122217E+01 0.88597155453E+01 0.88624645281E+01 0.88973964873E+01 0.89167572948E+01
 0.88973964873E+01 0.88624645281E+01 0.88597155453E+01 0.89293122217E+01 0.91062515525E+01
 0.94478922967E+01 0.10055216922E+02 0.11093743609E+02 0.12816392031E+02 0.15516134529E+02
 0.19333339766E+02 0.24111842929E+02 0.32567661499E+02 0.49125118069E+02 0.73449756005E+02
 0.10015448010E+03 0.12108806796E+03 0.58245105929E+02 0.54992732038E+02 0.46655246722E+02
 0.36655705452E+02 0.28392658569E+02 0.23148066706E+02 0.19333339766E+02 0.16033376952E+02
 0.13530695105E+02 0.11850896552E+02 0.10835734861E+02 0.10287395375E+02 0.10055216922E+02
 0.10044697624E+02 0.10190430760E+02 0.10430720586E+02 0.10693941070E+02 0.10899350559E+02
 0.10977240817E+02 0.10899350559E+02 0.10693941070E+02 0.10430720586E+02 0.10190430760E+02
 0.10044697624E+02 0.10055216922E+02 0.10287395375E+02 0.10835734861E+02 0.11850896552E+02
 0.13530695105E+02 0.16033376952E+02 0.19333339766E+02 0.23148066706E+02 0.28392658569E+02
 0.36655705452E+02 0.46655246722E+02 0.54992732038E+02 0.28992637355E+02 0.28104050514E+02
 0.25887781769E+02 0.23268336195E+02 0.20670883113E+02 0.17983968568E+02 0.15516134529E+02
 0.13530695105E+02 0.12129511688E+02 0.11277251163E+02 0.10876527331E+02 0.10835734861E+02
 0.11093743609E+02 0.11603376604E+02 0.12298849242E+02 0.13074145904E+02 0.13787500402E+02
 0.14291190440E+02 0.14473039778E+02 0.14291190440E+02 0.13787500402E+02 0.13074145904E+02
 0.12298849242E+02 0.11603376604E+02 0.11093743609E+02 0.10835734861E+02 0.10876527331E+02
 0.11277251163E+02 0.12129511688E+02 0.13530695105E+02 0.15516134529E+02 0.17983968568E+02
 0.20670883113E+02 0.23268336195E+02 0.25887781769E+02 0.28104050514E+02 0.19879586894E+02
 0.19555278868E+02 0.18635096600E+02 0.17271102688E+02 0.15688996578E+02 0.14135853331E+02
 0.12816392031E+02 0.11850896552E+02 0.11277251163E+02 0.11088796760E+02 0.11277251163E+02
 0.11850896552E+02 0.12816392031E+02 0.14135853331E+02 0.15688996578E+02 0.17271102688E+02
 0.18635096600E+02 0.19555278868E+02 0.19879586894E+02 0.19555278868E+02 0.18635096600E+02
 0.17271102688E+02 0.15688996578E+02 0.14135853331E+02 0.12816392031E+02 0.11850896552E+02
 0.11277251163E+02 0.11088796760E+02 0.11277251163E+02 0.11850896552E+02 0.12816392031E+02
 0.14135853331E+02 0.15688996578E+02 0.17271102688E+02 0.18635096600E+02 0.19555278868E+02
 0.14473039778E+02 0.14291190440E+02 0.13787500402E+02 0.13074145904E+02 0.12298849242E+02
 0.11603376604E+02 0.11093743609E+02 0.10835734861E+02 0.10876527331E+02 0.11277251163E+02
 0.12129511688E+02 0.13530695105E+02 0.15516134529E+02 0.17983968568E+02 0.20670883113E+02
 0.23268336195E+02 0.25887781769E+02 0.28104050514E+02 0.28992637355E+02 0.28104050514E+02
 0.25887781769E+02 0.23268336195E+02 0.20670883113E+02 0.17983968568E+02 0.15516134529E+02
 0.13530695105E+02 0.12129511688E+02 0.11277251163E+02 0.10876527331E+02 0.10835734861E+02
 0.11093743609E+02 0.11603376604E+02 0.12298849242E+02 0.13074145904E+02 0.13787500402E+02
 0.14291190440E+02 0.10977240817E+02 0.10899350559E+02 0.10693941070E+02 0.10430720586E+02
 0.10190430760E+02 0.10044697624E+02 0.10055216922E+02 0.10287395375E+02 0.10835734861E+02
 0.11850896552E+02 0.13530695105E+02 0.16033376952E+02 0.19333339766E+02 0.23148066706E+02
 0.28392658569E+02 0.36655705452E+02 0.46655246722E+02 0.54992732038E+02 0.58245105929E+02
 0.54992732038E+02 0.46655246722E+02 0.36655705452E+02 0.28392658569E+02 0.23148066706E+02
 0.19333339766E+02 0.16033376952E+02 0.13530695105E+02 0.11850896552E+02 0.10835734861E+02
 0.10287395375E+02 0.10055216922E+02 0.10044697624E+02 0.10190430760E+02 0.10430720586E+02
 0.10693941070E+02 0.10899350559E+02 0.89167572948E+01 0.88973964873E+01 0.88624645281E+01
 0.88597155453E+01 0.89293122217E+01 0.91062515525E+01 0.94478922967E+01 0.10055216922E+02
 0.11093743609E+02 0.12816392031E+02 0.15516134529E+02 0.19333339766E+02 0.24111842929E+02
 0.32567661499E+02 0.49125118069E+02 0.73449756005E+02 0.10015448010E+03 0.12108806796E+03
 0.12902435602E+03 0.12108806796E+03 0.10015448010E+03 0.73449756005E+02 0.49125118069E+02
 0.32567661499E+02 0.24111842929E+02 0.19333339766E+02 0.15516134529E+02 0.12816392031E+02
 0.11093743609E+02 0.10055216922E+02 0.94478922967E+01 0.91062515525E+01 0.89293122217E+01
 0.88597155453E+01 0.88624645281E+01 0.88973964873E+01 0.77547322625E+01 0.77608615892E+01
 0.78067571372E+01 0.79382718457E+01 0.81748747129E+01 0.85371090428E+01 0.91062515525E+01
 0.10044697624E+02 0.11603376604E+02 0.14135853331E+02 0.17983968568E+02 0.23148066706E+02
 0.32567661499E+02 0.54742336013E+02 0.93530142912E+02 0.14494849672E+03 0.19793298146E+03
 0.23802929649E+03 0.25299477166E+03 0.23802929649E+03 0.19793298146E+03 0.14494849672E+03
 0.93530142912E+02 0.54742336013E+02 0.32567661499E+02 0.23148066706E+02 0.17983968568E+02
 0.14135853331E+02 0.11603376604E+02 0.10044697624E+02 0.91062515525E+01 0.85371090428E+01
 0.81748747129E+01 0.79382718457E+01 0.78067571372E+01 0.77608615892E+01 0.70337974056E+01
 0.70498065957E+01 0.71357292039E+01 0.73463031223E+01 0.76876546984E+01 0.81748747129E+01
 0.89293122217E+01 0.10190430760E+02 0.12298849242E+02 0.15688996578E+02 0.20670883113E+02
 0.28392658569E+02 0.49125118069E+02 0.93530142912E+02 0.16371311731E+03 0.25114935438E+03
 0.33811154952E+03 0.40269626865E+03 0.42660926115E+03 0.40269626865E+03 0.33811154952E+03
 0.25114935438E+03 0.16371311731E+03 0.93530142912E+02 0.49125118069E+02 0.28392658569E+02
 0.20670883113E+02 0.15688996578E+02 0.12298849242E+02 0.10190430760E+02 0.89293122217E+01
 0.81748747129E+01 0.76876546984E+01 0.73463031223E+01 0.71357292039E+01 0.70498065957E+01
 0.65042844336E+01 0.65260013103E+01 0.66416207605E+01 0.69175377780E+01 0.73463031223E+01
 0.79382718457E+01 0.88597155453E+01 0.10430720586E+02 0.13074145904E+02 0.17271102688E+02
 0.23268336195E+02 0.36655705452E+02 0.73449756005E+02 0.14494849672E+03 0.25114935438E+03
 0.37887439273E+03 0.50353971140E+03 0.59528552731E+03 0.62913439071E+03 0.59528552731E+03
 0.50353971140E+03 0.37887439273E+03 0.25114935438E+03 0.14494849672E+03 0.73449756005E+02
 0.36655705452E+02 0.23268336195E+02 0.17271102688E+02 0.13074145904E+02 0.10430720586E+02
 0.88597155453E+01 0.79382718457E+01 0.73463031223E+01 0.69175377780E+01 0.66416207605E+01
 0.65260013103E+01 0.61592983789E+01 0.61831887805E+01 0.63177591758E+01 0.66416207605E+01
 0.71357292039E+01 0.78067571372E+01 0.88624645281E+01 0.10693941070E+02 0.13787500402E+02
 0.18635096600E+02 0.25887781769E+02 0.46655246722E+02 0.10015448010E+03 0.19793298146E+03
 0.33811154952E+03 0.50353971140E+03 0.66354676372E+03 0.78086889300E+03 0.82410428978E+03
 0.78086889300E+03 0.66354676372E+03 0.50353971140E+03 0.33811154952E+03 0.19793298146E+03
 0.10015448010E+03 0.46655246722E+02 0.25887781769E+02 0.18635096600E+02 0.13787500402E+02
 0.10693941070E+02 0.88624645282E+01 0.78067571372E+01 0.71357292039E+01 0.66416207605E+01
 0.63177591758E+01 0.61831887805E+01 0.60244657021E+01 0.60459438513E+01 0.61831887805E+01
 0.65260013103E+01 0.70498065957E+01 0.77608615892E+01 0.88973964873E+01 0.10899350559E+02
 0.14291190440E+02 0.19555278868E+02 0.28104050514E+02 0.54992732038E+02 0.12108806796E+03
 0.23802929649E+03 0.40269626865E+03 0.59528552731E+03 0.78086889300E+03 0.91679571163E+03
 0.96688038895E+03 0.91679571163E+03 0.78086889300E+03 0.59528552731E+03 0.40269626865E+03
 0.23802929649E+03 0.12108806796E+03 0.54992732038E+02 0.28104050514E+02 0.19555278868E+02
 0.14291190440E+02 0.10899350559E+02 0.88973964873E+01 0.77608615892E+01 0.70498065957E+01
 0.65260013103E+01 0.61831887805E+01 0.60459438513E+01 0.60051018505E+01 0.60244657021E+01
 0.61592983789E+01 0.65042844336E+01 0.70337974056E+01 0.77547322625E+01 0.89167572948E+01
 0.10977240817E+02 0.14473039778E+02 0.19879586894E+02 0.28992637355E+02 0.58245105929E+02
 0.12902435602E+03 0.25299477166E+03 0.42660926115E+03 0.62913439071E+03 0.82410428978E+03
 0.96688038895E+03 0.10194911477E+04 0.96688038895E+03 0.82410428978E+03 0.62913439071E+03
 0.42660926115E+03 0.25299477166E+03 0.12902435602E+03 0.58245105929E+02 0.28992637355E+02
 0.19879586894E+02 0.14473039778E+02 0.10977240817E+02 0.89167572948E+01 0.77547322625E+01
 0.70337974056E+01 0.65042844336E+01 0.61592983789E+01 0.60244657021E+01 0.60244657021E+01
 0.60459438513E+01 0.61831887805E+01 0.65260013103E+01 0.70498065957E+01 0.77608615892E+01
 0.88973964873E+01 0.10899350559E+02 0.14291190440E+02 0.19555278868E+02 0.28104050514E+02
 0.54992732038E+02 0.12108806796E+03 0.23802929649E+03 0.40269626865E+03 0.59528552731E+03
 0.78086889300E+03 0.91679571163E+03 0.96688038895E+03 0.91679571163E+03 0.78086889300E+03
 0.59528552731E+03 0.40269626865E+03 0.23802929649E+03 0.12108806796E+03 0.54992732038E+02
 0.28104050514E+02 0.19555278868E+02 0.14291190440E+02 0.10899350559E+02 0.88973964873E+01
 0.77608615892E+01 0.70498065957E+01 0.65260013103E+01 0.61831887805E+01 0.60459438513E+01
 0.61592983789E+01 0.61831887805E+01 0.63177591758E+01 0.66416207605E+01 0.71357292039E+01
 0.78067571372E+01 0.88624645281E+01 0.10693941070E+02 0.13787500402E+02 0.18635096600E+02
 0.25887781769E+02 0.46655246722E+02 0.10015448010E+03 0.19793298146E+03 0.33811154952E+03
 0.50353971140E+03 0.66354676372E+03 0.78086889300E+03 0.82410428978E+03 0.78086889300E+03
 0.66354676372E+03 0.50353971140E+03 0.33811154952E+03 0.19793298146E+03 0.10015448010E+03
 0.46655246722E+02 0.25887781769E+02 0.18635096600E+02 0.13787500402E+02 0.10693941070E+02
 0.88624645282E+01 0.78067571372E+01 0.71357292039E+01 0.66416207605E+01 0.63177591758E+01
 0.61831887805E+01 0.65042844336E+01 0.65260013103E+01 0.66416207605E+01 0.69175377780E+01
 0.73463031223E+01 0.79382718457E+01 0.88597155453E+01 0.10430720586E+02 0.13074145904E+02
 0.17271102688E+02 0.23268336195E+02 0.36655705452E+02 0.73449756005E+02 0.14494849672E+03
 0.25114935438E+03 0.37887439273E+03 0.50353971140E+03 0.59528552731E+03 0.62913439071E+03
 0.59528552731E+03 0.50353971140E+03 0.37887439273E+03 0.25114935438E+03 0.14494849672E+03
 0.73449756005E+02 0.36655705452E+02 0.23268336195E+02 0.17271102688E+02 0.13074145904E+02
 0.10430720586E+02 0.88597155453E+01 0.79382718457E+01 0.73463031223E+01 0.69175377780E+01
 0.66416207605E+01 0.65260013103E+01 0.70337974056E+01 0.70498065957E+01 0.71357292039E+01
 0.73463031223E+01 0.76876546984E+01 0.81748747129E+01 0.89293122217E+01 0.10190430760E+02
 0.12298849242E+02 0.15688996578E+02 0.20670883113E+02 0.28392658569E+02 0.49125118069E+02
 0.93530142912E+02 0.16371311731E+03 0.25114935438E+03 0.33811154952E+03 0.40269626865E+03
 0.42660926115E+03 0.40269626865E+03 0.33811154952E+03 0.25114935438E+03 0.16371311731E+03
 0.93530142912E+02 0.49125118069E+02 0.28392658569E+02 0.20670883113E+02 0.15688996578E+02
 0.12298849242E+02 0.10190430760E+02 0.89293122217E+01 0.81748747129E+01 0.76876546984E+01
 0.73463031223E+01 0.71357292039E+01 0.70498065957E+01 0.77547322625E+01 0.77608615892E+01
 0.78067571372E+01 0.79382718457E+01 0.81748747129E+01 0.85371090428E+01 0.91062515525E+01
 0.10044697624E+02 0.11603376604E+02 0.14135853331E+02 0.17983968568E+02 0.23148066706E+02
 0.32567661499E+02 0.54742336013E+02 0.93530142912E+02 0.14494849672E+03 0.19793298146E+03
 0.23802929649E+03 0.25299477166E+03 0.23802929649E+03 0.19793298146E+03 0.14494849672E+03
 0.93530142912E+02 0.54742336013E+02 0.32567661499E+02 0.23148066706E+02 0.17983968568E+02
 0.14135853331E+02 0.11603376604E+02 0.10044697624E+02 0.91062515525E+01 0.85371090428E+01
 0.81748747129E+01 0.79382718457E+01 0.78067571372E+01 0.77608615892E+01 0.89167572948E+01
 0.88973964873E+01 0.88624645281E+01 0.88597155453E+01 0.89293122217E+01 0.91062515525E+01
 0.94478922967E+01 0.10055216922E+02 0.11093743609E+02 0.12816392031E+02 0.15516134529E+02
 0.19333339766E+02 0.24111842929E+02 0.32567661499E+02 0.49125118069E+02 0.73449756005E+02
 0.10015448010E+03 0.12108806796E+03 0.12902435602E+03 0.12108806796E+03 0.10015448010E+03
 0.73449756005E+02 0.49125118069E+02 0.32567661499E+02 0.24111842929E+02 0.19333339766E+02
 0.15516134529E+02 0.12816392031E+02 0.11093743609E+02 0.10055216922E+02 0.94478922967E+01
 0.91062515525E+01 0.89293122217E+01 0.88597155453E+01 0.88624645281E+01 0.88973964873E+01
 0.10977240817E+02 0.10899350559E+02 0.10693941070E+02 0.10430720586E+02 0.10190430760E+02
 0.10044697624E+02 0.10055216922E+02 0.10287395375E+02 0.10835734861E+02 0.11850896552E+02
 0.13530695105E+02 0.16033376952E+02 0.19333339766E+02 0.23148066706E+02 0.28392658569E+02
 0.36655705452E+02 0.46655246722E+02 0.54992732038E+02 0.58245105929E+02 0.54992732038E+02
 0.46655246722E+02 0.36655705452E+02 0.28392658569E+02 0.23148066706E+02 0.19333339766E+02
 0.16033376952E+02 0.13530695105E+02 0.11850896552E+02 0.10835734861E+02 0.10287395375E+02
 0.10055216922E+02 0.10044697624E+02 0.10190430760E+02 0.10430720586E+02 0.10693941070E+02
 0.10899350559E+02 0.14473039778E+02 0.14291190440E+02 0.13787500402E+02 0.13074145904E+02
 0.12298849242E+02 0.11603376604E+02 0.11093743609E+02 0.10835734861E+02 0.10876527331E+02
 0.11277251163E+02 0.12129511688E+02 0.13530695105E+02 0.15516134529E+02 0.17983968568E+02
 0.20670883113E+02 0.23268336195E+02 0.25887781769E+02 0.28104050514E+02 0.28992637355E+02
 0.28104050514E+02 0.25887781769E+02 0.23268336195E+02 0.20670883113E+02 0.17983968568E+02
 0.15516134529E+02 0.13530695105E+02 0.12129511688E+02 0.11277251163E+02 0.10876527331E+02
 0.10835734861E+02 0.11093743609E+02 0.11603376604E+02 0.12298849242E+02 0.13074145904E+02
 0.13787500402E+02 0.14291190440E+02 0.19879586894E+02 0.19555278868E+02 0.18635096600E+02
 0.17271102688E+02 0.15688996578E+02 0.14135853331E+02 0.12816392031E+02 0.11850896552E+02
 0.11277251163E+02 0.11088796760E+02 0.11277251163E+02 0.11850896552E+02 0.12816392031E+02
 0.14135853331E+02 0.15688996578E+02 0.17271102688E+02 0.18635096600E+02 0.19555278868E+02
 0.19879586894E+02 0.19555278868E+02 0.18635096600E+02 0.17271102688E+02 0.15688996578E+02
 0.14135853331E+02 0.12816392031E+02 0.11850896552E+02 0.11277251163E+02 0.11088796760E+02
 0.11277251163E+02 0.11850896552E+02 0.12816392031E+02 0.14135853331E+02 0.15688996578E+02
 0.17271102688E+02 0.18635096600E+02 0.19555278868E+02 0.28992637355E+02 0.28104050514E+02
 0.25887781769E+02 0.23268336195E+02 0.20670883113E+02 0.17983968568E+02 0.15516134529E+02
 0.13530695105E+02 0.12129511688E+02 0.11277251163E+02 0.10876527331E+02 0.10835734861E+02
 0.11093743609E+02 0.11603376604E+02 0.12298849242E+02 0.13074145904E+02 0.13787500402E+02
 0.14291190440E+02 0.14473039778E+02 0.14291190440E+02 0.13787500402E+02 0.13074145904E+02
 0.12298849242E+02 0.11603376604E+02 0.11093743609E+02 0.10835734861E+02 0.10876527331E+02
 0.11277251163E+02 0.12129511688E+02 0.13530695105E+02 0.15516134529E+02 0.17983968568E+02
 0.20670883113E+02 0.23268336195E+02 0.25887781769E+02 0.28104050514E+02 0.58245105929E+02
 0.54992732038E+02 0.46655246722E+02 0.36655705452E+02 0.28392658569E+02 0.23148066706E+02
 0.19333339766E+02 0.16033376952E+02 0.13530695105E+02 0.11850896552E+02 0.10835734861E+02
 0.10287395375E+02 0.10055216922E+02 0.10044697624E+02 0.10190430760E+02 0.10430720586E+02
 0.10693941070E+02 0.10899350559E+02 0.10977240817E+02 0.10899350559E+02 0.10693941070E+02
 0.10430720586E+02 0.10190430760E+02 0.10044697624E+02 0.10055216922E+02 0.10287395375E+02
 0.10835734861E+02 0.11850896552E+02 0.13530695105E+02 0.16033376952E+02 0.19333339766E+02
 0.23148066706E+02 0.28392658569E+02 0.36655705452E+02 0.46655246722E+02 0.54992732038E+02
 0.12902435602E+03 0.12108806796E+03 0.10015448010E+03 0.73449756005E+02 0.49125118069E+02
 0.32567661499E+02 0.24111842929E+02 0.19333339766E+02 0.15516134529E+02 0.12816392031E+02
 0.11093743609E+02 0.10055216922E+02 0.94478922967E+01 0.91062515525E+01 0.89293122217E+01
 0.88597155453E+01 0.88624645281E+01 0.88973964873E+01 0.89167572948E+01 0.88973964873E+01
 0.88624645281E+01 0.88597155453E+01 0.89293122217E+01 0.91062515525E+01 0.94478922967E+01
 0.10055216922E+02 0.11093743609E+02 0.12816392031E+02 0.15516134529E+02 0.19333339766E+02
 0.24111842929E+02 0.32567661499E+02 0.49125118069E+02 0.73449756005E+02 0.10015448010E+03
 0.12108806796E+03 0.25299477166E+03 0.23802929649E+03 0.19793298146E+03 0.14494849672E+03
 0.93530142912E+02 0.54742336013E+02 0.32567661499E+02 0.23148066706E+02 0.17983968568E+02
 0.14135853331E+02 0.11603376604E+02 0.10044697624E+02 0.91062515525E+01 0.85371090428E+01
 0.81748747129E+01 0.79382718457E+01 0.78067571372E+01 0.77608615892E+01 0.77547322625E+01
 0.77608615892E+01 0.78067571372E+01 0.79382718457E+01 0.81748747129E+01 0.85371090428E+01
 0.91062515525E+01 0.10044697624E+02 0.11603376604E+02 0.14135853331E+02 0.17983968568E+02
 0.23148066706E+02 0.32567661499E+02 0.54742336013E+02 0.93530142912E+02 0.14494849672E+03
 0.19793298146E+03 0.23802929649E+03 0.42660926115E+03 0.40269626865E+03 0.33811154952E+03
 0.25114935438E+03 0.16371311731E+03 0.93530142912E+02 0.49125118069E+02 0.28392658569E+02
 0.20670883113E+02 0.15688996578E+02 0.12298849242E+02 0.10190430760E+02 0.89293122217E+01
 0.81748747129E+01 0.76876546984E+01 0.73463031223E+01 0.71357292039E+01 0.70498065957E+01
 0.70337974056E+01 0.70498065957E+01 0.71357292039E+01 0.73463031223E+01 0.76876546984E+01
 0.81748747129E+01 0.89293122217E+01 0.10190430760E+02 0.12298849242E+02 0.15688996578E+02
 0.20670883113E+02 0.28392658569E+02 0.49125118069E+02 0.93530142912E+02 0.16371311731E+03
 0.25114935438E+03 0.33811154952E+03 0.40269626865E+03 0.62913439071E+03 0.59528552731E+03
 0.50353971140E+03 0.37887439273E+03 0.25114935438E+03 0.14494849672E+03 0.73449756005E+02
 0.36655705452E+02 0.23268336195E+02 0.17271102688E+02 0.13074145904E+02 0.10430720586E+02
 0.88597155453E+01 0.79382718457E+01 0.73463031223E+01 0.69175377780E+01 0.66416207605E+01
 0.65260013103E+01 0.65042844336E+01 0.65260013103E+01 0.66416207605E+01 0.69175377780E+01
 0.73463031223E+01 0.79382718457E+01 0.88597155453E+01 0.10430720586E+02 0.13074145904E+02
 0.17271102688E+02 0.23268336195E+02 0.36655705452E+02 0.73449756005E+02 0.14494849672E+03
 0.25114935438E+03 0.37887439273E+03 0.50353971140E+03 0.59528552731E+03 0.82410428978E+03
 0.78086889300E+03 0.66354676372E+03 0.50353971140E+03 0.33811154952E+03 0.19793298146E+03
 0.10015448010E+03 0.46655246722E+02 0.25887781769E+02 0.18635096600E+02 0.13787500402E+02
 0.10693941070E+02 0.88624645281E+01 0.78067571372E+01 0.71357292039E+01 0.66416207605E+01
 0.63177591758E+01 0.61831887805E+01 0.61592983789E+01 0.61831887805E+01 0.63177591758E+01
 0.66416207605E+01 0.71357292039E+01 0.78067571372E+01 0.88624645281E+01 0.10693941070E+02
 0.13787500402E+02 0.18635096600E+02 0.25887781769E+02 0.46655246722E+02 0.10015448010E+03
 0.19793298146E+03 0.33811154952E+03 0.50353971140E+03 0.66354676372E+03 0.78086889300E+03
 0.96688038895E+03 0.91679571163E+03 0.78086889300E+03 0.59528552731E+03 0.40269626865E+03
 0.23802929649E+03 0.12108806796E+03 0.54992732038E+02 0.28104050514E+02 0.19555278868E+02
 0.14291190440E+02 0.10899350559E+02 0.88973964873E+01 0.77608615892E+01 0.70498065957E+01
 0.65260013103E+01 0.61831887805E+01 0.60459438513E+01 0.60244657021E+01 0.60459438513E+01
 0.61831887805E+01 0.65260013103E+01 0.70498065957E+01 0.77608615892E+01 0.88973964873E+01
 0.10899350559E+02 0.14291190440E+02 0.19555278868E+02 0.28104050514E+02 0.54992732038E+02
 0.12108806796E+03 0.23802929649E+03 0.40269626865E+03 0.59528552731E+03 0.78086889300E+03
 0.91679571163E+03 0.96688038895E+03 0.91679571163E+03 0.78086889300E+03 0.59528552731E+03
 0.40269626865E+03 0.23802929649E+03 0.12108806796E+03 0.54992732038E+02 0.28104050514E+02
 0.19555278868E+02 0.14291190440E+02 0.10899350559E+02 0.88973964873E+01 0.77608615892E+01
 0.70498065957E+01 0.65260013103E+01 0.61831887805E+01 0.60459438513E+01 0.60244657021E+01
 0.60459438513E+01 0.61831887805E+01 0.65260013103E+01 0.70498065957E+01 0.77608615892E+01
 0.88973964873E+01 0.10899350559E+02 0.14291190440E+02 0.19555278868E+02 0.28104050514E+02
 0.54992732038E+02 0.12108806796E+03 0.23802929649E+03 0.40269626865E+03 0.59528552731E+03
 0.78086889300E+03 0.91679571163E+03 0.91679571163E+03 0.86911571073E+03 0.73971470443E+03
 0.56308796211E+03 0.37999368147E+03 0.22388053993E+03 0.11364429630E+03 0.51985448261E+02
 0.27294039760E+02 0.19237930741E+02 0.14114134845E+02 0.10823400920E+02 0.88782965548E+01
 0.77668570239E+01 0.70659966807E+01 0.65484078365E+01 0.62083482615E+01 0.60692712188E+01
 0.60459438513E+01 0.60692712188E+01 0.62083482615E+01 0.65484078365E+01 0.70659966807E+01
 0.77668570239E+01 0.88782965548E+01 0.10823400920E+02 0.14114134845E+02 0.19237930741E+02
 0.27294039760E+02 0.51985448261E+02 0.11364429630E+03 0.22388053993E+03 0.37999368147E+03
 0.56308796211E+03 0.73971470443E+03 0.86911571073E+03 0.78086889300E+03 0.73971470443E+03
 0.62805391003E+03 0.47584738543E+03 0.31871747377E+03 0.18601268809E+03 0.94042734777E+02
 0.44295262509E+02 0.25268351258E+02 0.18338425344E+02 0.13623917477E+02 0.10623043781E+02
 0.88434057960E+01 0.78112677201E+01 0.71507550565E+01 0.66636523790E+01 0.63435650735E+01
 0.62083482615E+01 0.61831887805E+01 0.62083482615E+01 0.63435650735E+01 0.66636523790E+01
 0.71507550565E+01 0.78112677201E+01 0.88434057960E+01 0.10623043781E+02 0.13623917477E+02
 0.18338425344E+02 0.25268351258E+02 0.44295262509E+02 0.94042734777E+02 0.18601268809E+03
 0.31871747377E+03 0.47584738543E+03 0.62805391003E+03 0.73971470443E+03 0.59528552731E+03
 0.56308796211E+03 0.47584738543E+03 0.35741692885E+03 0.23634010729E+03 0.13609556677E+03
 0.69130975185E+02 0.35117824154E+02 0.22837939448E+02 0.17007544703E+02 0.12930260712E+02
 0.10366339805E+02 0.88393998718E+01 0.79386789561E+01 0.73568396985E+01 0.69352507461E+01
 0.66636523790E+01 0.65484078365E+01 0.65260013103E+01 0.65484078365E+01 0.66636523790E+01
 0.69352507461E+01 0.73568396985E+01 0.79386789560E+01 0.88393998718E+01 0.10366339805E+02
 0.12930260712E+02 0.17007544703E+02 0.22837939448E+02 0.35117824154E+02 0.69130975185E+02
 0.13609556677E+03 0.23634010729E+03 0.35741692885E+03 0.47584738543E+03 0.56308796211E+03
 0.40269626865E+03 0.37999368147E+03 0.31871747377E+03 0.23634010729E+03 0.15377219992E+03
 0.87874270945E+02 0.46589113319E+02 0.27575570795E+02 0.20320998436E+02 0.15467463978E+02
 0.12177513811E+02 0.10132501061E+02 0.89063322256E+01 0.81691355076E+01 0.76912506106E+01
 0.73568396985E+01 0.71507550565E+01 0.70659966807E+01 0.70498065957E+01 0.70659966807E+01
 0.71507550565E+01 0.73568396985E+01 0.76912506106E+01 0.81691355076E+01 0.89063322256E+01
 0.10132501061E+02 0.12177513811E+02 0.15467463978E+02 0.20320998436E+02 0.27575570795E+02
 0.46589113319E+02 0.87874270945E+02 0.15377219992E+03 0.23634010729E+03 0.31871747377E+03
 0.37999368147E+03 0.23802929649E+03 0.22388053993E+03 0.18601268809E+03 0.13609556677E+03
 0.87874270945E+02 0.51782711254E+02 0.31393538314E+02 0.22728483153E+02 0.17698425924E+02
 0.13959401653E+02 0.11503803241E+02 0.99917357844E+01 0.90790036502E+01 0.85233228913E+01
 0.81691355076E+01 0.79386789560E+01 0.78112677201E+01 0.77668570239E+01 0.77608615892E+01
 0.77668570239E+01 0.78112677201E+01 0.79386789561E+01 0.81691355076E+01 0.85233228913E+01
 0.90790036502E+01 0.99917357844E+01 0.11503803241E+02 0.13959401653E+02 0.17698425924E+02
 0.22728483153E+02 0.31393538314E+02 0.51782711254E+02 0.87874270945E+02 0.13609556677E+03
 0.18601268809E+03 0.22388053993E+03 0.12108806796E+03 0.11364429630E+03 0.94042734777E+02
 0.69130975185E+02 0.46589113319E+02 0.31393538314E+02 0.23641069869E+02 0.19012275762E+02
 0.15299395249E+02 0.12681397949E+02 0.11011751719E+02 0.10003762157E+02 0.94126101834E+01
 0.90790036502E+01 0.89063322256E+01 0.88393998718E+01 0.88434057960E+01 0.88782965548E+01
 0.88973964873E+01 0.88782965548E+01 0.88434057960E+01 0.88393998718E+01 0.89063322256E+01
 0.90790036502E+01 0.94126101834E+01 0.10003762157E+02 0.11011751719E+02 0.12681397949E+02
 0.15299395249E+02 0.19012275762E+02 0.23641069869E+02 0.31393538314E+02 0.46589113319E+02
 0.69130975185E+02 0.94042734777E+02 0.11364429630E+03 0.54992732038E+02 0.51985448261E+02
 0.44295262509E+02 0.35117824154E+02 0.27575570795E+02 0.22728483153E+02 0.19012275762E+02
 0.15801795340E+02 0.13375127226E+02 0.11748282603E+02 0.10764251538E+02 0.10231106568E+02
 0.10003762157E+02 0.99917357844E+01 0.10132501061E+02 0.10366339805E+02 0.10623043781E+02
 0.10823400920E+02 0.10899350559E+02 0.10823400920E+02 0.10623043781E+02 0.10366339805E+02
 0.10132501061E+02 0.99917357844E+01 0.10003762157E+02 0.10231106568E+02 0.10764251538E+02
 0.11748282603E+02 0.13375127226E+02 0.15801795340E+02 0.19012275762E+02 0.22728483153E+02
 0.27575570795E+02 0.35117824154E+02 0.44295262509E+02 0.51985448261E+02 0.28104050514E+02
 0.27294039760E+02 0.25268351258E+02 0.22837939448E+02 0.20320998436E+02 0.17698425924E+02
 0.15299395249E+02 0.13375127226E+02 0.12019426014E+02 0.11194806137E+02 0.10805865847E+02
 0.10764251538E+02 0.11011751719E+02 0.11503803241E+02 0.12177513811E+02 0.12930260712E+02
 0.13623917477E+02 0.14114134845E+02 0.14291190440E+02 0.14114134845E+02 0.13623917477E+02
 0.12930260712E+02 0.12177513811E+02 0.11503803241E+02 0.11011751719E+02 0.10764251538E+02
 0.10805865847E+02 0.11194806137E+02 0.12019426014E+02 0.13375127226E+02 0.15299395249E+02
 0.17698425924E+02 0.20320998436E+02 0.22837939448E+02 0.25268351258E+02 0.27294039760E+02
 0.19555278868E+02 0.19237930741E+02 0.18338425344E+02 0.17007544703E+02 0.15467463978E+02