    4    4    1    1
  0.1440902E+02  0.3862764E-09  0.3862764E-09  0.3862764E-09  0.5000000E-15
  1.000000000000000E-004
  CAR 
 unknown system                          
     44     35     30
 
  0.0000000E+00  0.0000000E+00  0.0000000E+00  0.1371742E-02
    1       -2.580044   1.000000
    2        1.515155   1.000000
    3        1.515155   1.000000
    4        1.515155   1.000000
    5        1.855046   1.000000
    6        1.855046   1.000000
    7        1.855046   1.000000
    8        2.873394   1.000000
    9        2.873394   1.000000
   10        2.873394   1.000000
   11        3.480680   1.000000
   12        3.480680   1.000000
   13        3.886334   1.000000
   14        3.886334   1.000000
   15        3.886334   1.000000
   16        4.000201   1.000000
   17        4.000201   1.000000
   18        4.000201   1.000000
   19        4.000201   1.000000
   20        4.000201   1.000000
   21        4.000201   1.000000
   22        7.007353  -0.000000
   23        7.007353  -0.000000
   24        7.007353  -0.000000
   25       11.183946   0.000000
   26       11.183946   0.000000
   27       11.183946   0.000000
   28       16.987833   0.000000
   29       16.987833   0.000000
   30       16.987833   0.000000
 
  0.1111111E+00  0.0000000E+00  0.0000000E+00  0.8230453E-02
    1       -2.449854   1.000000
    2        1.507001   1.000000
    3        1.569681   1.000000
    4        1.569681   1.000000
    5        1.884676   1.000000
    6        1.886831   1.000000
    7        1.886831   1.000000
    8        2.841570   1.000000
    9        2.899715   1.000000
   10        2.899715   1.000000
   11        3.451942   1.000000
   12        3.492645   1.000000
   13        3.833202   1.000000
   14        3.833202   1.000000
   15        3.849169   1.000000
   16        3.849169   1.000000
   17        3.873872   1.000000
   18        3.956163   1.000000
   19        3.956163   1.000000
   20        4.000275   1.000000
   21        4.000275   1.000000
   22        6.149628  -0.000000
   23        7.295387  -0.000000
   24        7.295387  -0.000000
   25       11.241710   0.000000
   26       11.241710   0.000000
   27       12.315342   0.000000
   28       16.161603   0.000000
   29       16.161603   0.000000
   30       16.378637   0.000000
 
  0.2222222E+00  0.0000000E+00  0.0000000E+00  0.8230453E-02
    1       -2.063353   1.000000
    2        1.431013   1.000000
    3        1.718919   1.000000
    4        1.718919   1.000000
    5        1.970314   1.000000
    6        1.982712   1.000000
    7        1.982712   1.000000
    8        2.750350   1.000000
    9        2.978004   1.000000
   10        2.978004   1.000000
   11        3.371837   1.000000
   12        3.461574   1.000000
   13        3.461574   1.000000
   14        3.527318   1.000000
   15        3.744014   1.000000
   16        3.744014   1.000000
   17        3.833906   1.000000
   18        3.833906   1.000000
   19        3.838112   1.000000
   20        4.000486   1.000000
   21        4.000486   1.000000
   22        4.726426   1.000319
   23        8.028834  -0.000000
   24        8.028834  -0.000000
   25       11.423187   0.000000
   26       11.423187   0.000000
   27       14.604295   0.000000
   28       14.638586   0.000000
   29       14.638586   0.000000
   30       15.183383   0.000000
 
  0.3333333E+00  0.0000000E+00  0.0000000E+00  0.8230453E-02
    1       -1.435360   1.000000
    2        1.094825   1.000000
    3        1.915992   1.000000
    4        1.915992   1.000000
    5        2.102514   1.000000
    6        2.145830   1.000000
    7        2.145830   1.000000
    8        2.611735   1.000000
    9        3.053278   1.000000
   10        3.053278   1.000000
   11        3.104210   1.000000
   12        3.104210   1.000000
   13        3.261226   1.000000
   14        3.580693   1.000000
   15        3.597231   1.000000
   16        3.597231   1.000000
   17        3.642891   1.000000
   18        3.658814   1.000000
   19        3.658814   1.000000
   20        3.783515   1.000000
   21        4.000768   1.000000
   22        4.000768   1.000000
   23        9.035777  -0.000000
   24        9.035777  -0.000000
   25       11.750907   0.000000
   26       11.750907   0.000000
   27       13.067338   0.000000
   28       13.067338   0.000000
   29       14.008373   0.000000
   30       14.008373   0.000000
 
  0.4444444E+00  0.0000000E+00  0.0000000E+00  0.8230453E-02
    1       -0.603331   1.000000
    2        0.329871   1.000000
    3        2.069719   1.000000
    4        2.069719   1.000000
    5        2.266856   1.000000
    6        2.378984   1.000000
    7        2.378984   1.000000
    8        2.443519   1.000000
    9        2.683632   1.000000
   10        2.683632   1.000000
   11        3.166537   1.000000
   12        3.202404   1.000000
   13        3.269863   1.000000
   14        3.269863   1.000000
   15        3.461866   1.000000
   16        3.461866   1.000000
   17        3.476251   1.000000
   18        3.476251   1.000000
   19        3.646517   1.000000
   20        3.717079   1.000000
   21        4.000746   1.000000
   22        4.000746   1.000000
   23       10.233512  -0.000000
   24       10.233512  -0.000000
   25       11.585546   0.000000
   26       11.585546   0.000000
   27       12.245157   0.000000
   28       12.245157   0.000000
   29       13.054069   0.000000
   30       13.054069   0.000000
 
  0.1111111E+00  0.1111111E+00  0.0000000E+00  0.1646091E-01
    1       -2.320486   1.000000
    2        1.564154   1.000000
    3        1.564154   1.000000
    4        1.621345   1.000000
    5        1.915407   1.000000
    6        1.915407   1.000000
    7        1.916682   1.000000
    8        2.825020   1.000000
    9        2.911931   1.000000
   10        2.921530   1.000000
   11        3.444765   1.000000
   12        3.487861   1.000000
   13        3.718712   1.000000
   14        3.749336   1.000000
   15        3.749336   1.000000
   16        3.814724   1.000000
   17        3.863140   1.000000
   18        3.863140   1.000000
   19        3.955983   1.000000
   20        3.955983   1.000000
   21        3.971402   1.000000
   22        6.424323  -0.000000
   23        6.424323  -0.000000
   24        7.560148  -0.000000
   25       11.301718   0.000000
   26       12.398844   0.000000
   27       12.398844   0.000000
   28       14.600195   0.000000
   29       16.329239   0.000000
   30       16.329240   0.000000
 
  0.2222222E+00  0.1111111E+00  0.0000000E+00  0.3292181E-01
    1       -1.936589   1.000000
    2        1.497359   1.000000
    3        1.721425   1.000000
    4        1.762884   1.000000
    5        1.997801   1.000000
    6        2.007044   1.000000
    7        2.008066   1.000000
    8        2.745015   1.000000
    9        2.982259   1.000000
   10        2.983476   1.000000
   11        3.375317   1.000000
   12        3.379477   1.000000
   13        3.402103   1.000000
   14        3.524057   1.000000
   15        3.564874   1.000000
   16        3.716765   1.000000
   17        3.753586   1.000000
   18        3.830627   1.000000
   19        3.833300   1.000000
   20        3.955581   1.000000
   21        3.956303   1.000000
   22        5.041154   1.035327
   23        7.084450  -0.000000
   24        8.254630  -0.000000
   25       11.489863   0.000000
   26       12.656652   0.000000
   27       12.946207   0.000000
   28       14.702469   0.000000
   29       14.796499   0.000000
   30       15.330747   0.000000
 
  0.3333333E+00  0.1111111E+00  0.0000000E+00  0.3292181E-01
    1       -1.313513   1.000000
    2        1.177070   1.000000
    3        1.931589   1.000000
    4        1.953829   1.000000
    5        2.125302   1.000000
    6        2.153969   1.000000
    7        2.165258   1.000000
    8        2.613868   1.000000
    9        2.975757   1.000000
   10        3.027890   1.000000
   11        3.061684   1.000000
   12        3.105742   1.000000
   13        3.267528   1.000000
   14        3.303783   1.000000
   15        3.579677   1.000000
   16        3.590528   1.000000
   17        3.607355   1.000000
   18        3.658048   1.000000
   19        3.741275   1.000000
   20        3.953299   1.000000
   21        3.954839   1.000000
   22        4.102900   1.000000
   23        7.950273  -0.000000
   24        9.231831  -0.000000
   25       11.440880   0.000000
   26       11.833640   0.000000
   27       13.097904   0.000000
   28       13.225356   0.000000
   29       14.151913   0.000000
   30       15.829985   0.000000
 
  0.4444444E+00  0.1111111E+00  0.0000000E+00  0.3292181E-01
    1       -0.489821   1.000000
    2        0.429910   1.000000
    3        2.102816   1.000000
    4        2.112373   1.000000
    5        2.283148   1.000000
    6        2.350681   1.000000
    7        2.389457   1.000000
    8        2.452993   1.000000
    9        2.624705   1.000000
   10        2.680163   1.000000
   11        3.061559   1.000000
   12        3.062109   1.000000
   13        3.270113   1.000000
   14        3.356403   1.000000
   15        3.461159   1.000000
   16        3.470190   1.000000
   17        3.481681   1.000000
   18        3.544670   1.000000
   19        3.676726   1.000000
   20        3.791012   1.000000
   21        3.953310   1.000000
   22        3.953972   1.000000
   23        8.962496  -0.000000
   24       10.119878  -0.000000
   25       10.410020  -0.000000
   26       11.749883   0.000000
   27       12.356543   0.000000
   28       13.079346   0.000000
   29       13.859449   0.000000
   30       14.739207   0.000000
 
  0.2222222E+00  0.2222222E+00  0.0000000E+00  0.1646091E-01
    1       -1.561057   1.000000
    2        1.681298   1.000000
    3        1.681298   1.000000
    4        1.881283   1.000000
    5        2.081347   1.000000
    6        2.081347   1.000000
    7        2.081640   1.000000
    8        2.704977   1.000000
    9        3.000474   1.000000
   10        3.021899   1.000000
   11        3.165901   1.000000
   12        3.165901   1.000000
   13        3.217070   1.000000
   14        3.357767   1.000000
   15        3.561906   1.000000
   16        3.637766   1.000000
   17        3.737293   1.000000
   18        3.737293   1.000000
   19        3.831829   1.000000
   20        3.831829   1.000000
   21        3.886597   1.000000
   22        5.658201  -0.011249
   23        5.658201  -0.011249
   24        8.874582  -0.000000
   25       11.195393   0.000000
   26       11.699292   0.000000
   27       14.986250   0.000000
   28       14.986250   0.000000
   29       15.257987   0.000000
   30       15.257987   0.000000
 
  0.3333333E+00  0.2222222E+00  0.0000000E+00  0.3292181E-01
    1       -0.954095   1.000000
    2        1.406384   1.000000
    3        1.933490   1.000000
    4        2.043945   1.000000
    5        2.192978   1.000000
    6        2.193594   1.000000
    7        2.221251   1.000000
    8        2.609593   1.000000
    9        2.798843   1.000000
   10        2.941169   1.000000
   11        2.947122   1.000000
   12        3.008166   1.000000
   13        3.123612   1.000000
   14        3.314849   1.000000
   15        3.524716   1.000000
   16        3.600055   1.000000
   17        3.655417   1.000000
   18        3.656561   1.000000
   19        3.667723   1.000000
   20        3.830117   1.000000
   21        3.848124   1.000000
   22        4.608184   1.000011
   23        6.411578  -0.000000
   24        9.669066  -0.000000
   25        9.786736  -0.000000
   26       12.071473   0.000000
   27       13.686675   0.000000
   28       14.466986   0.000000
   29       15.561379   0.000000
   30       15.991968   0.000000
 
  0.4444444E+00  0.2222222E+00  0.0000000E+00  0.3292181E-01
    1       -0.158501   1.000000
    2        0.715503   1.000000
    3        2.163408   1.000000
    4        2.228320   1.000000
    5        2.273206   1.000000
    6        2.331410   1.000000
    7        2.417980   1.000000
    8        2.477121   1.000000
    9        2.492604   1.000000
   10        2.666092   1.000000
   11        2.880186   1.000000
   12        2.950552   1.000000
   13        3.276693   1.000000
   14        3.363096   1.000000
   15        3.440325   1.000000
   16        3.461871   1.000000
   17        3.471778   1.000000
   18        3.506916   1.000000
   19        3.823218   1.000000
   20        3.829626   1.000000
   21        3.833480   1.000000
   22        4.073004   1.000000
   23        7.305147  -0.000000
   24        8.378054  -0.000000
   25       10.918240   0.000000
   26       12.227547   0.000000
   27       12.640821   0.000000
   28       13.437718   0.000000
   29       16.279786   0.000000
   30       16.961825   0.000000
 
  0.3333333E+00  0.3333333E+00  0.0000000E+00  0.1646091E-01
    1       -0.379367   1.000000
    2        1.724518   1.000000
    3        1.724518   1.000000
    4        2.118294   1.000000
    5        2.291615   1.000000
    6        2.305487   1.000000
    7        2.305487   1.000000
    8        2.575024   1.000000
    9        2.682487   1.000000
   10        2.682487   1.000000
   11        2.808295   1.000000
   12        2.964542   1.000000
   13        3.186039   1.000000
   14        3.269836   1.000000
   15        3.437915   1.000000
   16        3.529028   1.000000
   17        3.529028   1.000000
   18        3.657144   1.000000
   19        3.657144   1.000000
   20        3.751072   1.000000
   21        3.834279   1.000000
   22        5.204274   0.797634
   23        5.204274   0.797634
   24        8.148372  -0.000000
   25       10.632713  -0.000000
   26       12.494562   0.000000
   27       14.420258   0.000000
   28       14.420258   0.000000
   29       15.110302   0.000000
   30       15.110302   0.000000
 
  0.4444444E+00  0.3333333E+00  0.0000000E+00  0.3292181E-01
    1        0.357498   1.000000
    2        1.135217   1.000000
    3        2.017691   1.000000
    4        2.141574   1.000000
    5        2.395845   1.000000
    6        2.404923   1.000000
    7        2.456473   1.000000
    8        2.501101   1.000000
    9        2.501932   1.000000
   10        2.632989   1.000000
   11        2.746556   1.000000
   12        2.876244   1.000000
   13        3.285312   1.000000
   14        3.306361   1.000000
   15        3.370484   1.000000
   16        3.398638   1.000000
   17        3.407275   1.000000
   18        3.471862   1.000000
   19        3.665766   1.000000
   20        3.692390   1.000000
   21        4.076136   1.000000
   22        4.468592   1.000000
   23        5.947291  -0.000013
   24        6.910912  -0.000000
   25       11.710953   0.000000
   26       12.982502   0.000000
   27       13.127693   0.000000
   28       13.996440   0.000000
   29       15.391294   0.000000
   30       15.974382   0.000000
 
  0.4444444E+00  0.4444444E+00  0.0000000E+00  0.1646091E-01
    1        0.983311   1.000000
    2        1.584389   1.000000
    3        1.584389   1.000000
    4        1.931858   1.000000
    5        2.491803   1.000000
    6        2.491803   1.000000
    7        2.509556   1.000000
    8        2.553312   1.000000
    9        2.573452   1.000000
   10        2.657231   1.000000
   11        2.657231   1.000000
   12        2.798171   1.000000
   13        3.235571   1.000000
   14        3.290994   1.000000
   15        3.297840   1.000000
   16        3.297840   1.000000
   17        3.379848   1.000000
   18        3.504641   1.000000
   19        3.504641   1.000000
   20        3.576126   1.000000
   21        4.433923   1.000000
   22        5.004198   1.032447
   23        5.004198   1.032447
   24        5.787314  -0.000990
   25       12.741712   0.000000
   26       13.836512   0.000000
   27       13.976401   0.000000
   28       13.976401   0.000000
   29       14.783901   0.000000
   30       14.783901   0.000000
 
  0.1111111E+00  0.1111111E+00  0.1111111E+00  0.1097394E-01
    1       -2.192015   1.000000
    2        1.617861   1.000000
    3        1.617861   1.000000
    4        1.617861   1.000000
    5        1.944535   1.000000
    6        1.944535   1.000000
    7        1.944535   1.000000
    8        2.811208   1.000000
    9        2.930648   1.000000
   10        2.930648   1.000000
   11        3.462791   1.000000
   12        3.462791   1.000000
   13        3.651526   1.000000
   14        3.651526   1.000000
   15        3.651526   1.000000
   16        3.773559   1.000000
   17        3.773559   1.000000
   18        3.773559   1.000000
   19        3.961175   1.000000
   20        3.961175   1.000000
   21        3.961175   1.000000
   22        6.666797  -0.000000
   23        6.666797  -0.000000
   24        6.666797  -0.000000
   25       12.483987   0.000000
   26       12.483987   0.000000
   27       12.483987   0.000000
   28       14.757852   0.000000
   29       14.757852   0.000000
   30       14.757852   0.000000
 
  0.2222222E+00  0.1111111E+00  0.1111111E+00  0.3292181E-01
    1       -1.811086   1.000000
    2        1.557767   1.000000
    3        1.764722   1.000000
    4        1.764722   1.000000
    5        2.025187   1.000000
    6        2.032590   1.000000
    7        2.032590   1.000000
    8        2.741630   1.000000
    9        2.983374   1.000000
   10        2.986733   1.000000
   11        3.325554   1.000000
   12        3.325554   1.000000
   13        3.398986   1.000000
   14        3.448544   1.000000
   15        3.513998   1.000000
   16        3.665595   1.000000
   17        3.688796   1.000000
   18        3.688796   1.000000
   19        3.924702   1.000000
   20        3.944573   1.000000
   21        3.944573   1.000000
   22        5.273712   0.528190
   23        7.278725  -0.000000
   24        7.278725  -0.000000
   25       12.731763   0.000000
   26       12.731763   0.000000
   27       13.117510   0.000000
   28       13.117510   0.000000
   29       14.786217   0.000000
   30       15.231605   0.000000
 
  0.3333333E+00  0.1111111E+00  0.1111111E+00  0.3292181E-01
    1       -1.193674   1.000000
    2        1.251219   1.000000
    3        1.963955   1.000000
    4        1.963955   1.000000
    5        2.149792   1.000000
    6        2.173365   1.000000
    7        2.173365   1.000000
    8        2.619379   1.000000
    9        2.963149   1.000000
   10        2.963149   1.000000
   11        3.046162   1.000000
   12        3.079890   1.000000
   13        3.154953   1.000000
   14        3.355516   1.000000
   15        3.518237   1.000000
   16        3.568386   1.000000
   17        3.568386   1.000000
   18        3.590729   1.000000
   19        3.860517   1.000000
   20        3.929761   1.000000
   21        3.929761   1.000000
   22        4.266918   1.000000
   23        8.109547  -0.000000
   24        8.109547  -0.000000
   25       11.588566   0.000000
   26       11.588566   0.000000
   27       13.226069   0.000000
   28       13.226069   0.000000
   29       15.937128   0.000000
   30       15.968257   0.000000
 
  0.4444444E+00  0.1111111E+00  0.1111111E+00  0.3292181E-01
    1       -0.379826   1.000000
    2        0.523830   1.000000
    3        2.143378   1.000000
    4        2.143378   1.000000
    5        2.303049   1.000000
    6        2.331307   1.000000
    7        2.331307   1.000000
    8        2.466209   1.000000
    9        2.659572   1.000000
   10        2.659572   1.000000
   11        2.998003   1.000000
   12        3.021006   1.000000
   13        3.206556   1.000000
   14        3.357908   1.000000
   15        3.460367   1.000000
   16        3.460367   1.000000
   17        3.466245   1.000000
   18        3.682023   1.000000
   19        3.745235   1.000000
   20        3.775984   1.000000
   21        3.923288   1.000000
   22        3.923288   1.000000
   23        9.086802  -0.000000
   24        9.086802  -0.000000
   25       10.286664  -0.000000
   26       10.286664  -0.000000
   27       13.899675   0.000000
   28       13.899675   0.000000
   29       14.876396   0.000000
   30       14.876396   0.000000
 
  0.2222222E+00  0.2222222E+00  0.1111111E+00  0.3292181E-01
    1       -1.439727   1.000000
    2        1.721762   1.000000
    3        1.721762   1.000000
    4        1.878359   1.000000
    5        2.108301   1.000000
    6        2.108301   1.000000
    7        2.108696   1.000000
    8        2.709515   1.000000
    9        2.997894   1.000000
   10        3.009419   1.000000
   11        3.129338   1.000000
   12        3.129338   1.000000
   13        3.158356   1.000000
   14        3.401482   1.000000
   15        3.543408   1.000000
   16        3.575123   1.000000
   17        3.593233   1.000000
   18        3.593233   1.000000
   19        3.910611   1.000000
   20        3.910611   1.000000
   21        3.910627   1.000000
   22        5.817541  -0.000485
   23        5.817541  -0.000485
   24        7.800525  -0.000000
   25       11.346379   0.000000
   26       13.043873   0.000000
   27       13.525577   0.000000
   28       13.525577   0.000000
   29       15.122868   0.000000
   30       15.122868   0.000000
 
  0.3333333E+00  0.2222222E+00  0.1111111E+00  0.6584362E-01
    1       -0.841042   1.000000
    2        1.451913   1.000000
    3        1.938794   1.000000
    4        2.026767   1.000000
    5        2.221635   1.000000
    6        2.225517   1.000000
    7        2.241237   1.000000
    8        2.625742   1.000000
    9        2.816413   1.000000
   10        2.917653   1.000000
   11        2.921228   1.000000
   12        3.003036   1.000000
   13        3.071860   1.000000
   14        3.394735   1.000000
   15        3.448477   1.000000
   16        3.471553   1.000000
   17        3.507562   1.000000
   18        3.650264   1.000000
   19        3.841242   1.000000
   20        3.870743   1.000000
   21        3.871223   1.000000
   22        4.697803   1.000151
   23        6.533830  -0.000000
   24        8.524953  -0.000000
   25        9.864306  -0.000000
   26       12.020590   0.000000
   27       13.536129   0.000000
   28       14.235264   0.000000
   29       15.627837   0.000000
   30       16.384925   0.000000
 
  0.4444444E+00  0.2222222E+00  0.1111111E+00  0.6584362E-01
    1       -0.060539   1.000000
    2        0.787963   1.000000
    3        2.141244   1.000000
    4        2.181441   1.000000
    5        2.283993   1.000000
    6        2.333985   1.000000
    7        2.364253   1.000000
    8        2.503830   1.000000
    9        2.631790   1.000000
   10        2.710214   1.000000
   11        2.870395   1.000000
   12        2.942737   1.000000
   13        3.166569   1.000000
   14        3.296249   1.000000
   15        3.394700   1.000000
   16        3.413343   1.000000
   17        3.511517   1.000000
   18        3.707805   1.000000
   19        3.800491   1.000000
   20        3.847038   1.000000
   21        3.847098   1.000000
   22        4.070902   1.000000
   23        7.403060  -0.000000
   24        8.420019  -0.000000
   25        9.633079  -0.000000
   26       10.712668  -0.000000
   27       14.257697   0.000000
   28       15.178603   0.000000
   29       15.203980   0.000000
   30       16.336625   0.000000
 
  0.3333333E+00  0.3333333E+00  0.1111111E+00  0.3292181E-01
    1       -0.280342   1.000000
    2        1.710710   1.000000
    3        1.710710   1.000000
    4        2.054581   1.000000
    5        2.333027   1.000000
    6        2.356020   1.000000
    7        2.356020   1.000000
    8        2.609869   1.000000
    9        2.715761   1.000000
   10        2.715761   1.000000
   11        2.834925   1.000000
   12        2.964178   1.000000
   13        3.085919   1.000000
   14        3.365394   1.000000
   15        3.386199   1.000000
   16        3.386199   1.000000
   17        3.392175   1.000000
   18        3.780589   1.000000
   19        3.780589   1.000000
   20        3.801770   1.000000
   21        3.810959   1.000000
   22        5.269674   0.545222
   23        5.269674   0.545222
   24        8.151569  -0.000000
   25        9.423544  -0.000000
   26       12.711752   0.000000
   27       12.711752   0.000000
   28       14.068376   0.000000
   29       16.136070   0.000000
   30       17.027959   0.000000
 
  0.4444444E+00  0.3333333E+00  0.1111111E+00  0.6584362E-01
    1        0.429743   1.000000
    2        1.162436   1.000000
    3        1.925845   1.000000
    4        2.033704   1.000000
    5        2.435023   1.000000
    6        2.470923   1.000000
    7        2.476930   1.000000
    8        2.556912   1.000000
    9        2.631320   1.000000
   10        2.734587   1.000000
   11        2.761338   1.000000
   12        2.880621   1.000000
   13        3.137469   1.000000
   14        3.246325   1.000000
   15        3.296336   1.000000
   16        3.314816   1.000000
   17        3.475610   1.000000
   18        3.638230   1.000000
   19        3.740824   1.000000
   20        3.749415   1.000000
   21        4.051020   1.000000
   22        4.468418   1.000000
   23        6.004622  -0.000002
   24        6.963113  -0.000000
   25       10.286590  -0.000000
   26       11.394234   0.000000
   27       13.637241   0.000000
   28       14.781077   0.000000
   29       14.834235   0.000000
   30       15.831848   0.000000
 
  0.4444444E+00  0.4444444E+00  0.1111111E+00  0.3292181E-01
    1        1.007620   1.000000
    2        1.540820   1.000000
    3        1.540820   1.000000
    4        1.830779   1.000000
    5        2.584891   1.000000
    6        2.603426   1.000000
    7        2.609088   1.000000
    8        2.609088   1.000000
    9        2.683188   1.000000
   10        2.683188   1.000000
   11        2.711657   1.000000
   12        2.811554   1.000000
   13        3.127524   1.000000
   14        3.197052   1.000000
   15        3.197052   1.000000
   16        3.208024   1.000000
   17        3.497628   1.000000
   18        3.608557   1.000000
   19        3.608557   1.000000
   20        3.654141   1.000000
   21        4.412851   1.000000
   22        5.011560   1.033602
   23        5.011560   1.033602
   24        5.816140  -0.000502
   25       11.188615   0.000000
   26       12.306263   0.000000
   27       12.306263   0.000000
   28       13.436471   0.000000
   29       15.645941   0.000000
   30       16.688377   0.000000
 
  0.2222222E+00  0.2222222E+00  0.2222222E+00  0.1097394E-01
    1       -1.082093   1.000000
    2        1.819669   1.000000
    3        1.819669   1.000000
    4        1.819669   1.000000
    5        2.195230   1.000000
    6        2.195230   1.000000
    7        2.195230   1.000000
    8        2.707759   1.000000
    9        2.996712   1.000000
   10        2.996712   1.000000
   11        3.008204   1.000000
   12        3.008204   1.000000
   13        3.008204   1.000000
   14        3.444071   1.000000
   15        3.444071   1.000000
   16        3.444071   1.000000
   17        3.504949   1.000000
   18        3.504949   1.000000
   19        3.932462   1.000000
   20        3.932462   1.000000
   21        3.932462   1.000000
   22        6.247170  -0.000000
   23        6.247170  -0.000000
   24        6.247170  -0.000000
   25       11.781630   0.000000
   26       11.781630   0.000000
   27       11.781630   0.000000
   28       15.437410   0.000000
   29       15.437410   0.000000
   30       15.437410   0.000000
 
  0.3333333E+00  0.2222222E+00  0.2222222E+00  0.3292181E-01
    1       -0.511235   1.000000
    2        1.560266   1.000000
    3        1.925818   1.000000
    4        1.925818   1.000000
    5        2.324870   1.000000
    6        2.324870   1.000000
    7        2.329951   1.000000
    8        2.670693   1.000000
    9        2.855650   1.000000
   10        2.855650   1.000000
   11        2.863319   1.000000
   12        2.985775   1.000000
   13        3.013369   1.000000
   14        3.299673   1.000000
   15        3.352260   1.000000
   16        3.352260   1.000000
   17        3.519208   1.000000
   18        3.630022   1.000000
   19        3.898872   1.000000
   20        3.898872   1.000000
   21        3.913900   1.000000
   22        4.988409   1.029399
   23        6.867084  -0.000000
   24        6.867084  -0.000000
   25       10.283344  -0.000000
   26       10.283344  -0.000000
   27       12.476826   0.000000
   28       15.914865   0.000000
   29       15.970766   0.000000
   30       15.970766   0.000000
 
  0.4444444E+00  0.2222222E+00  0.2222222E+00  0.3292181E-01
    1        0.217687   1.000000
    2        0.980528   1.000000
    3        2.000873   1.000000
    4        2.000873   1.000000
    5        2.400782   1.000000
    6        2.400782   1.000000
    7        2.473463   1.000000
    8        2.590387   1.000000
    9        2.791882   1.000000
   10        2.791882   1.000000
   11        2.841970   1.000000
   12        2.918734   1.000000
   13        3.071238   1.000000
   14        3.169658   1.000000
   15        3.287584   1.000000
   16        3.287584   1.000000
   17        3.709505   1.000000
   18        3.751566   1.000000
   19        3.850861   1.000000
   20        3.861591   1.000000
   21        3.861591   1.000000
   22        4.163114   1.000000
   23        7.567358  -0.000000
   24        7.567358  -0.000000
   25        9.139122  -0.000000
   26        9.139122  -0.000000
   27       13.406693   0.000000
   28       14.554973   0.000000
   29       16.719166   0.000000
   30       16.719166   0.000000
 
  0.3333333E+00  0.3333333E+00  0.2222222E+00  0.3292181E-01
    1        0.001848   1.000000
    2        1.672298   1.000000
    3        1.672298   1.000000
    4        1.881871   1.000000
    5        2.451195   1.000000
    6        2.488086   1.000000
    7        2.488086   1.000000