<?xml version="1.0" encoding="ISO-8859-1"?>
<modeling>
 <generator>
  <i name="program" type="string">vasp </i>
  <i name="version" type="string">6.2.0  </i>
  <i name="subversion" type="string">18Jan21 (build Mar 17 2021 09:06:54) complex                          serial </i>
  <i name="platform" type="string">LinuxIFC </i>
  <i name="date" type="string">2021 08 03 </i>
  <i name="time" type="string">10:15:35 </i>
 </generator>
 <incar>
  <i type="string" name="PREC">normal</i>
  <i type="int" name="ICHARG">     1</i>
  <i type="int" name="IBRION">     1</i>
  <i name="EDIFF">      0.00000100</i>
  <i type="int" name="NSW">     0</i>
  <i type="int" name="ISIF">     2</i>
  <i name="ENCUT">    320.00000000</i>
  <i type="int" name="NBANDS">    30</i>
  <i type="int" name="ISMEAR">     1</i>
  <i name="SIGMA">      0.20000000</i>
  <i type="logical" name="LCHARG"> T  </i>
  <i type="int" name="KPAR">     1</i>
  <i type="int" name="NCORE">     1</i>
  <i type="string" name="GGA">PE</i>
 </incar>
 <primitive_cell>
  <structure name="primitive_cell" >
   <crystal>
    <varray name="basis" >
     <v>       1.93138195      -1.93138195       0.00000000 </v>
     <v>       1.93138195       0.00000000       1.93138195 </v>
     <v>       0.00000000      -1.93138195       1.93138195 </v>
    </varray>
    <i name="volume">     14.40902186 </i>
    <varray name="rec_basis" >
     <v>       0.25888199      -0.25888199      -0.25888199 </v>
     <v>       0.25888199       0.25888199       0.25888199 </v>
     <v>      -0.25888199      -0.25888199       0.25888199 </v>
    </varray>
   </crystal>
   <varray name="positions" >
    <v>       0.00000000       0.00000000       0.00000000 </v>
   </varray>
  </structure>
  <varray name="primitive_index" >
   <v type="int" >        1 </v>
  </varray>
 </primitive_cell>
 <kpoints>
  <generation param="Monkhorst-Pack">
   <v type="int" name="divisions">       9        9        9 </v>
   <v name="usershift">      0.00000000       0.00000000       0.00000000 </v>
   <v name="genvec1">      0.11111111       0.00000000       0.00000000 </v>
   <v name="genvec2">      0.00000000       0.11111111       0.00000000 </v>
   <v name="genvec3">      0.00000000       0.00000000       0.11111111 </v>
   <v name="shift">      0.00000000       0.00000000       0.00000000 </v>
  </generation>
  <varray name="kpointlist" >
   <v>       0.00000000       0.00000000       0.00000000 </v>
   <v>       0.11111111       0.00000000       0.00000000 </v>
   <v>       0.22222222       0.00000000       0.00000000 </v>
   <v>       0.33333333       0.00000000       0.00000000 </v>
   <v>       0.44444444       0.00000000       0.00000000 </v>
   <v>       0.11111111       0.11111111       0.00000000 </v>
   <v>       0.22222222       0.11111111       0.00000000 </v>
   <v>       0.33333333       0.11111111       0.00000000 </v>
   <v>       0.44444444       0.11111111       0.00000000 </v>
   <v>       0.22222222       0.22222222       0.00000000 </v>
   <v>       0.33333333       0.22222222       0.00000000 </v>
   <v>       0.44444444       0.22222222       0.00000000 </v>
   <v>       0.33333333       0.33333333       0.00000000 </v>
   <v>       0.44444444       0.33333333       0.00000000 </v>
   <v>       0.44444444       0.44444444       0.00000000 </v>
   <v>       0.11111111       0.11111111       0.11111111 </v>
   <v>       0.22222222       0.11111111       0.11111111 </v>
   <v>       0.33333333       0.11111111       0.11111111 </v>
   <v>       0.44444444       0.11111111       0.11111111 </v>
   <v>       0.22222222       0.22222222       0.11111111 </v>
   <v>       0.33333333       0.22222222       0.11111111 </v>
   <v>       0.44444444       0.22222222       0.11111111 </v>
   <v>       0.33333333       0.33333333       0.11111111 </v>
   <v>       0.44444444       0.33333333       0.11111111 </v>
   <v>       0.44444444       0.44444444       0.11111111 </v>
   <v>       0.22222222       0.22222222       0.22222222 </v>
   <v>       0.33333333       0.22222222       0.22222222 </v>
   <v>       0.44444444       0.22222222       0.22222222 </v>
   <v>       0.33333333       0.33333333       0.22222222 </v>
   <v>       0.44444444       0.33333333       0.22222222 </v>
   <v>       0.44444444       0.44444444       0.22222222 </v>
   <v>       0.33333333       0.33333333       0.33333333 </v>
   <v>       0.44444444       0.33333333       0.33333333 </v>
   <v>       0.44444444       0.44444444       0.33333333 </v>
   <v>       0.44444444       0.44444444       0.44444444 </v>
  </varray>
  <varray name="weights" >
   <v>       0.00137174 </v>
   <v>       0.00823045 </v>
   <v>       0.00823045 </v>
   <v>       0.00823045 </v>
   <v>       0.00823045 </v>
   <v>       0.01646091 </v>
   <v>       0.03292181 </v>
   <v>       0.03292181 </v>
   <v>       0.03292181 </v>
   <v>       0.01646091 </v>
   <v>       0.03292181 </v>
   <v>       0.03292181 </v>
   <v>       0.01646091 </v>
   <v>       0.03292181 </v>
   <v>       0.01646091 </v>
   <v>       0.01097394 </v>
   <v>       0.03292181 </v>
   <v>       0.03292181 </v>
   <v>       0.03292181 </v>
   <v>       0.03292181 </v>
   <v>       0.06584362 </v>
   <v>       0.06584362 </v>
   <v>       0.03292181 </v>
   <v>       0.06584362 </v>
   <v>       0.03292181 </v>
   <v>       0.01097394 </v>
   <v>       0.03292181 </v>
   <v>       0.03292181 </v>
   <v>       0.03292181 </v>
   <v>       0.06584362 </v>
   <v>       0.03292181 </v>
   <v>       0.01097394 </v>
   <v>       0.03292181 </v>
   <v>       0.03292181 </v>
   <v>       0.01097394 </v>
  </varray>
 </kpoints>
 <parameters>
  <separator name="general" >
   <i type="string" name="SYSTEM">unknown system</i>
   <i type="logical" name="LCOMPAT"> F  </i>
  </separator>
  <separator name="electronic" >
   <i type="string" name="PREC">normal</i>
   <i name="ENMAX">    320.00000000</i>
   <i name="ENAUG">    586.98000000</i>
   <i name="EDIFF">      0.00000100</i>
   <i type="int" name="IALGO">    38</i>
   <i type="int" name="IWAVPR">     0</i>
   <i type="int" name="NBANDS">    30</i>
   <i type="int" name="NBANDSLOW">    -1</i>
   <i type="int" name="NBANDSHIGH">    -1</i>
   <i name="NELECT">     44.00000000</i>
   <i type="int" name="TURBO">     0</i>
   <i type="int" name="IRESTART">     0</i>
   <i type="int" name="NREBOOT">     0</i>
   <i type="int" name="NMIN">     0</i>
   <i name="EREF">      0.00000000</i>
   <separator name="electronic smearing" >
    <i type="int" name="ISMEAR">     1</i>
    <i name="SIGMA">      0.20000000</i>
    <i name="KSPACING">      0.50000000</i>
    <i type="logical" name="KGAMMA"> T  </i>
    <i type="logical" name="KBLOWUP"> T  </i>
   </separator>
   <separator name="electronic projectors" >
    <i type="logical" name="LREAL"> F  </i>
    <v name="ROPT">      0.00000000</v>
    <i type="int" name="LMAXPAW">  -100</i>
    <i type="int" name="LMAXMIX">     2</i>
    <i type="logical" name="NLSPLINE"> F  </i>
   </separator>
   <separator name="electronic startup" >
    <i type="int" name="ISTART">     1</i>
    <i type="int" name="ICHARG">     1</i>
    <i type="int" name="INIWAV">     1</i>
   </separator>
   <separator name="electronic spin" >
    <i type="int" name="ISPIN">     1</i>
    <i type="logical" name="LNONCOLLINEAR"> F  </i>
    <v name="MAGMOM">      1.00000000      1.00000000      1.00000000      1.00000000</v>
    <i name="NUPDOWN">     -1.00000000</i>
    <i type="logical" name="LSORBIT"> F  </i>
    <v name="SAXIS">      0.00000000      0.00000000      1.00000000</v>
    <i type="logical" name="LSPIRAL"> F  </i>
    <v name="QSPIRAL">      0.00000000      0.00000000      0.00000000</v>
    <i type="logical" name="LZEROZ"> F  </i>
   </separator>
   <separator name="electronic exchange-correlation" >
    <i type="logical" name="LASPH"> F  </i>
    <i type="logical" name="LMETAGGA"> F  </i>
   </separator>
   <separator name="electronic convergence" >
    <i type="int" name="NELM">    60</i>
    <i type="int" name="NELMDL">     0</i>
    <i type="int" name="NELMIN">     2</i>
    <i name="ENINI">    320.00000000</i>
    <separator name="electronic convergence detail" >
     <i type="logical" name="LDIAG"> T  </i>
     <i type="logical" name="LSUBROT"> F  </i>
     <i name="WEIMIN">      0.00000000</i>
     <i name="EBREAK">      0.00000001</i>
     <i name="DEPER">      0.30000000</i>
     <i type="int" name="NRMM">     4</i>
     <i name="TIME">      0.40000000</i>
    </separator>
   </separator>
   <separator name="electronic mixer" >
    <i name="AMIX">      0.40000000</i>
    <i name="BMIX">      1.00000000</i>
    <i name="AMIN">      0.10000000</i>
    <i name="AMIX_MAG">      1.60000000</i>
    <i name="BMIX_MAG">      1.00000000</i>
    <separator name="electronic mixer details" >
     <i type="int" name="IMIX">     4</i>
     <i type="logical" name="MIXFIRST"> F  </i>
     <i type="int" name="MAXMIX">   -45</i>
     <i name="WC">    100.00000000</i>
     <i type="int" name="INIMIX">     1</i>
     <i type="int" name="MIXPRE">     1</i>
     <i type="int" name="MREMOVE">     5</i>
    </separator>
   </separator>
   <separator name="electronic dipolcorrection" >
    <i type="logical" name="LDIPOL"> F  </i>
    <i type="logical" name="LMONO"> F  </i>
    <i type="int" name="IDIPOL">     0</i>
    <i name="EPSILON">      1.00000000</i>
    <v name="DIPOL">   -100.00000000   -100.00000000   -100.00000000</v>
    <i name="EFIELD">      0.00000000</i>
   </separator>
  </separator>
  <separator name="grids" >
   <i type="int" name="NGX">    18</i>
   <i type="int" name="NGY">    18</i>
   <i type="int" name="NGZ">    18</i>
   <i type="int" name="NGXF">    36</i>
   <i type="int" name="NGYF">    36</i>
   <i type="int" name="NGZF">    36</i>
   <i type="logical" name="ADDGRID"> F  </i>
  </separator>
  <separator name="ionic" >
   <i type="int" name="NSW">     0</i>
   <i type="int" name="IBRION">    -1</i>
   <i type="int" name="MDALGO">     0</i>
   <i type="int" name="ISIF">     2</i>
   <i name="PSTRESS">      0.00000000</i>
   <i name="EDIFFG">      0.00001000</i>
   <i type="int" name="NFREE">     0</i>
   <i name="POTIM">      0.50000000</i>
   <i name="SMASS">     -3.00000000</i>
   <i name="SCALEE">      1.00000000</i>
  </separator>
  <separator name="ionic md" >
   <i name="TEBEG">      0.00010000</i>
   <i name="TEEND">      0.00010000</i>
   <i type="int" name="NBLOCK">     1</i>
   <i type="int" name="KBLOCK">     1</i>
   <i type="int" name="NPACO">   256</i>
   <i name="APACO">     16.00000000</i>
  </separator>
  <separator name="symmetry" >
   <i type="int" name="ISYM">     2</i>
   <i name="SYMPREC">      0.00001000</i>
  </separator>
  <separator name="dos" >
   <i type="int" name="LORBIT">     0</i>
   <v name="RWIGS">     -1.00000000</v>
   <i type="int" name="NEDOS">   301</i>
   <i name="EMIN">     10.00000000</i>
   <i name="EMAX">    -10.00000000</i>
   <i name="EFERMI">      0.00000000</i>
  </separator>
  <separator name="writing" >
   <i type="int" name="NWRITE">     2</i>
   <i type="logical" name="LWAVE"> T  </i>
   <i type="logical" name="LDOWNSAMPLE"> F  </i>
   <i type="logical" name="LCHARG"> T  </i>
   <i type="logical" name="LPARD"> F  </i>
   <i type="logical" name="LVTOT"> F  </i>
   <i type="logical" name="LVHAR"> F  </i>
   <i type="logical" name="LELF"> F  </i>
   <i type="logical" name="LOPTICS"> F  </i>
   <v name="STM">      0.00000000      0.00000000      0.00000000      0.00000000      0.00000000      0.00000000      0.00000000</v>
  </separator>
  <separator name="performance" >
   <i type="int" name="NPAR">     1</i>
   <i type="int" name="NSIM">     4</i>
   <i type="int" name="NBLK">    -1</i>
   <i type="logical" name="LPLANE"> T  </i>
   <i type="logical" name="LSCALAPACK"> F  </i>
   <i type="logical" name="LSCAAWARE"> F  </i>
   <i type="logical" name="LSCALU"> F  </i>
   <i type="logical" name="LASYNC"> F  </i>
   <i type="logical" name="LORBITALREAL"> F  </i>
  </separator>
  <separator name="miscellaneous" >
   <i type="int" name="IDIOT">     3</i>
   <i type="int" name="PHON_NSTRUCT">    -1</i>
   <i type="logical" name="LMUSIC"> F  </i>
   <v name="POMASS">     63.54600000</v>
   <v name="DARWINR">      0.00000000</v>
   <v name="DARWINV">      1.00000000</v>
   <i type="logical" name="LCORR"> T  </i>
  </separator>
  <i type="logical" name="GGA_COMPAT"> T  </i>
  <i type="logical" name="LBERRY"> F  </i>
  <i type="int" name="ICORELEVEL">     0</i>
  <i type="logical" name="LDAU"> F  </i>
  <i type="int" name="I_CONSTRAINED_M">     0</i>
  <separator name="electronic exchange-correlation" >
   <i type="string" name="GGA">PE</i>
   <i type="int" name="VOSKOWN">     0</i>
   <i type="logical" name="LHFCALC"> F  </i>
   <i type="string" name="PRECFOCK"></i>
   <i type="logical" name="LSYMGRAD"> F  </i>
   <i type="logical" name="LHFONE"> F  </i>
   <i type="logical" name="LRHFCALC"> F  </i>
   <i type="logical" name="LTHOMAS"> F  </i>
   <i type="logical" name="LMODELHF"> F  </i>
   <i type="logical" name="LFOCKACE"> F  </i>
   <i name="ENCUT4O">     -1.00000000</i>
   <i type="int" name="EXXOEP">     0</i>
   <i type="int" name="FOURORBIT">     0</i>
   <i name="AEXX">      0.00000000</i>
   <i name="HFALPHA">      0.00000000</i>
   <i name="MCALPHA">      0.00000000</i>
   <i name="ALDAX">      1.00000000</i>
   <i name="AGGAX">      1.00000000</i>
   <i name="ALDAC">      1.00000000</i>
   <i name="AGGAC">      1.00000000</i>
   <i type="int" name="NKREDX">     1</i>
   <i type="int" name="NKREDY">     1</i>
   <i type="int" name="NKREDZ">     1</i>
   <i type="logical" name="SHIFTRED"> F  </i>
   <i type="logical" name="ODDONLY"> F  </i>
   <i type="logical" name="EVENONLY"> F  </i>
   <i type="int" name="LMAXFOCK">     0</i>
   <i type="int" name="NMAXFOCKAE">     0</i>
   <i type="logical" name="LFOCKAEDFT"> F  </i>
   <i name="HFSCREEN">      0.00000000</i>
   <i name="HFSCREENC">      0.00000000</i>
   <i type="int" name="NBANDSGWLOW">     0</i>
  </separator>
  <separator name="vdW DFT" >
   <i type="logical" name="LUSE_VDW"> F  </i>
   <i name="Zab_VDW">     -0.84910000</i>
   <i name="PARAM1">      0.12340000</i>
   <i name="PARAM2">      1.00000000</i>
   <i name="PARAM3">      0.00000000</i>
  </separator>
  <separator name="model GW" >
   <i type="int" name="MODEL_GW">     0</i>
   <i name="MODEL_EPS0">      8.64541312</i>
   <i name="MODEL_ALPHA">      1.00000000</i>
  </separator>
  <separator name="linear response parameters" >
   <i type="logical" name="LEPSILON"> F  </i>
   <i type="logical" name="LRPA"> F  </i>
   <i type="logical" name="LNABLA"> F  </i>
   <i type="logical" name="LVEL"> F  </i>
   <i type="int" name="KINTER">     0</i>
   <i name="CSHIFT">      0.10000000</i>
   <i name="OMEGAMAX">     -1.00000000</i>
   <i name="DEG_THRESHOLD">      0.00200000</i>
   <i name="RTIME">     -0.10000000</i>
   <i name="WPLASMAI">      0.00000000</i>
   <v name="DFIELD">      0.00000000      0.00000000      0.00000000</v>
   <v name="WPLASMA">      0.00000000      0.00000000      0.00000000      0.00000000      0.00000000      0.00000000      0.00000000      0.00000000      0.00000000</v>
  </separator>
  <separator name="orbital magnetization" >
   <i type="logical" name="NUCIND"> F  </i>
   <v name="MAGPOS">      0.00000000      0.00000000      0.00000000</v>
   <i type="logical" name="LNICSALL"> T  </i>
   <i type="logical" name="ORBITALMAG"> F  </i>
   <i type="logical" name="LMAGBLOCH"> F  </i>
   <i type="logical" name="LCHIMAG"> F  </i>
   <i type="logical" name="LGAUGE"> T  </i>
   <i type="int" name="MAGATOM">     0</i>
   <v name="MAGDIPOL">      0.00000000      0.00000000      0.00000000</v>
   <v name="AVECCONST">      0.00000000      0.00000000      0.00000000</v>
  </separator>
  <separator name="response functions" >
   <i type="logical" name="LFINITE_TEMPERATURE"> F  </i>
   <i type="logical" name="LADDER"> F  </i>
   <i type="logical" name="LRPAFORCE"> F  </i>
   <i type="logical" name="LFXC"> F  </i>
   <i type="logical" name="LHARTREE"> T  </i>
   <i type="int" name="IBSE">     0</i>
   <v type="int" name="KPOINT">    -1     0     0     0</v>
   <i type="logical" name="LTCTC"> F  </i>
   <i type="logical" name="LTCTE"> F  </i>
   <i type="logical" name="LTETE"> F  </i>
   <i type="logical" name="LTRIPLET"> F  </i>
   <i type="logical" name="LFXCEPS"> F  </i>
   <i type="logical" name="LFXHEG"> F  </i>
   <i type="int" name="NATURALO">     2</i>
   <i type="logical" name="LHOLEGF"> F  </i>
   <i type="logical" name="L2ORDER"> F  </i>
   <i type="logical" name="LDMP1"> F  </i>
   <i type="logical" name="LMP2LT"> F  </i>
   <i type="logical" name="LSMP2LT"> F  </i>
   <i type="logical" name="LGWLF"> F  </i>
   <i name="ENCUTGW">     -2.00000000</i>
   <i name="ENCUTGWSOFT">     -2.00000000</i>
   <i name="ENCUTLF">     -1.00000000</i>
   <i type="logical" name="LESF_SPLINES"> F  </i>
   <i type="int" name="LMAXMP2">    -1</i>
   <i name="SCISSOR">      0.00000000</i>
   <i type="int" name="NOMEGA">     0</i>
   <i type="int" name="NOMEGAR">     0</i>
   <i type="int" name="NBANDSGW">    -1</i>
   <i type="int" name="NBANDSO">    -1</i>
   <i type="int" name="NBANDSV">    -1</i>
   <i type="int" name="NELM">     1</i>
   <i type="int" name="NELMHF">     1</i>
   <i type="int" name="DIM">     3</i>
   <i type="int" name="IESPILON">     4</i>
   <i type="int" name="ANTIRES">     0</i>
   <i name="OMEGAMAX">    -30.00000000</i>
   <i name="OMEGAMIN">    -30.00000000</i>
   <i name="OMEGATL">   -200.00000000</i>
   <i type="int" name="OMEGAGRID">     0</i>
   <i name="CSHIFT">     -0.10000000</i>
   <i type="logical" name="LSELFENERGY"> F  </i>
   <i type="logical" name="LSPECTRAL"> F  </i>
   <i type="logical" name="LSPECTRALGW"> F  </i>
   <i type="logical" name="LSINGLES"> F  </i>
   <i type="logical" name="LFERMIGW"> F  </i>
   <i type="logical" name="ODDONLYGW"> F  </i>
   <i type="logical" name="EVENONLYGW"> F  </i>
   <i type="int" name="NKREDLFX">     1</i>
   <i type="int" name="NKREDLFY">     1</i>
   <i type="int" name="NKREDLFZ">     1</i>
   <i type="int" name="MAXMEM">  2800</i>
   <i type="int" name="TELESCOPE">     0</i>
   <i type="int" name="NTAUPAR">    -1</i>
   <i type="int" name="NOMEGAPAR">    -1</i>
   <i name="DAMP_NEWTON">      0.80000001</i>
   <i name="LAMBDA">      1.00000000</i>
  </separator>
  <separator name="External order field" >
   <i name="OFIELD_KAPPA">      0.00000000</i>
   <v name="OFIELD_K">      0.00000000      0.00000000      0.00000000</v>
   <i name="OFIELD_Q6_NEAR">      0.00000000</i>
   <i name="OFIELD_Q6_FAR">      0.00000000</i>
   <i name="OFIELD_A">      0.00000000</i>
  </separator>
 </parameters>
 <atominfo>
  <atoms>       4 </atoms>
  <types>       1 </types>
  <array name="atoms" >
   <dimension dim="1">ion</dimension>
   <field type="string">element</field>
   <field type="int">atomtype</field>
   <set>
    <rc><c>Cu</c><c>   1</c></rc>
    <rc><c>Cu</c><c>   1</c></rc>
    <rc><c>Cu</c><c>   1</c></rc>
    <rc><c>Cu</c><c>   1</c></rc>
   </set>
  </array>
  <array name="atomtypes" >
   <dimension dim="1">type</dimension>
   <field type="int">atomspertype</field>
   <field type="string">element</field>
   <field>mass</field>
   <field>valence</field>
   <field type="string">pseudopotential</field>
   <set>
    <rc><c>   4</c><c>Cu</c><c>     63.54600000</c><c>     11.00000000</c><c>  PAW_PBE Cu 22Jun2005                  </c></rc>
   </set>
  </array>
 </atominfo>
 <structure name="initialpos" >
  <crystal>
   <varray name="basis" >
    <v>       3.86276390       0.00000000       0.00000000 </v>
    <v>       0.00000000       3.86276390       0.00000000 </v>
    <v>       0.00000000       0.00000000       3.86276390 </v>
   </varray>
   <i name="volume">     57.63608745 </i>
   <varray name="rec_basis" >
    <v>       0.25888199       0.00000000       0.00000000 </v>
    <v>       0.00000000       0.25888199       0.00000000 </v>
    <v>       0.00000000       0.00000000       0.25888199 </v>
   </varray>
  </crystal>
  <varray name="positions" >
   <v>       0.00000000       0.00000000       0.00000000 </v>
   <v>       0.50000000       0.50000000       0.00000000 </v>
   <v>       0.50000000       0.00000000       0.50000000 </v>
   <v>       0.00000000       0.50000000       0.50000000 </v>
  </varray>
 </structure>
 <calculation>
  <scstep>
   <time name="dav">    0.57    0.59</time>
   <time name="total">    0.63    0.65</time>
   <energy>
    <i name="alphaZ">    203.01948154 </i>
    <i name="ewald">  -4136.18118970 </i>
    <i name="hartreedc">  -1520.36121834 </i>
    <i name="XCdc">    177.27934142 </i>
    <i name="pawpsdc">   5046.54618298 </i>
    <i name="pawaedc">  -5474.26015718 </i>
    <i name="eentropy">      0.00230544 </i>
    <i name="bandstr">    125.80869269 </i>
    <i name="atom">   5563.77610493 </i>
    <i name="e_fr_energy">    -14.37045623 </i>
    <i name="e_wo_entrp">    -14.37276167 </i>
    <i name="e_0_energy">    -14.37122471 </i>
   </energy>
  </scstep>
  <scstep>
   <time name="dav">    0.55    0.55</time>
   <time name="total">    0.62    0.62</time>
   <energy>
    <i name="e_fr_energy">    -14.36901058 </i>
    <i name="e_wo_entrp">    -14.37129876 </i>
    <i name="e_0_energy">    -14.36977331 </i>
   </energy>
  </scstep>
  <scstep>
   <time name="dav">    0.47    0.47</time>
   <time name="total">    0.53    0.53</time>
   <energy>
    <i name="e_fr_energy">    -14.36900896 </i>
    <i name="e_wo_entrp">    -14.37130285 </i>
    <i name="e_0_energy">    -14.36977359 </i>
   </energy>
  </scstep>
  <scstep>
   <time name="dav">    0.34    0.34</time>
   <time name="total">    0.36    0.36</time>
   <energy>
    <i name="alphaZ">    203.01948154 </i>
    <i name="ewald">  -4136.18118970 </i>
    <i name="hartreedc">  -1520.35779971 </i>
    <i name="XCdc">    177.27917481 </i>
    <i name="pawpsdc">   5046.54311984 </i>
    <i name="pawaedc">  -5474.25885836 </i>
    <i name="eentropy">      0.00229523 </i>
    <i name="bandstr">    125.80866257 </i>
    <i name="atom">   5563.77610493 </i>
    <i name="e_fr_energy">    -14.36900885 </i>
    <i name="e_wo_entrp">    -14.37130408 </i>
    <i name="e_0_energy">    -14.36977393 </i>
   </energy>
  </scstep>
  <structure>
   <crystal>
    <varray name="basis" >
     <v>       3.86276390       0.00000000       0.00000000 </v>
     <v>       0.00000000       3.86276390       0.00000000 </v>
     <v>       0.00000000       0.00000000       3.86276390 </v>
    </varray>
    <i name="volume">     57.63608745 </i>
    <varray name="rec_basis" >
     <v>       0.25888199       0.00000000       0.00000000 </v>
     <v>       0.00000000       0.25888199       0.00000000 </v>
     <v>       0.00000000       0.00000000       0.25888199 </v>
    </varray>
   </crystal>
   <varray name="positions" >
    <v>       0.00000000       0.00000000       0.00000000 </v>
    <v>       0.50000000       0.50000000       0.00000000 </v>
    <v>       0.50000000       0.00000000       0.50000000 </v>
    <v>       0.00000000       0.50000000       0.50000000 </v>
   </varray>
  </structure>
  <varray name="forces" >
   <v>      -0.00000000      -0.00000000       0.00000000 </v>
   <v>       0.00000000       0.00000000      -0.00000000 </v>
   <v>      -0.00000000      -0.00000000      -0.00000000 </v>
   <v>       0.00000000       0.00000000       0.00000000 </v>
  </varray>
  <varray name="stress" >
   <v>    -161.43251630       0.00000000      -0.00000000 </v>
   <v>       0.00000000    -161.43251630       0.00000000 </v>
   <v>       0.00000000       0.00000000    -161.43251630 </v>
  </varray>
  <energy>
   <i name="e_fr_energy">    -14.36900885 </i>
   <i name="e_wo_entrp">    -14.37130408 </i>
   <i name="e_0_energy">    -14.36977393 </i>
  </energy>
  <time name="totalsc">    2.62    2.64</time>
  <eigenvalues>
   <array>
    <dimension dim="1">band</dimension>
    <dimension dim="2">kpoint</dimension>
    <dimension dim="3">spin</dimension>
    <field>eigene</field>
    <field>occ</field>
    <set>
     <set comment="spin 1">
      <set comment="kpoint 1">
       <r>   -2.5800    1.0000 </r>
       <r>    1.5152    1.0000 </r>
       <r>    1.5152    1.0000 </r>
       <r>    1.5152    1.0000 </r>
       <r>    1.8550    1.0000 </r>
       <r>    1.8550    1.0000 </r>
       <r>    1.8550    1.0000 </r>
       <r>    2.8734    1.0000 </r>
       <r>    2.8734    1.0000 </r>
       <r>    2.8734    1.0000 </r>
       <r>    3.4807    1.0000 </r>
       <r>    3.4807    1.0000 </r>
       <r>    3.8863    1.0000 </r>
       <r>    3.8863    1.0000 </r>
       <r>    3.8863    1.0000 </r>
       <r>    4.0002    1.0000 </r>
       <r>    4.0002    1.0000 </r>
       <r>    4.0002    1.0000 </r>
       <r>    4.0002    1.0000 </r>
       <r>    4.0002    1.0000 </r>
       <r>    4.0002    1.0000 </r>
       <r>    7.0074   -0.0000 </r>
       <r>    7.0074   -0.0000 </r>
       <r>    7.0074   -0.0000 </r>
       <r>   11.1839    0.0000 </r>
       <r>   11.1839    0.0000 </r>
       <r>   11.1839    0.0000 </r>
       <r>   16.9878    0.0000 </r>
       <r>   16.9878    0.0000 </r>
       <r>   16.9878    0.0000 </r>
      </set>
      <set comment="kpoint 2">
       <r>   -2.4499    1.0000 </r>
       <r>    1.5070    1.0000 </r>
       <r>    1.5697    1.0000 </r>
       <r>    1.5697    1.0000 </r>
       <r>    1.8847    1.0000 </r>
       <r>    1.8868    1.0000 </r>
       <r>    1.8868    1.0000 </r>
       <r>    2.8416    1.0000 </r>
       <r>    2.8997    1.0000 </r>
       <r>    2.8997    1.0000 </r>
       <r>    3.4519    1.0000 </r>
       <r>    3.4926    1.0000 </r>
       <r>    3.8332    1.0000 </r>
       <r>    3.8332    1.0000 </r>
       <r>    3.8492    1.0000 </r>
       <r>    3.8492    1.0000 </r>
       <r>    3.8739    1.0000 </r>
       <r>    3.9562    1.0000 </r>
       <r>    3.9562    1.0000 </r>
       <r>    4.0003    1.0000 </r>
       <r>    4.0003    1.0000 </r>
       <r>    6.1496   -0.0000 </r>
       <r>    7.2954   -0.0000 </r>
       <r>    7.2954   -0.0000 </r>
       <r>   11.2417    0.0000 </r>
       <r>   11.2417    0.0000 </r>
       <r>   12.3153    0.0000 </r>
       <r>   16.1616    0.0000 </r>
       <r>   16.1616    0.0000 </r>
       <r>   16.3786    0.0000 </r>
      </set>
      <set comment="kpoint 3">
       <r>   -2.0634    1.0000 </r>
       <r>    1.4310    1.0000 </r>
       <r>    1.7189    1.0000 </r>
       <r>    1.7189    1.0000 </r>
       <r>    1.9703    1.0000 </r>
       <r>    1.9827    1.0000 </r>
       <r>    1.9827    1.0000 </r>
       <r>    2.7503    1.0000 </r>
       <r>    2.9780    1.0000 </r>
       <r>    2.9780    1.0000 </r>
       <r>    3.3718    1.0000 </r>
       <r>    3.4616    1.0000 </r>
       <r>    3.4616    1.0000 </r>
       <r>    3.5273    1.0000 </r>
       <r>    3.7440    1.0000 </r>
       <r>    3.7440    1.0000 </r>
       <r>    3.8339    1.0000 </r>
       <r>    3.8339    1.0000 </r>
       <r>    3.8381    1.0000 </r>
       <r>    4.0005    1.0000 </r>
       <r>    4.0005    1.0000 </r>
       <r>    4.7264    1.0003 </r>
       <r>    8.0288   -0.0000 </r>
       <r>    8.0288   -0.0000 </r>
       <r>   11.4232    0.0000 </r>
       <r>   11.4232    0.0000 </r>
       <r>   14.6043    0.0000 </r>
       <r>   14.6386    0.0000 </r>
       <r>   14.6386    0.0000 </r>
       <r>   15.1834    0.0000 </r>
      </set>
      <set comment="kpoint 4">
       <r>   -1.4354    1.0000 </r>
       <r>    1.0948    1.0000 </r>
       <r>    1.9160    1.0000 </r>
       <r>    1.9160    1.0000 </r>
       <r>    2.1025    1.0000 </r>
       <r>    2.1458    1.0000 </r>
       <r>    2.1458    1.0000 </r>
       <r>    2.6117    1.0000 </r>
       <r>    3.0533    1.0000 </r>
       <r>    3.0533    1.0000 </r>
       <r>    3.1042    1.0000 </r>
       <r>    3.1042    1.0000 </r>
       <r>    3.2612    1.0000 </r>
       <r>    3.5807    1.0000 </r>
       <r>    3.5972    1.0000 </r>
       <r>    3.5972    1.0000 </r>
       <r>    3.6429    1.0000 </r>
       <r>    3.6588    1.0000 </r>
       <r>    3.6588    1.0000 </r>
       <r>    3.7835    1.0000 </r>
       <r>    4.0008    1.0000 </r>
       <r>    4.0008    1.0000 </r>
       <r>    9.0358   -0.0000 </r>
       <r>    9.0358   -0.0000 </r>
       <r>   11.7509    0.0000 </r>
       <r>   11.7509    0.0000 </r>
       <r>   13.0673    0.0000 </r>
       <r>   13.0673    0.0000 </r>
       <r>   14.0084    0.0000 </r>
       <r>   14.0084    0.0000 </r>
      </set>
      <set comment="kpoint 5">
       <r>   -0.6033    1.0000 </r>
       <r>    0.3299    1.0000 </r>
       <r>    2.0697    1.0000 </r>
       <r>    2.0697    1.0000 </r>
       <r>    2.2669    1.0000 </r>
       <r>    2.3790    1.0000 </r>
       <r>    2.3790    1.0000 </r>
       <r>    2.4435    1.0000 </r>
       <r>    2.6836    1.0000 </r>
       <r>    2.6836    1.0000 </r>
       <r>    3.1665    1.0000 </r>
       <r>    3.2024    1.0000 </r>
       <r>    3.2699    1.0000 </r>
       <r>    3.2699    1.0000 </r>
       <r>    3.4619    1.0000 </r>
       <r>    3.4619    1.0000 </r>
       <r>    3.4763    1.0000 </r>
       <r>    3.4763    1.0000 </r>
       <r>    3.6465    1.0000 </r>
       <r>    3.7171    1.0000 </r>
       <r>    4.0007    1.0000 </r>
       <r>    4.0007    1.0000 </r>
       <r>   10.2335   -0.0000 </r>
       <r>   10.2335   -0.0000 </r>
       <r>   11.5855    0.0000 </r>
       <r>   11.5855    0.0000 </r>
       <r>   12.2452    0.0000 </r>
       <r>   12.2452    0.0000 </r>
       <r>   13.0541    0.0000 </r>
       <r>   13.0541    0.0000 </r>
      </set>
      <set comment="kpoint 6">
       <r>   -2.3205    1.0000 </r>
       <r>    1.5642    1.0000 </r>
       <r>    1.5642    1.0000 </r>
       <r>    1.6213    1.0000 </r>
       <r>    1.9154    1.0000 </r>
       <r>    1.9154    1.0000 </r>
       <r>    1.9167    1.0000 </r>
       <r>    2.8250    1.0000 </r>
       <r>    2.9119    1.0000 </r>
       <r>    2.9215    1.0000 </r>
       <r>    3.4448    1.0000 </r>
       <r>    3.4879    1.0000 </r>
       <r>    3.7187    1.0000 </r>
       <r>    3.7493    1.0000 </r>
       <r>    3.7493    1.0000 </r>
       <r>    3.8147    1.0000 </r>
       <r>    3.8631    1.0000 </r>
       <r>    3.8631    1.0000 </r>
       <r>    3.9560    1.0000 </r>
       <r>    3.9560    1.0000 </r>
       <r>    3.9714    1.0000 </r>
       <r>    6.4243   -0.0000 </r>
       <r>    6.4243   -0.0000 </r>
       <r>    7.5601   -0.0000 </r>
       <r>   11.3017    0.0000 </r>
       <r>   12.3988    0.0000 </r>
       <r>   12.3988    0.0000 </r>
       <r>   14.6002    0.0000 </r>
       <r>   16.3292    0.0000 </r>
       <r>   16.3292    0.0000 </r>
      </set>
      <set comment="kpoint 7">
       <r>   -1.9366    1.0000 </r>
       <r>    1.4974    1.0000 </r>
       <r>    1.7214    1.0000 </r>
       <r>    1.7629    1.0000 </r>
       <r>    1.9978    1.0000 </r>
       <r>    2.0070    1.0000 </r>
       <r>    2.0081    1.0000 </r>
       <r>    2.7450    1.0000 </r>
       <r>    2.9823    1.0000 </r>
       <r>    2.9835    1.0000 </r>
       <r>    3.3753    1.0000 </r>
       <r>    3.3795    1.0000 </r>
       <r>    3.4021    1.0000 </r>
       <r>    3.5241    1.0000 </r>
       <r>    3.5649    1.0000 </r>
       <r>    3.7168    1.0000 </r>
       <r>    3.7536    1.0000 </r>
       <r>    3.8306    1.0000 </r>
       <r>    3.8333    1.0000 </r>
       <r>    3.9556    1.0000 </r>
       <r>    3.9563    1.0000 </r>
       <r>    5.0412    1.0353 </r>
       <r>    7.0845   -0.0000 </r>
       <r>    8.2546   -0.0000 </r>
       <r>   11.4899    0.0000 </r>
       <r>   12.6567    0.0000 </r>
       <r>   12.9462    0.0000 </r>
       <r>   14.7025    0.0000 </r>
       <r>   14.7965    0.0000 </r>
       <r>   15.3307    0.0000 </r>
      </set>
      <set comment="kpoint 8">
       <r>   -1.3135    1.0000 </r>
       <r>    1.1771    1.0000 </r>
       <r>    1.9316    1.0000 </r>
       <r>    1.9538    1.0000 </r>
       <r>    2.1253    1.0000 </r>
       <r>    2.1540    1.0000 </r>
       <r>    2.1653    1.0000 </r>
       <r>    2.6139    1.0000 </r>
       <r>    2.9758    1.0000 </r>
       <r>    3.0279    1.0000 </r>
       <r>    3.0617    1.0000 </r>
       <r>    3.1057    1.0000 </r>
       <r>    3.2675    1.0000 </r>
       <r>    3.3038    1.0000 </r>
       <r>    3.5797    1.0000 </r>
       <r>    3.5905    1.0000 </r>
       <r>    3.6074    1.0000 </r>
       <r>    3.6580    1.0000 </r>
       <r>    3.7413    1.0000 </r>
       <r>    3.9533    1.0000 </r>
       <r>    3.9548    1.0000 </r>
       <r>    4.1029    1.0000 </r>
       <r>    7.9503   -0.0000 </r>
       <r>    9.2318   -0.0000 </r>
       <r>   11.4409    0.0000 </r>
       <r>   11.8336    0.0000 </r>
       <r>   13.0979    0.0000 </r>
       <r>   13.2254    0.0000 </r>
       <r>   14.1519    0.0000 </r>
       <r>   15.8300    0.0000 </r>
      </set>
      <set comment="kpoint 9">
       <r>   -0.4898    1.0000 </r>
       <r>    0.4299    1.0000 </r>
       <r>    2.1028    1.0000 </r>
       <r>    2.1124    1.0000 </r>
       <r>    2.2831    1.0000 </r>
       <r>    2.3507    1.0000 </r>
       <r>    2.3895    1.0000 </r>
       <r>    2.4530    1.0000 </r>
       <r>    2.6247    1.0000 </r>
       <r>    2.6802    1.0000 </r>
       <r>    3.0616    1.0000 </r>
       <r>    3.0621    1.0000 </r>
       <r>    3.2701    1.0000 </r>
       <r>    3.3564    1.0000 </r>
       <r>    3.4612    1.0000 </r>
       <r>    3.4702    1.0000 </r>
       <r>    3.4817    1.0000 </r>
       <r>    3.5447    1.0000 </r>
       <r>    3.6767    1.0000 </r>
       <r>    3.7910    1.0000 </r>
       <r>    3.9533    1.0000 </r>
       <r>    3.9540    1.0000 </r>
       <r>    8.9625   -0.0000 </r>
       <r>   10.1199   -0.0000 </r>
       <r>   10.4100   -0.0000 </r>
       <r>   11.7499    0.0000 </r>
       <r>   12.3565    0.0000 </r>
       <r>   13.0793    0.0000 </r>
       <r>   13.8594    0.0000 </r>
       <r>   14.7392    0.0000 </r>
      </set>
      <set comment="kpoint 10">
       <r>   -1.5611    1.0000 </r>
       <r>    1.6813    1.0000 </r>
       <r>    1.6813    1.0000 </r>
       <r>    1.8813    1.0000 </r>
       <r>    2.0813    1.0000 </r>
       <r>    2.0813    1.0000 </r>
       <r>    2.0816    1.0000 </r>
       <r>    2.7050    1.0000 </r>
       <r>    3.0005    1.0000 </r>
       <r>    3.0219    1.0000 </r>
       <r>    3.1659    1.0000 </r>
       <r>    3.1659    1.0000 </r>
       <r>    3.2171    1.0000 </r>
       <r>    3.3578    1.0000 </r>
       <r>    3.5619    1.0000 </r>
       <r>    3.6378    1.0000 </r>
       <r>    3.7373    1.0000 </r>
       <r>    3.7373    1.0000 </r>
       <r>    3.8318    1.0000 </r>
       <r>    3.8318    1.0000 </r>
       <r>    3.8866    1.0000 </r>
       <r>    5.6582   -0.0112 </r>
       <r>    5.6582   -0.0112 </r>
       <r>    8.8746   -0.0000 </r>
       <r>   11.1954    0.0000 </r>
       <r>   11.6993    0.0000 </r>
       <r>   14.9863    0.0000 </r>
       <r>   14.9863    0.0000 </r>
       <r>   15.2580    0.0000 </r>
       <r>   15.2580    0.0000 </r>
      </set>
      <set comment="kpoint 11">
       <r>   -0.9541    1.0000 </r>
       <r>    1.4064    1.0000 </r>
       <r>    1.9335    1.0000 </r>
       <r>    2.0439    1.0000 </r>
       <r>    2.1930    1.0000 </r>
       <r>    2.1936    1.0000 </r>
       <r>    2.2213    1.0000 </r>
       <r>    2.6096    1.0000 </r>
       <r>    2.7988    1.0000 </r>
       <r>    2.9412    1.0000 </r>
       <r>    2.9471    1.0000 </r>
       <r>    3.0082    1.0000 </r>
       <r>    3.1236    1.0000 </r>
       <r>    3.3148    1.0000 </r>
       <r>    3.5247    1.0000 </r>
       <r>    3.6001    1.0000 </r>
       <r>    3.6554    1.0000 </r>
       <r>    3.6566    1.0000 </r>
       <r>    3.6677    1.0000 </r>
       <r>    3.8301    1.0000 </r>
       <r>    3.8481    1.0000 </r>
       <r>    4.6082    1.0000 </r>
       <r>    6.4116   -0.0000 </r>
       <r>    9.6691   -0.0000 </r>
       <r>    9.7867   -0.0000 </r>
       <r>   12.0715    0.0000 </r>
       <r>   13.6867    0.0000 </r>
       <r>   14.4670    0.0000 </r>
       <r>   15.5614    0.0000 </r>
       <r>   15.9920    0.0000 </r>
      </set>
      <set comment="kpoint 12">
       <r>   -0.1585    1.0000 </r>
       <r>    0.7155    1.0000 </r>
       <r>    2.1634    1.0000 </r>
       <r>    2.2283    1.0000 </r>
       <r>    2.2732    1.0000 </r>
       <r>    2.3314    1.0000 </r>
       <r>    2.4180    1.0000 </r>
       <r>    2.4771    1.0000 </r>
       <r>    2.4926    1.0000 </r>
       <r>    2.6661    1.0000 </r>
       <r>    2.8802    1.0000 </r>
       <r>    2.9506    1.0000 </r>
       <r>    3.2767    1.0000 </r>
       <r>    3.3631    1.0000 </r>
       <r>    3.4403    1.0000 </r>
       <r>    3.4619    1.0000 </r>
       <r>    3.4718    1.0000 </r>
       <r>    3.5069    1.0000 </r>
       <r>    3.8232    1.0000 </r>
       <r>    3.8296    1.0000 </r>
       <r>    3.8335    1.0000 </r>
       <r>    4.0730    1.0000 </r>
       <r>    7.3051   -0.0000 </r>
       <r>    8.3781   -0.0000 </r>
       <r>   10.9182    0.0000 </r>
       <r>   12.2275    0.0000 </r>
       <r>   12.6408    0.0000 </r>
       <r>   13.4377    0.0000 </r>
       <r>   16.2798    0.0000 </r>
       <r>   16.9618    0.0000 </r>
      </set>
      <set comment="kpoint 13">
       <r>   -0.3794    1.0000 </r>
       <r>    1.7245    1.0000 </r>
       <r>    1.7245    1.0000 </r>
       <r>    2.1183    1.0000 </r>
       <r>    2.2916    1.0000 </r>
       <r>    2.3055    1.0000 </r>
       <r>    2.3055    1.0000 </r>
       <r>    2.5750    1.0000 </r>
       <r>    2.6825    1.0000 </r>
       <r>    2.6825    1.0000 </r>
       <r>    2.8083    1.0000 </r>
       <r>    2.9645    1.0000 </r>
       <r>    3.1860    1.0000 </r>
       <r>    3.2698    1.0000 </r>
       <r>    3.4379    1.0000 </r>
       <r>    3.5290    1.0000 </r>
       <r>    3.5290    1.0000 </r>
       <r>    3.6571    1.0000 </r>
       <r>    3.6571    1.0000 </r>
       <r>    3.7511    1.0000 </r>
       <r>    3.8343    1.0000 </r>
       <r>    5.2043    0.7976 </r>
       <r>    5.2043    0.7976 </r>
       <r>    8.1484   -0.0000 </r>
       <r>   10.6327   -0.0000 </r>
       <r>   12.4946    0.0000 </r>
       <r>   14.4203    0.0000 </r>
       <r>   14.4203    0.0000 </r>
       <r>   15.1103    0.0000 </r>
       <r>   15.1103    0.0000 </r>
      </set>
      <set comment="kpoint 14">
       <r>    0.3575    1.0000 </r>
       <r>    1.1352    1.0000 </r>
       <r>    2.0177    1.0000 </r>
       <r>    2.1416    1.0000 </r>
       <r>    2.3958    1.0000 </r>
       <r>    2.4049    1.0000 </r>
       <r>    2.4565    1.0000 </r>
       <r>    2.5011    1.0000 </r>
       <r>    2.5019    1.0000 </r>
       <r>    2.6330    1.0000 </r>
       <r>    2.7466    1.0000 </r>
       <r>    2.8762    1.0000 </r>
       <r>    3.2853    1.0000 </r>
       <r>    3.3064    1.0000 </r>
       <r>    3.3705    1.0000 </r>
       <r>    3.3986    1.0000 </r>
       <r>    3.4073    1.0000 </r>
       <r>    3.4719    1.0000 </r>
       <r>    3.6658    1.0000 </r>
       <r>    3.6924    1.0000 </r>
       <r>    4.0761    1.0000 </r>
       <r>    4.4686    1.0000 </r>
       <r>    5.9473   -0.0000 </r>
       <r>    6.9109   -0.0000 </r>
       <r>   11.7110    0.0000 </r>
       <r>   12.9825    0.0000 </r>
       <r>   13.1277    0.0000 </r>
       <r>   13.9964    0.0000 </r>
       <r>   15.3913    0.0000 </r>
       <r>   15.9744    0.0000 </r>
      </set>
      <set comment="kpoint 15">
       <r>    0.9833    1.0000 </r>
       <r>    1.5844    1.0000 </r>
       <r>    1.5844    1.0000 </r>
       <r>    1.9319    1.0000 </r>
       <r>    2.4918    1.0000 </r>
       <r>    2.4918    1.0000 </r>
       <r>    2.5096    1.0000 </r>
       <r>    2.5533    1.0000 </r>
       <r>    2.5735    1.0000 </r>
       <r>    2.6572    1.0000 </r>
       <r>    2.6572    1.0000 </r>
       <r>    2.7982    1.0000 </r>
       <r>    3.2356    1.0000 </r>
       <r>    3.2910    1.0000 </r>
       <r>    3.2978    1.0000 </r>
       <r>    3.2978    1.0000 </r>
       <r>    3.3798    1.0000 </r>
       <r>    3.5046    1.0000 </r>
       <r>    3.5046    1.0000 </r>
       <r>    3.5761    1.0000 </r>
       <r>    4.4339    1.0000 </r>
       <r>    5.0042    1.0324 </r>
       <r>    5.0042    1.0324 </r>
       <r>    5.7873   -0.0010 </r>
       <r>   12.7417    0.0000 </r>
       <r>   13.8365    0.0000 </r>
       <r>   13.9764    0.0000 </r>
       <r>   13.9764    0.0000 </r>
       <r>   14.7839    0.0000 </r>
       <r>   14.7839    0.0000 </r>
      </set>
      <set comment="kpoint 16">
       <r>   -2.1920    1.0000 </r>
       <r>    1.6179    1.0000 </r>
       <r>    1.6179    1.0000 </r>
       <r>    1.6179    1.0000 </r>
       <r>    1.9445    1.0000 </r>
       <r>    1.9445    1.0000 </r>
       <r>    1.9445    1.0000 </r>
       <r>    2.8112    1.0000 </r>
       <r>    2.9306    1.0000 </r>
       <r>    2.9306    1.0000 </r>
       <r>    3.4628    1.0000 </r>
       <r>    3.4628    1.0000 </r>
       <r>    3.6515    1.0000 </r>
       <r>    3.6515    1.0000 </r>
       <r>    3.6515    1.0000 </r>
       <r>    3.7736    1.0000 </r>
       <r>    3.7736    1.0000 </r>
       <r>    3.7736    1.0000 </r>
       <r>    3.9612    1.0000 </r>
       <r>    3.9612    1.0000 </r>
       <r>    3.9612    1.0000 </r>
       <r>    6.6668   -0.0000 </r>
       <r>    6.6668   -0.0000 </r>
       <r>    6.6668   -0.0000 </r>
       <r>   12.4840    0.0000 </r>
       <r>   12.4840    0.0000 </r>
       <r>   12.4840    0.0000 </r>
       <r>   14.7579    0.0000 </r>
       <r>   14.7579    0.0000 </r>
       <r>   14.7579    0.0000 </r>
      </set>
      <set comment="kpoint 17">
       <r>   -1.8111    1.0000 </r>
       <r>    1.5578    1.0000 </r>
       <r>    1.7647    1.0000 </r>
       <r>    1.7647    1.0000 </r>
       <r>    2.0252    1.0000 </r>
       <r>    2.0326    1.0000 </r>
       <r>    2.0326    1.0000 </r>
       <r>    2.7416    1.0000 </r>
       <r>    2.9834    1.0000 </r>
       <r>    2.9867    1.0000 </r>
       <r>    3.3256    1.0000 </r>
       <r>    3.3256    1.0000 </r>
       <r>    3.3990    1.0000 </r>
       <r>    3.4485    1.0000 </r>
       <r>    3.5140    1.0000 </r>
       <r>    3.6656    1.0000 </r>
       <r>    3.6888    1.0000 </r>
       <r>    3.6888    1.0000 </r>
       <r>    3.9247    1.0000 </r>
       <r>    3.9446    1.0000 </r>
       <r>    3.9446    1.0000 </r>
       <r>    5.2737    0.5282 </r>
       <r>    7.2787   -0.0000 </r>
       <r>    7.2787   -0.0000 </r>
       <r>   12.7318    0.0000 </r>
       <r>   12.7318    0.0000 </r>
       <r>   13.1175    0.0000 </r>
       <r>   13.1175    0.0000 </r>
       <r>   14.7862    0.0000 </r>
       <r>   15.2316    0.0000 </r>
      </set>
      <set comment="kpoint 18">
       <r>   -1.1937    1.0000 </r>
       <r>    1.2512    1.0000 </r>
       <r>    1.9640    1.0000 </r>
       <r>    1.9640    1.0000 </r>
       <r>    2.1498    1.0000 </r>
       <r>    2.1734    1.0000 </r>
       <r>    2.1734    1.0000 </r>
       <r>    2.6194    1.0000 </r>
       <r>    2.9631    1.0000 </r>
       <r>    2.9631    1.0000 </r>
       <r>    3.0462    1.0000 </r>
       <r>    3.0799    1.0000 </r>
       <r>    3.1550    1.0000 </r>
       <r>    3.3555    1.0000 </r>
       <r>    3.5182    1.0000 </r>
       <r>    3.5684    1.0000 </r>
       <r>    3.5684    1.0000 </r>
       <r>    3.5907    1.0000 </r>
       <r>    3.8605    1.0000 </r>
       <r>    3.9298    1.0000 </r>
       <r>    3.9298    1.0000 </r>
       <r>    4.2669    1.0000 </r>
       <r>    8.1095   -0.0000 </r>
       <r>    8.1095   -0.0000 </r>
       <r>   11.5886    0.0000 </r>
       <r>   11.5886    0.0000 </r>
       <r>   13.2261    0.0000 </r>
       <r>   13.2261    0.0000 </r>
       <r>   15.9371    0.0000 </r>
       <r>   15.9683    0.0000 </r>
      </set>
      <set comment="kpoint 19">
       <r>   -0.3798    1.0000 </r>
       <r>    0.5238    1.0000 </r>
       <r>    2.1434    1.0000 </r>
       <r>    2.1434    1.0000 </r>
       <r>    2.3030    1.0000 </r>
       <r>    2.3313    1.0000 </r>
       <r>    2.3313    1.0000 </r>
       <r>    2.4662    1.0000 </r>
       <r>    2.6596    1.0000 </r>
       <r>    2.6596    1.0000 </r>
       <r>    2.9980    1.0000 </r>
       <r>    3.0210    1.0000 </r>
       <r>    3.2066    1.0000 </r>
       <r>    3.3579    1.0000 </r>
       <r>    3.4604    1.0000 </r>
       <r>    3.4604    1.0000 </r>
       <r>    3.4662    1.0000 </r>
       <r>    3.6820    1.0000 </r>
       <r>    3.7452    1.0000 </r>
       <r>    3.7760    1.0000 </r>
       <r>    3.9233    1.0000 </r>
       <r>    3.9233    1.0000 </r>
       <r>    9.0868   -0.0000 </r>
       <r>    9.0868   -0.0000 </r>
       <r>   10.2867   -0.0000 </r>
       <r>   10.2867   -0.0000 </r>
       <r>   13.8997    0.0000 </r>
       <r>   13.8997    0.0000 </r>
       <r>   14.8764    0.0000 </r>
       <r>   14.8764    0.0000 </r>
      </set>
      <set comment="kpoint 20">
       <r>   -1.4397    1.0000 </r>
       <r>    1.7218    1.0000 </r>
       <r>    1.7218    1.0000 </r>
       <r>    1.8784    1.0000 </r>
       <r>    2.1083    1.0000 </r>
       <r>    2.1083    1.0000 </r>
       <r>    2.1087    1.0000 </r>
       <r>    2.7095    1.0000 </r>
       <r>    2.9979    1.0000 </r>
       <r>    3.0094    1.0000 </r>
       <r>    3.1293    1.0000 </r>
       <r>    3.1293    1.0000 </r>
       <r>    3.1584    1.0000 </r>
       <r>    3.4015    1.0000 </r>
       <r>    3.5434    1.0000 </r>
       <r>    3.5751    1.0000 </r>
       <r>    3.5932    1.0000 </r>
       <r>    3.5932    1.0000 </r>
       <r>    3.9106    1.0000 </r>
       <r>    3.9106    1.0000 </r>
       <r>    3.9106    1.0000 </r>
       <r>    5.8175   -0.0005 </r>
       <r>    5.8175   -0.0005 </r>
       <r>    7.8005   -0.0000 </r>
       <r>   11.3464    0.0000 </r>
       <r>   13.0439    0.0000 </r>
       <r>   13.5256    0.0000 </r>
       <r>   13.5256    0.0000 </r>
       <r>   15.1229    0.0000 </r>
       <r>   15.1229    0.0000 </r>
      </set>
      <set comment="kpoint 21">
       <r>   -0.8410    1.0000 </r>
       <r>    1.4519    1.0000 </r>
       <r>    1.9388    1.0000 </r>
       <r>    2.0268    1.0000 </r>
       <r>    2.2216    1.0000 </r>
       <r>    2.2255    1.0000 </r>
       <r>    2.2412    1.0000 </r>
       <r>    2.6257    1.0000 </r>
       <r>    2.8164    1.0000 </r>
       <r>    2.9177    1.0000 </r>
       <r>    2.9212    1.0000 </r>
       <r>    3.0030    1.0000 </r>
       <r>    3.0719    1.0000 </r>
       <r>    3.3947    1.0000 </r>
       <r>    3.4485    1.0000 </r>
       <r>    3.4716    1.0000 </r>
       <r>    3.5076    1.0000 </r>
       <r>    3.6503    1.0000 </r>
       <r>    3.8412    1.0000 </r>
       <r>    3.8707    1.0000 </r>
       <r>    3.8712    1.0000 </r>
       <r>    4.6978    1.0002 </r>
       <r>    6.5338   -0.0000 </r>
       <r>    8.5250   -0.0000 </r>
       <r>    9.8643   -0.0000 </r>
       <r>   12.0206    0.0000 </r>
       <r>   13.5361    0.0000 </r>
       <r>   14.2353    0.0000 </r>
       <r>   15.6278    0.0000 </r>
       <r>   16.3849    0.0000 </r>
      </set>
      <set comment="kpoint 22">
       <r>   -0.0605    1.0000 </r>
       <r>    0.7880    1.0000 </r>
       <r>    2.1412    1.0000 </r>
       <r>    2.1814    1.0000 </r>
       <r>    2.2840    1.0000 </r>
       <r>    2.3340    1.0000 </r>
       <r>    2.3643    1.0000 </r>
       <r>    2.5038    1.0000 </r>
       <r>    2.6318    1.0000 </r>
       <r>    2.7102    1.0000 </r>
       <r>    2.8704    1.0000 </r>
       <r>    2.9427    1.0000 </r>
       <r>    3.1666    1.0000 </r>
       <r>    3.2962    1.0000 </r>
       <r>    3.3947    1.0000 </r>
       <r>    3.4133    1.0000 </r>
       <r>    3.5115    1.0000 </r>
       <r>    3.7078    1.0000 </r>
       <r>    3.8005    1.0000 </r>
       <r>    3.8470    1.0000 </r>
       <r>    3.8471    1.0000 </r>
       <r>    4.0709    1.0000 </r>
       <r>    7.4031   -0.0000 </r>
       <r>    8.4200   -0.0000 </r>
       <r>    9.6331   -0.0000 </r>
       <r>   10.7127   -0.0000 </r>
       <r>   14.2577    0.0000 </r>
       <r>   15.1786    0.0000 </r>
       <r>   15.2040    0.0000 </r>
       <r>   16.3366    0.0000 </r>
      </set>
      <set comment="kpoint 23">
       <r>   -0.2803    1.0000 </r>
       <r>    1.7107    1.0000 </r>
       <r>    1.7107    1.0000 </r>
       <r>    2.0546    1.0000 </r>
       <r>    2.3330    1.0000 </r>
       <r>    2.3560    1.0000 </r>
       <r>    2.3560    1.0000 </r>
       <r>    2.6099    1.0000 </r>
       <r>    2.7158    1.0000 </r>
       <r>    2.7158    1.0000 </r>
       <r>    2.8349    1.0000 </r>
       <r>    2.9642    1.0000 </r>
       <r>    3.0859    1.0000 </r>
       <r>    3.3654    1.0000 </r>
       <r>    3.3862    1.0000 </r>
       <r>    3.3862    1.0000 </r>
       <r>    3.3922    1.0000 </r>
       <r>    3.7806    1.0000 </r>
       <r>    3.7806    1.0000 </r>
       <r>    3.8018    1.0000 </r>
       <r>    3.8110    1.0000 </r>
       <r>    5.2697    0.5452 </r>
       <r>    5.2697    0.5452 </r>
       <r>    8.1516   -0.0000 </r>
       <r>    9.4235   -0.0000 </r>
       <r>   12.7118    0.0000 </r>
       <r>   12.7118    0.0000 </r>
       <r>   14.0684    0.0000 </r>
       <r>   16.1361    0.0000 </r>
       <r>   17.0280    0.0000 </r>
      </set>
      <set comment="kpoint 24">
       <r>    0.4297    1.0000 </r>
       <r>    1.1624    1.0000 </r>
       <r>    1.9258    1.0000 </r>
       <r>    2.0337    1.0000 </r>
       <r>    2.4350    1.0000 </r>
       <r>    2.4709    1.0000 </r>
       <r>    2.4769    1.0000 </r>
       <r>    2.5569    1.0000 </r>
       <r>    2.6313    1.0000 </r>
       <r>    2.7346    1.0000 </r>
       <r>    2.7613    1.0000 </r>
       <r>    2.8806    1.0000 </r>
       <r>    3.1375    1.0000 </r>
       <r>    3.2463    1.0000 </r>
       <r>    3.2963    1.0000 </r>
       <r>    3.3148    1.0000 </r>
       <r>    3.4756    1.0000 </r>
       <r>    3.6382    1.0000 </r>
       <r>    3.7408    1.0000 </r>
       <r>    3.7494    1.0000 </r>
       <r>    4.0510    1.0000 </r>
       <r>    4.4684    1.0000 </r>
       <r>    6.0046   -0.0000 </r>
       <r>    6.9631   -0.0000 </r>
       <r>   10.2866   -0.0000 </r>
       <r>   11.3942    0.0000 </r>
       <r>   13.6372    0.0000 </r>
       <r>   14.7811    0.0000 </r>
       <r>   14.8342    0.0000 </r>
       <r>   15.8318    0.0000 </r>
      </set>
      <set comment="kpoint 25">
       <r>    1.0076    1.0000 </r>
       <r>    1.5408    1.0000 </r>
       <r>    1.5408    1.0000 </r>
       <r>    1.8308    1.0000 </r>
       <r>    2.5849    1.0000 </r>
       <r>    2.6034    1.0000 </r>
       <r>    2.6091    1.0000 </r>
       <r>    2.6091    1.0000 </r>
       <r>    2.6832    1.0000 </r>
       <r>    2.6832    1.0000 </r>
       <r>    2.7117    1.0000 </r>
       <r>    2.8116    1.0000 </r>
       <r>    3.1275    1.0000 </r>
       <r>    3.1971    1.0000 </r>
       <r>    3.1971    1.0000 </r>
       <r>    3.2080    1.0000 </r>
       <r>    3.4976    1.0000 </r>
       <r>    3.6086    1.0000 </r>
       <r>    3.6086    1.0000 </r>
       <r>    3.6541    1.0000 </r>
       <r>    4.4129    1.0000 </r>
       <r>    5.0116    1.0336 </r>
       <r>    5.0116    1.0336 </r>
       <r>    5.8161   -0.0005 </r>
       <r>   11.1886    0.0000 </r>
       <r>   12.3063    0.0000 </r>
       <r>   12.3063    0.0000 </r>
       <r>   13.4365    0.0000 </r>
       <r>   15.6459    0.0000 </r>
       <r>   16.6884    0.0000 </r>
      </set>
      <set comment="kpoint 26">
       <r>   -1.0821    1.0000 </r>
       <r>    1.8197    1.0000 </r>
       <r>    1.8197    1.0000 </r>
       <r>    1.8197    1.0000 </r>
       <r>    2.1952    1.0000 </r>
       <r>    2.1952    1.0000 </r>
       <r>    2.1952    1.0000 </r>
       <r>    2.7078    1.0000 </r>
       <r>    2.9967    1.0000 </r>
       <r>    2.9967    1.0000 </r>
       <r>    3.0082    1.0000 </r>
       <r>    3.0082    1.0000 </r>
       <r>    3.0082    1.0000 </r>
       <r>    3.4441    1.0000 </r>
       <r>    3.4441    1.0000 </r>
       <r>    3.4441    1.0000 </r>
       <r>    3.5049    1.0000 </r>
       <r>    3.5049    1.0000 </r>
       <r>    3.9325    1.0000 </r>
       <r>    3.9325    1.0000 </r>
       <r>    3.9325    1.0000 </r>
       <r>    6.2472   -0.0000 </r>
       <r>    6.2472   -0.0000 </r>
       <r>    6.2472   -0.0000 </r>
       <r>   11.7816    0.0000 </r>
       <r>   11.7816    0.0000 </r>
       <r>   11.7816    0.0000 </r>
       <r>   15.4374    0.0000 </r>
       <r>   15.4374    0.0000 </r>
       <r>   15.4374    0.0000 </r>
      </set>
      <set comment="kpoint 27">
       <r>   -0.5112    1.0000 </r>
       <r>    1.5603    1.0000 </r>
       <r>    1.9258    1.0000 </r>
       <r>    1.9258    1.0000 </r>
       <r>    2.3249    1.0000 </r>
       <r>    2.3249    1.0000 </r>
       <r>    2.3300    1.0000 </r>
       <r>    2.6707    1.0000 </r>
       <r>    2.8557    1.0000 </r>
       <r>    2.8557    1.0000 </r>
       <r>    2.8633    1.0000 </r>
       <r>    2.9858    1.0000 </r>
       <r>    3.0134    1.0000 </r>
       <r>    3.2997    1.0000 </r>
       <r>    3.3523    1.0000 </r>
       <r>    3.3523    1.0000 </r>
       <r>    3.5192    1.0000 </r>
       <r>    3.6300    1.0000 </r>
       <r>    3.8989    1.0000 </r>
       <r>    3.8989    1.0000 </r>
       <r>    3.9139    1.0000 </r>
       <r>    4.9884    1.0294 </r>
       <r>    6.8671   -0.0000 </r>
       <r>    6.8671   -0.0000 </r>
       <r>   10.2833   -0.0000 </r>
       <r>   10.2833   -0.0000 </r>
       <r>   12.4768    0.0000 </r>
       <r>   15.9149    0.0000 </r>
       <r>   15.9708    0.0000 </r>
       <r>   15.9708    0.0000 </r>
      </set>
      <set comment="kpoint 28">
       <r>    0.2177    1.0000 </r>
       <r>    0.9805    1.0000 </r>
       <r>    2.0009    1.0000 </r>
       <r>    2.0009    1.0000 </r>
       <r>    2.4008    1.0000 </r>
       <r>    2.4008    1.0000 </r>
       <r>    2.4735    1.0000 </r>
       <r>    2.5904    1.0000 </r>
       <r>    2.7919    1.0000 </r>
       <r>    2.7919    1.0000 </r>
       <r>    2.8420    1.0000 </r>
       <r>    2.9187    1.0000 </r>
       <r>    3.0712    1.0000 </r>
       <r>    3.1697    1.0000 </r>
       <r>    3.2876    1.0000 </r>
       <r>    3.2876    1.0000 </r>
       <r>    3.7095    1.0000 </r>
       <r>    3.7516    1.0000 </r>
       <r>    3.8509    1.0000 </r>
       <r>    3.8616    1.0000 </r>
       <r>    3.8616    1.0000 </r>
       <r>    4.1631    1.0000 </r>
       <r>    7.5674   -0.0000 </r>
       <r>    7.5674   -0.0000 </r>
       <r>    9.1391   -0.0000 </r>
       <r>    9.1391   -0.0000 </r>
       <r>   13.4067    0.0000 </r>
       <r>   14.5550    0.0000 </r>
       <r>   16.7192    0.0000 </r>
       <r>   16.7192    0.0000 </r>
      </set>
      <set comment="kpoint 29">
       <r>    0.0018    1.0000 </r>
       <r>    1.6723    1.0000 </r>
       <r>    1.6723    1.0000 </r>
       <r>    1.8819    1.0000 </r>
       <r>    2.4512    1.0000 </r>
       <r>    2.4881    1.0000 </r>
       <r>    2.4881    1.0000 </r>
       <r>    2.7249    1.0000 </r>
       <r>    2.8121    1.0000 </r>
       <r>    2.8121    1.0000 </r>
       <r>    2.8973    1.0000 </r>
       <r>    2.9590    1.0000 </r>
       <r>    2.9891    1.0000 </r>
       <r>    3.2169    1.0000 </r>
       <r>    3.2169    1.0000 </r>
       <r>    3.2284    1.0000 </r>
       <r>    3.5526    1.0000 </r>
       <r>    3.7497    1.0000 </r>
       <r>    3.8757    1.0000 </r>
       <r>    3.8877    1.0000 </r>
       <r>    3.8877    1.0000 </r>
       <r>    5.4745   -0.0218 </r>
       <r>    5.4745   -0.0218 </r>
       <r>    7.2476   -0.0000 </r>
       <r>    8.9710   -0.0000 </r>
       <r>   10.9572    0.0000 </r>
       <r>   10.9572    0.0000 </r>
       <r>   14.3452    0.0000 </r>
       <r>   16.5253    0.0000 </r>
       <r>   18.6966    0.0000 </r>
      </set>
      <set comment="kpoint 30">
       <r>    0.6238    1.0000 </r>
       <r>    1.2249    1.0000 </r>
       <r>    1.7581    1.0000 </r>
       <r>    1.8245    1.0000 </r>
       <r>    2.5407    1.0000 </r>
       <r>    2.5666    1.0000 </r>
       <r>    2.6613    1.0000 </r>
       <r>    2.7436    1.0000 </r>
       <r>    2.8142    1.0000 </r>
       <r>    2.8690    1.0000 </r>
       <r>    2.8875    1.0000 </r>
       <r>    2.9269    1.0000 </r>
       <r>    3.0163    1.0000 </r>
       <r>    3.0976    1.0000 </r>
       <r>    3.1602    1.0000 </r>
       <r>    3.1656    1.0000 </r>
       <r>    3.6610    1.0000 </r>
       <r>    3.8127    1.0000 </r>
       <r>    3.8353    1.0000 </r>
       <r>    3.8383    1.0000 </r>
       <r>    3.9780    1.0000 </r>
       <r>    4.4938    1.0000 </r>
       <r>    6.1465   -0.0000 </r>
       <r>    6.9454   -0.0000 </r>
       <r>    8.8364   -0.0000 </r>
       <r>    9.7109   -0.0000 </r>
       <r>   11.8647    0.0000 </r>
       <r>   12.9950    0.0000 </r>
       <r>   17.3039    0.0000 </r>
       <r>   18.2878    0.0000 </r>
      </set>
      <set comment="kpoint 31">
       <r>    1.0653    1.0000 </r>
       <r>    1.4518    1.0000 </r>
       <r>    1.4518    1.0000 </r>
       <r>    1.6454    1.0000 </r>
       <r>    2.6649    1.0000 </r>
       <r>    2.7309    1.0000 </r>
       <r>    2.7309    1.0000 </r>
       <r>    2.8372    1.0000 </r>
       <r>    2.9085    1.0000 </r>
       <r>    2.9249    1.0000 </r>
       <r>    2.9249    1.0000 </r>
       <r>    2.9972    1.0000 </r>
       <r>    3.0057    1.0000 </r>
       <r>    3.0617    1.0000 </r>
       <r>    3.0617    1.0000 </r>
       <r>    3.0714    1.0000 </r>
       <r>    3.6557    1.0000 </r>
       <r>    3.7550    1.0000 </r>
       <r>    3.7550    1.0000 </r>
       <r>    3.7750    1.0000 </r>
       <r>    4.3474    1.0000 </r>
       <r>    5.0347    1.0355 </r>
       <r>    5.0347    1.0355 </r>
       <r>    5.8649   -0.0001 </r>
       <r>    9.5352   -0.0000 </r>
       <r>   10.5695   -0.0000 </r>
       <r>   10.5695   -0.0000 </r>
       <r>   11.6659    0.0000 </r>
       <r>   18.1116    0.0000 </r>
       <r>   19.1329    0.0000 </r>
      </set>
      <set comment="kpoint 32">
       <r>    0.4178    1.0000 </r>
       <r>    1.6272    1.0000 </r>
       <r>    1.6272    1.0000 </r>
       <r>    1.6272    1.0000 </r>
       <r>    2.6161    1.0000 </r>
       <r>    2.6161    1.0000 </r>
       <r>    2.6161    1.0000 </r>
       <r>    2.9305    1.0000 </r>
       <r>    2.9380    1.0000 </r>
       <r>    2.9380    1.0000 </r>
       <r>    2.9743    1.0000 </r>
       <r>    2.9743    1.0000 </r>
       <r>    2.9743    1.0000 </r>
       <r>    3.0953    1.0000 </r>
       <r>    3.0953    1.0000 </r>
       <r>    3.0953    1.0000 </r>
       <r>    3.7016    1.0000 </r>
       <r>    3.7016    1.0000 </r>
       <r>    3.9115    1.0000 </r>
       <r>    3.9115    1.0000 </r>
       <r>    3.9115    1.0000 </r>
       <r>    5.8172   -0.0005 </r>
       <r>    5.8172   -0.0005 </r>
       <r>    5.8172   -0.0005 </r>
       <r>    9.5171   -0.0000 </r>
       <r>    9.5171   -0.0000 </r>
       <r>    9.5171   -0.0000 </r>
       <r>   12.7818    0.0000 </r>
       <r>   19.2370    0.0000 </r>
       <r>   19.2370    0.0000 </r>
      </set>
      <set comment="kpoint 33">
       <r>    0.8793    1.0000 </r>
       <r>    1.2948    1.0000 </r>
       <r>    1.5985    1.0000 </r>
       <r>    1.5985    1.0000 </r>
       <r>    2.6742    1.0000 </r>
       <r>    2.6742    1.0000 </r>
       <r>    2.7768    1.0000 </r>
       <r>    2.8845    1.0000 </r>
       <r>    2.9396    1.0000 </r>
       <r>    2.9941    1.0000 </r>
       <r>    3.0326    1.0000 </r>
       <r>    3.0326    1.0000 </r>
       <r>    3.0587    1.0000 </r>
       <r>    3.0954    1.0000 </r>
       <r>    3.1376    1.0000 </r>
       <r>    3.1376    1.0000 </r>
       <r>    3.8200    1.0000 </r>
       <r>    3.8819    1.0000 </r>
       <r>    3.8819    1.0000 </r>
       <r>    3.8929    1.0000 </r>
       <r>    3.9074    1.0000 </r>
       <r>    4.6506    1.0000 </r>
       <r>    6.1877   -0.0000 </r>
       <r>    6.1877   -0.0000 </r>
       <r>    8.5728   -0.0000 </r>
       <r>    8.5728   -0.0000 </r>
       <r>   10.3633   -0.0000 </r>
       <r>   11.4538    0.0000 </r>
       <r>   19.9884    0.0000 </r>
       <r>   19.9884    0.0000 </r>
      </set>
      <set comment="kpoint 34">
       <r>    1.1350    1.0000 </r>
       <r>    1.3712    1.0000 </r>
       <r>    1.3712    1.0000 </r>
       <r>    1.4690    1.0000 </r>
       <r>    2.7573    1.0000 </r>
       <r>    2.7911    1.0000 </r>
       <r>    2.7911    1.0000 </r>
       <r>    2.8657    1.0000 </r>
       <r>    2.9058    1.0000 </r>
       <r>    2.9431    1.0000 </r>
       <r>    2.9431    1.0000 </r>
       <r>    2.9557    1.0000 </r>
       <r>    3.3403    1.0000 </r>
       <r>    3.3403    1.0000 </r>
       <r>    3.3484    1.0000 </r>
       <r>    3.4253    1.0000 </r>
       <r>    3.7874    1.0000 </r>
       <r>    3.8633    1.0000 </r>
       <r>    3.8633    1.0000 </r>
       <r>    3.8642    1.0000 </r>
       <r>    4.2408    1.0000 </r>
       <r>    5.0767    1.0269 </r>
       <r>    5.0767    1.0269 </r>
       <r>    5.7357   -0.0030 </r>
       <r>    8.4615   -0.0000 </r>
       <r>    9.1873   -0.0000 </r>
       <r>    9.1873   -0.0000 </r>
       <r>   10.1769   -0.0000 </r>
       <r>   20.7563    0.0000 </r>
       <r>   21.6995    0.0000 </r>
      </set>
      <set comment="kpoint 35">
       <r>    1.2174    1.0000 </r>
       <r>    1.3257    1.0000 </r>
       <r>    1.3257    1.0000 </r>
       <r>    1.3257    1.0000 </r>
       <r>    2.8301    1.0000 </r>
       <r>    2.8301    1.0000 </r>
       <r>    2.8301    1.0000 </r>
       <r>    2.8665    1.0000 </r>
       <r>    2.8665    1.0000 </r>
       <r>    2.8840    1.0000 </r>
       <r>    2.8840    1.0000 </r>
       <r>    2.8840    1.0000 </r>
       <r>    3.6737    1.0000 </r>
       <r>    3.6737    1.0000 </r>
       <r>    3.6737    1.0000 </r>
       <r>    3.8725    1.0000 </r>
       <r>    3.8725    1.0000 </r>
       <r>    3.8991    1.0000 </r>
       <r>    3.8991    1.0000 </r>
       <r>    3.8991    1.0000 </r>
       <r>    4.3503    1.0000 </r>
       <r>    5.1281    0.9795 </r>
       <r>    5.1281    0.9795 </r>
       <r>    5.1281    0.9795 </r>
       <r>    8.3563   -0.0000 </r>
       <r>    8.3563   -0.0000 </r>
       <r>    8.3563   -0.0000 </r>
       <r>    9.0323   -0.0000 </r>
       <r>   23.3951    0.0000 </r>
       <r>   23.3951    0.0000 </r>
      </set>
     </set>
    </set>
   </array>
  </eigenvalues>
  <separator name="orbital magnetization" >
   <v name="MAGDIPOLOUT">      0.00000000      0.00000000      0.00000000</v>
  </separator>
  <dos>
   <i name="efermi">      5.28037856 </i>
   <total>
    <array>
     <dimension dim="1">gridpoints</dimension>
     <dimension dim="2">spin</dimension>
     <field>energy</field>
     <field>total</field>
     <field>integrated</field>
     <set>
      <set comment="spin 1">
       <r>    -4.5800     0.0000     0.0000 </r>
       <r>    -4.4801     0.0000     0.0000 </r>
       <r>    -4.3802     0.0000     0.0000 </r>
       <r>    -4.2803     0.0000     0.0000 </r>
       <r>    -4.1804    -0.0000    -0.0000 </r>
       <r>    -4.0805    -0.0000    -0.0000 </r>
       <r>    -3.9805    -0.0000    -0.0000 </r>
       <r>    -3.8806    -0.0000    -0.0000 </r>
       <r>    -3.7807    -0.0000    -0.0000 </r>
       <r>    -3.6808    -0.0000    -0.0000 </r>
       <r>    -3.5809    -0.0000    -0.0000 </r>
       <r>    -3.4810    -0.0000    -0.0000 </r>
       <r>    -3.3810    -0.0000    -0.0000 </r>
       <r>    -3.2811    -0.0000    -0.0000 </r>
       <r>    -3.1812    -0.0000    -0.0000 </r>
       <r>    -3.0813    -0.0000    -0.0000 </r>
       <r>    -2.9814    -0.0003    -0.0000 </r>
       <r>    -2.8815    -0.0013    -0.0002 </r>
       <r>    -2.7815    -0.0034    -0.0005 </r>
       <r>    -2.6816    -0.0023    -0.0007 </r>
       <r>    -2.5817     0.0163     0.0009 </r>
       <r>    -2.4818     0.0701     0.0079 </r>
       <r>    -2.3819     0.1488     0.0228 </r>
       <r>    -2.2819     0.1990     0.0427 </r>
       <r>    -2.1820     0.1876     0.0614 </r>
       <r>    -2.0821     0.1853     0.0799 </r>
       <r>    -1.9822     0.2905     0.1089 </r>
       <r>    -1.8823     0.4332     0.1522 </r>
       <r>    -1.7824     0.4183     0.1940 </r>
       <r>    -1.6824     0.2535     0.2194 </r>
       <r>    -1.5825     0.1961     0.2390 </r>
       <r>    -1.4826     0.3547     0.2744 </r>
       <r>    -1.3827     0.5401     0.3284 </r>
       <r>    -1.2828     0.5852     0.3868 </r>
       <r>    -1.1829     0.5004     0.4368 </r>
       <r>    -1.0829     0.3942     0.4762 </r>
       <r>    -0.9830     0.4493     0.5211 </r>
       <r>    -0.8831     0.6489     0.5859 </r>
       <r>    -0.7832     0.6383     0.6497 </r>
       <r>    -0.6833     0.3792     0.6876 </r>
       <r>    -0.5834     0.3517     0.7228 </r>
       <r>    -0.4834     0.6625     0.7889 </r>
       <r>    -0.3835     0.8711     0.8760 </r>
       <r>    -0.2836     0.8026     0.9562 </r>
       <r>    -0.1837     0.7554     1.0317 </r>
       <r>    -0.0838     0.8913     1.1207 </r>
       <r>     0.0161     0.8719     1.2078 </r>
       <r>     0.1161     0.5413     1.2619 </r>
       <r>     0.2160     0.3709     1.2990 </r>
       <r>     0.3159     0.7012     1.3690 </r>
       <r>     0.4158     1.2363     1.4926 </r>
       <r>     0.5157     1.4226     1.6347 </r>
       <r>     0.6156     1.2533     1.7599 </r>
       <r>     0.7156     1.1253     1.8724 </r>
       <r>     0.8155     1.0725     1.9795 </r>
       <r>     0.9154     1.0534     2.0848 </r>
       <r>     1.0153     1.3402     2.2187 </r>
       <r>     1.1152     2.0141     2.4199 </r>
       <r>     1.2151     2.5678     2.6765 </r>
       <r>     1.3151     2.7131     2.9476 </r>
       <r>     1.4150     3.1055     3.2579 </r>
       <r>     1.5149     4.1712     3.6747 </r>
       <r>     1.6148     5.3357     4.2078 </r>
       <r>     1.7147     5.9815     4.8054 </r>
       <r>     1.8147     6.4540     5.4503 </r>
       <r>     1.9146     7.8605     6.2357 </r>
       <r>     2.0145    10.0053     7.2354 </r>
       <r>     2.1144    11.3895     8.3734 </r>
       <r>     2.2143    11.5679     9.5292 </r>
       <r>     2.3142    11.2299    10.6513 </r>
       <r>     2.4142    11.2318    11.7736 </r>
       <r>     2.5141    12.1771    12.9903 </r>
       <r>     2.6140    14.2526    14.4143 </r>
       <r>     2.7139    16.6726    16.0802 </r>
       <r>     2.8138    19.0105    17.9797 </r>
       <r>     2.9137    21.6939    20.1473 </r>
       <r>     3.0137    22.6242    22.4078 </r>
       <r>     3.1136    19.7224    24.3784 </r>
       <r>     3.2135    16.1041    25.9875 </r>
       <r>     3.3134    15.9668    27.5829 </r>
       <r>     3.4133    18.3470    29.4161 </r>
       <r>     3.5132    19.3124    31.3457 </r>
       <r>     3.6132    18.6167    33.2058 </r>
       <r>     3.7131    19.7246    35.1767 </r>
       <r>     3.8130    23.1286    37.4876 </r>
       <r>     3.9129    23.3280    39.8185 </r>
       <r>     4.0128    16.3653    41.4536 </r>
       <r>     4.1127     7.1064    42.1637 </r>
       <r>     4.2127     1.8330    42.3468 </r>
       <r>     4.3126     0.7865    42.4254 </r>
       <r>     4.4125     1.4540    42.5707 </r>
       <r>     4.5124     2.0148    42.7720 </r>
       <r>     4.6123     1.8377    42.9556 </r>
       <r>     4.7122     1.2305    43.0786 </r>
       <r>     4.8122     0.6513    43.1437 </r>
       <r>     4.9121     0.8320    43.2268 </r>
       <r>     5.0120     1.9537    43.4220 </r>
       <r>     5.1119     2.6341    43.6852 </r>
       <r>     5.2118     2.1474    43.8997 </r>
       <r>     5.3118     1.3601    44.0357 </r>
       <r>     5.4117     0.8428    44.1199 </r>
       <r>     5.5116     0.5764    44.1774 </r>
       <r>     5.6115     0.5570    44.2331 </r>
       <r>     5.7114     0.9916    44.3322 </r>
       <r>     5.8113     1.6906    44.5011 </r>
       <r>     5.9113     1.8895    44.6899 </r>
       <r>     6.0112     1.5634    44.8461 </r>
       <r>     6.1111     1.4153    44.9875 </r>
       <r>     6.2110     1.4296    45.1304 </r>
       <r>     6.3109     1.1681    45.2471 </r>
       <r>     6.4108     0.9122    45.3382 </r>
       <r>     6.5108     0.9088    45.4290 </r>
       <r>     6.6107     0.7869    45.5076 </r>
       <r>     6.7106     0.5501    45.5626 </r>
       <r>     6.8105     0.7939    45.6419 </r>
       <r>     6.9104     1.5382    45.7956 </r>
       <r>     7.0103     1.7721    45.9727 </r>
       <r>     7.1103     1.2302    46.0956 </r>
       <r>     7.2102     0.9970    46.1952 </r>
       <r>     7.3101     1.3505    46.3302 </r>
       <r>     7.4100     1.4514    46.4752 </r>
       <r>     7.5099     1.1446    46.5896 </r>
       <r>     7.6098     0.8110    46.6706 </r>
       <r>     7.7098     0.5061    46.7212 </r>
       <r>     7.8097     0.3311    46.7542 </r>
       <r>     7.9096     0.3983    46.7940 </r>
       <r>     8.0095     0.6825    46.8622 </r>
       <r>     8.1094     1.0376    46.9659 </r>
       <r>     8.2093     1.1662    47.0824 </r>
       <r>     8.3093     1.2173    47.2040 </r>
       <r>     8.4092     1.5857    47.3625 </r>
       <r>     8.5091     1.8800    47.5503 </r>
       <r>     8.6090     1.4848    47.6987 </r>
       <r>     8.7089     0.7592    47.7745 </r>
       <r>     8.8089     0.5620    47.8307 </r>
       <r>     8.9088     0.9501    47.9256 </r>
       <r>     9.0087     1.4785    48.0733 </r>
       <r>     9.1086     1.9156    48.2647 </r>
       <r>     9.2085     1.8494    48.4495 </r>
       <r>     9.3084     1.1471    48.5641 </r>
       <r>     9.4084     0.5965    48.6237 </r>
       <r>     9.5083     0.7811    48.7018 </r>
       <r>     9.6082     1.3581    48.8375 </r>
       <r>     9.7081     1.7221    49.0095 </r>
       <r>     9.8080     1.5492    49.1643 </r>
       <r>     9.9079     0.9597    49.2602 </r>
       <r>    10.0079     0.4120    49.3014 </r>
       <r>    10.1078     0.5084    49.3522 </r>
       <r>    10.2077     1.4084    49.4929 </r>
       <r>    10.3076     2.2294    49.7157 </r>
       <r>    10.4075     1.9814    49.9137 </r>
       <r>    10.5074     1.1942    50.0330 </r>
       <r>    10.6074     0.8887    50.1218 </r>
       <r>    10.7073     0.8887    50.2106 </r>
       <r>    10.8072     0.7829    50.2888 </r>
       <r>    10.9071     0.7530    50.3640 </r>
       <r>    11.0070     0.7518    50.4391 </r>
       <r>    11.1069     0.6078    50.4999 </r>
       <r>    11.2069     0.6606    50.5659 </r>
       <r>    11.3068     1.1157    50.6773 </r>
       <r>    11.4067     1.6780    50.8450 </r>
       <r>    11.5066     1.8922    51.0341 </r>
       <r>    11.6065     1.7956    51.2135 </r>
       <r>    11.7064     1.8162    51.3950 </r>
       <r>    11.8064     1.8570    51.5805 </r>
       <r>    11.9063     1.5794    51.7383 </r>
       <r>    12.0062     1.1534    51.8536 </r>
       <r>    12.1061     0.8863    51.9421 </r>
       <r>    12.2060     0.9250    52.0345 </r>
       <r>    12.3060     1.2782    52.1623 </r>
       <r>    12.4059     1.5068    52.3128 </r>
       <r>    12.5058     1.3698    52.4497 </r>
       <r>    12.6057     1.3530    52.5849 </r>
       <r>    12.7056     1.6141    52.7461 </r>
       <r>    12.8055     1.5154    52.8976 </r>
       <r>    12.9055     1.3122    53.0287 </r>
       <r>    13.0054     1.9150    53.2200 </r>
       <r>    13.1053     2.6707    53.4869 </r>
       <r>    13.2052     2.4027    53.7269 </r>
       <r>    13.3051     1.5167    53.8785 </r>
       <r>    13.4050     1.2361    54.0020 </r>
       <r>    13.5050     1.6828    54.1701 </r>
       <r>    13.6049     1.8672    54.3567 </r>
       <r>    13.7048     1.4113    54.4977 </r>
       <r>    13.8047     1.0424    54.6019 </r>
       <r>    13.9046     1.2285    54.7246 </r>
       <r>    14.0045     1.4523    54.8697 </r>
       <r>    14.1045     1.3934    55.0089 </r>
       <r>    14.2044     1.4271    55.1515 </r>
       <r>    14.3043     1.5076    55.3022 </r>
       <r>    14.4042     1.2729    55.4294 </r>
       <r>    14.5041     0.9459    55.5239 </r>
       <r>    14.6040     1.0493    55.6287 </r>
       <r>    14.7040     1.9098    55.8195 </r>
       <r>    14.8039     2.8732    56.1066 </r>
       <r>    14.9038     2.6338    56.3698 </r>
       <r>    15.0037     1.6476    56.5344 </r>
       <r>    15.1036     1.5834    56.6926 </r>
       <r>    15.2035     2.2286    56.9153 </r>
       <r>    15.3035     2.1620    57.1313 </r>
       <r>    15.4034     1.4142    57.2726 </r>
       <r>    15.5033     0.9511    57.3676 </r>
       <r>    15.6032     0.9714    57.4647 </r>
       <r>    15.7031     1.0633    57.5709 </r>
       <r>    15.8031     1.3115    57.7020 </r>
       <r>    15.9030     1.9570    57.8975 </r>
       <r>    16.0029     2.2347    58.1208 </r>
       <r>    16.1028     1.6038    58.2811 </r>
       <r>    16.2027     1.0428    58.3853 </r>
       <r>    16.3026     1.3129    58.5164 </r>
       <r>    16.4026     1.6072    58.6770 </r>
       <r>    16.5025     1.2026    58.7972 </r>
       <r>    16.6024     0.7481    58.8719 </r>
       <r>    16.7023     0.7491    58.9468 </r>
       <r>    16.8022     0.7308    59.0198 </r>
       <r>    16.9021     0.5494    59.0747 </r>
       <r>    17.0021     0.4990    59.1246 </r>
       <r>    17.1020     0.4460    59.1691 </r>
       <r>    17.2019     0.3846    59.2076 </r>
       <r>    17.3018     0.4869    59.2562 </r>
       <r>    17.4017     0.4664    59.3028 </r>
       <r>    17.5016     0.2014    59.3229 </r>
       <r>    17.6016     0.0035    59.3233 </r>
       <r>    17.7015    -0.0303    59.3202 </r>
       <r>    17.8014    -0.0235    59.3179 </r>
       <r>    17.9013    -0.0153    59.3164 </r>
       <r>    18.0012     0.0599    59.3224 </r>
       <r>    18.1011     0.2507    59.3474 </r>
       <r>    18.2011     0.4965    59.3970 </r>
       <r>    18.3010     0.6235    59.4593 </r>
       <r>    18.4009     0.4532    59.5046 </r>
       <r>    18.5008     0.1572    59.5203 </r>
       <r>    18.6007     0.0947    59.5298 </r>
       <r>    18.7006     0.2197    59.5517 </r>
       <r>    18.8006     0.2203    59.5737 </r>
       <r>    18.9005     0.0792    59.5816 </r>
       <r>    19.0004     0.0513    59.5868 </r>
       <r>    19.1003     0.2274    59.6095 </r>
       <r>    19.2002     0.3941    59.6489 </r>
       <r>    19.3002     0.3297    59.6818 </r>
       <r>    19.4001     0.1287    59.6947 </r>
       <r>    19.5000     0.0023    59.6949 </r>
       <r>    19.5999    -0.0267    59.6922 </r>
       <r>    19.6998    -0.0334    59.6889 </r>
       <r>    19.7997     0.0145    59.6903 </r>
       <r>    19.8997     0.2378    59.7141 </r>
       <r>    19.9996     0.5072    59.7648 </r>
       <r>    20.0995     0.4637    59.8111 </r>
       <r>    20.1994     0.1724    59.8283 </r>
       <r>    20.2993    -0.0080    59.8275 </r>
       <r>    20.3992    -0.0324    59.8243 </r>
       <r>    20.4992    -0.0207    59.8222 </r>
       <r>    20.5991     0.0309    59.8253 </r>
       <r>    20.6990     0.1678    59.8421 </r>
       <r>    20.7989     0.2686    59.8689 </r>
       <r>    20.8988     0.1900    59.8879 </r>
       <r>    20.9987     0.0469    59.8926 </r>
       <r>    21.0987    -0.0115    59.8914 </r>
       <r>    21.1986    -0.0101    59.8904 </r>
       <r>    21.2985    -0.0067    59.8898 </r>
       <r>    21.3984    -0.0131    59.8885 </r>
       <r>    21.4983     0.0011    59.8886 </r>
       <r>    21.5982     0.1003    59.8986 </r>
       <r>    21.6982     0.2424    59.9228 </r>
       <r>    21.7981     0.2450    59.9473 </r>
       <r>    21.8980     0.1042    59.9577 </r>
       <r>    21.9979     0.0024    59.9579 </r>
       <r>    22.0978    -0.0130    59.9566 </r>
       <r>    22.1977    -0.0046    59.9562 </r>
       <r>    22.2977    -0.0007    59.9561 </r>
       <r>    22.3976    -0.0001    59.9561 </r>
       <r>    22.4975    -0.0000    59.9561 </r>
       <r>    22.5974    -0.0000    59.9561 </r>
       <r>    22.6973    -0.0000    59.9561 </r>
       <r>    22.7973    -0.0000    59.9561 </r>
       <r>    22.8972    -0.0005    59.9561 </r>
       <r>    22.9971    -0.0031    59.9557 </r>
       <r>    23.0970    -0.0087    59.9549 </r>
       <r>    23.1969     0.0017    59.9550 </r>
       <r>    23.2968     0.0698    59.9620 </r>
       <r>    23.3968     0.1636    59.9784 </r>
       <r>    23.4967     0.1614    59.9945 </r>
       <r>    23.5966     0.0666    60.0011 </r>
       <r>    23.6965     0.0006    60.0012 </r>
       <r>    23.7964    -0.0086    60.0003 </r>
       <r>    23.8963    -0.0029    60.0000 </r>
       <r>    23.9963    -0.0005    60.0000 </r>
       <r>    24.0962    -0.0000    60.0000 </r>
       <r>    24.1961    -0.0000    60.0000 </r>
       <r>    24.2960    -0.0000    60.0000 </r>
       <r>    24.3959    -0.0000    60.0000 </r>
       <r>    24.4958    -0.0000    60.0000 </r>
       <r>    24.5958    -0.0000    60.0000 </r>
       <r>    24.6957    -0.0000    60.0000 </r>
       <r>    24.7956     0.0000    60.0000 </r>
       <r>    24.8955     0.0000    60.0000 </r>
       <r>    24.9954     0.0000    60.0000 </r>
       <r>    25.0953     0.0000    60.0000 </r>
       <r>    25.1953     0.0000    60.0000 </r>
       <r>    25.2952     0.0000    60.0000 </r>
       <r>    25.3951     0.0000    60.0000 </r>
      </set>
     </set>
    </array>
   </total>
  </dos>
 </calculation>
 <structure name="finalpos" >
  <crystal>
   <varray name="basis" >
    <v>       3.86276390       0.00000000       0.00000000 </v>
    <v>       0.00000000       3.86276390       0.00000000 </v>
    <v>       0.00000000       0.00000000       3.86276390 </v>
   </varray>
   <i name="volume">     57.63608745 </i>
   <varray name="rec_basis" >
    <v>       0.25888199       0.00000000       0.00000000 </v>
    <v>       0.00000000       0.25888199       0.00000000 </v>
    <v>       0.00000000       0.00000000       0.25888199 </v>
   </varray>
  </crystal>
  <varray name="positions" >
   <v>       0.00000000       0.00000000       0.00000000 </v>
   <v>       0.50000000       0.50000000       0.00000000 </v>
   <v>       0.50000000       0.00000000       0.50000000 </v>
   <v>       0.00000000       0.50000000       0.50000000 </v>
  </varray>
 </structure>
</modeling>
