unknown system                          
   1.00000000000000     
     3.386680    0.000000    0.000000
     0.000000    3.386680    0.000000
     0.000000    0.000000    3.386680
   Fe
     4
Direct
  0.000000  0.000000  0.000000
  0.500000  0.500000  0.000000
  0.500000  0.000000  0.500000
  0.000000  0.500000  0.500000
 
   28   28   28
  325.83      307.46      258.52      193.90      129.59      76.975      41.403      22.690      15.863      13.313    
  11.677      10.619      10.013      9.8066      9.7873      9.8066      10.013      10.619      11.677      13.313    
  15.863      22.690      41.403      76.975      129.59      193.90      258.52      307.46      307.46      290.12    
  243.90      182.83      122.08      72.528      39.264      21.996      15.772      13.305      11.704      10.663    
  10.056      9.8351      9.8066      9.8351      10.056      10.663      11.704      13.305      15.772      21.996    
  39.264      72.528      122.08      182.83      243.90      290.12      258.52      243.90      204.88      153.30    
  102.13      60.835      33.773      20.302      15.562      13.306      11.830      10.868      10.291      10.056    
  10.013      10.056      10.291      10.868      11.830      13.306      15.562      20.302      33.773      60.835    
  102.13      153.30      204.88      243.90      193.90      182.83      153.30      114.36      76.102      45.976    
  27.158      18.478      15.306      13.369      12.131      11.340      10.868      10.663      10.619      10.663    
  10.868      11.340      12.131      13.369      15.306      18.478      27.158      45.976      76.102      114.36    
  153.30      182.83      129.59      122.08      102.13      76.102      51.151      32.430      21.692      17.205    
  15.052      13.566      12.666      12.131      11.830      11.704      11.677      11.704      11.830      12.131    
  12.666      13.566      15.052      17.205      21.692      32.430      51.151      76.102      102.13      122.08    
  76.975      72.528      60.835      45.976      32.430      23.137      18.480      16.407      14.935      14.024    
  13.566      13.369      13.306      13.305      13.313      13.305      13.306      13.369      13.566      14.024    
  14.935      16.407      18.480      23.137      32.430      45.976      60.835      72.528      41.403      39.264    
  33.773      27.158      21.692      18.480      16.924      15.811      15.141      14.935      15.052      15.306    
  15.562      15.772      15.863      15.772      15.562      15.306      15.052      14.935      15.141      15.811    
  16.924      18.480      21.692      27.158      33.773      39.264      22.690      21.996      20.302      18.478    
  17.205      16.407      15.811      15.584      15.811      16.407      17.205      18.478      20.302      21.996    
  22.690      21.996      20.302      18.478      17.205      16.407      15.811      15.584      15.811      16.407    
  17.205      18.478      20.302      21.996      15.863      15.772      15.562      15.306      15.052      14.935    
  15.141      15.811      16.924      18.480      21.692      27.158      33.773      39.264      41.403      39.264    
  33.773      27.158      21.692      18.480      16.924      15.811      15.141      14.935      15.052      15.306    
  15.562      15.772      13.313      13.305      13.306      13.369      13.566      14.024      14.935      16.407    
  18.480      23.137      32.430      45.976      60.835      72.528      76.975      72.528      60.835      45.976    
  32.430      23.137      18.480      16.407      14.935      14.024      13.566      13.369      13.306      13.305    
  11.677      11.704      11.830      12.131      12.666      13.566      15.052      17.205      21.692      32.430    
  51.151      76.102      102.13      122.08      129.59      122.08      102.13      76.102      51.151      32.430    
  21.692      17.205      15.052      13.566      12.666      12.131      11.830      11.704      10.619      10.663    
  10.868      11.340      12.131      13.369      15.306      18.478      27.158      45.976      76.102      114.36    
  153.30      182.83      193.90      182.83      153.30      114.36      76.102      45.976      27.158      18.478    
  15.306      13.369      12.131      11.340      10.868      10.663      10.013      10.056      10.291      10.868    
  11.830      13.306      15.562      20.302      33.773      60.835      102.13      153.30      204.88      243.90    
  258.52      243.90      204.88      153.30      102.13      60.835      33.773      20.302      15.562      13.306    
  11.830      10.868      10.291      10.056      9.8066      9.8351      10.056      10.663      11.704      13.305    
  15.772      21.996      39.264      72.528      122.08      182.83      243.90      290.12      307.46      290.12    
  243.90      182.83      122.08      72.528      39.264      21.996      15.772      13.305      11.704      10.663    
  10.056      9.8351      9.7873      9.8066      10.013      10.619      11.677      13.313      15.863      22.690    
  41.403      76.975      129.59      193.90      258.52      307.46      325.83      307.46      258.52      193.90    
  129.59      76.975      41.403      22.690      15.863      13.313      11.677      10.619      10.013      9.8066    
  9.8066      9.8351      10.056      10.663      11.704      13.305      15.772      21.996      39.264      72.528    
  122.08      182.83      243.90      290.12      307.46      290.12      243.90      182.83      122.08      72.528    
  39.264      21.996      15.772      13.305      11.704      10.663      10.056      9.8351      10.013      10.056    
  10.291      10.868      11.830      13.306      15.562      20.302      33.773      60.835      102.13      153.30    
  204.88      243.90      258.52      243.90      204.88      153.30      102.13      60.835      33.773      20.302    
  15.562      13.306      11.830      10.868      10.291      10.056      10.619      10.663      10.868      11.340    
  12.131      13.369      15.306      18.478      27.158      45.976      76.102      114.36      153.30      182.83    
  193.90      182.83      153.30      114.36      76.102      45.976      27.158      18.478      15.306      13.369    
  12.131      11.340      10.868      10.663      11.677      11.704      11.830      12.131      12.666      13.566    
  15.052      17.205      21.692      32.430      51.151      76.102      102.13      122.08      129.59      122.08    
  102.13      76.102      51.151      32.430      21.692      17.205      15.052      13.566      12.666      12.131    
  11.830      11.704      13.313      13.305      13.306      13.369      13.566      14.024      14.935      16.407    
  18.480      23.137      32.430      45.976      60.835      72.528      76.975      72.528      60.835      45.976    
  32.430      23.137      18.480      16.407      14.935      14.024      13.566      13.369      13.306      13.305    
  15.863      15.772      15.562      15.306      15.052      14.935      15.141      15.811      16.924      18.480    
  21.692      27.158      33.773      39.264      41.403      39.264      33.773      27.158      21.692      18.480    
  16.924      15.811      15.141      14.935      15.052      15.306      15.562      15.772      22.690      21.996    
  20.302      18.478      17.205      16.407      15.811      15.584      15.811      16.407      17.205      18.478    
  20.302      21.996      22.690      21.996      20.302      18.478      17.205      16.407      15.811      15.584    
  15.811      16.407      17.205      18.478      20.302      21.996      41.403      39.264      33.773      27.158    
  21.692      18.480      16.924      15.811      15.141      14.935      15.052      15.306      15.562      15.772    
  15.863      15.772      15.562      15.306      15.052      14.935      15.141      15.811      16.924      18.480    
  21.692      27.158      33.773      39.264      76.975      72.528      60.835      45.976      32.430      23.137    
  18.480      16.407      14.935      14.024      13.566      13.369      13.306      13.305      13.313      13.305    
  13.306      13.369      13.566      14.024      14.935      16.407      18.480      23.137      32.430      45.976    
  60.835      72.528      129.59      122.08      102.13      76.102      51.151      32.430      21.692      17.205    
  15.052      13.566      12.666      12.131      11.830      11.704      11.677      11.704      11.830      12.131    
  12.666      13.566      15.052      17.205      21.692      32.430      51.151      76.102      102.13      122.08    
  193.90      182.83      153.30      114.36      76.102      45.976      27.158      18.478      15.306      13.369    
  12.131      11.340      10.868      10.663      10.619      10.663      10.868      11.340      12.131      13.369    
  15.306      18.478      27.158      45.976      76.102      114.36      153.30      182.83      258.52      243.90    
  204.88      153.30      102.13      60.835      33.773      20.302      15.562      13.306      11.830      10.868    
  10.291      10.056      10.013      10.056      10.291      10.868      11.830      13.306      15.562      20.302    
  33.773      60.835      102.13      153.30      204.88      243.90      307.46      290.12      243.90      182.83    
  122.08      72.528      39.264      21.996      15.772      13.305      11.704      10.663      10.056      9.8351    
  9.8066      9.8351      10.056      10.663      11.704      13.305      15.772      21.996      39.264      72.528    
  122.08      182.83      243.90      290.12      307.46      290.12      243.90      182.83      122.08      72.528    
  39.264      21.996      15.772      13.305      11.704      10.663      10.056      9.8351      9.8066      9.8351    
  10.056      10.663      11.704      13.305      15.772      21.996      39.264      72.528      122.08      182.83    
  243.90      290.12      290.12      273.74      230.08      172.37      115.00      68.354      37.278      21.364    
  15.689      13.297      11.733      10.711      10.105      9.8717      9.8351      9.8717      10.105      10.711    
  11.733      13.297      15.689      21.364      37.278      68.354      115.00      172.37      230.08      273.74    
  243.90      230.08      193.21      144.48      96.197      57.399      32.192      19.829      15.488      13.296    
  11.860      10.919      10.348      10.105      10.056      10.105      10.348      10.919      11.860      13.296    
  15.488      19.829      32.192      57.399      96.197      144.48      193.21      230.08      182.83      172.37    
  144.48      107.73      71.719      43.522      26.097      18.186      15.227      13.353      12.154      11.384    
  10.919      10.711      10.663      10.711      10.919      11.384      12.154      13.353      15.227      18.186    
  26.097      43.522      71.719      107.73      144.48      172.37      122.08      115.00      96.197      71.719    
  48.349      30.952      21.108      17.032      14.965      13.536      12.671      12.154      11.860      11.733    
  11.704      11.733      11.860      12.154      12.671      13.536      14.965      17.032      21.108      30.952    
  48.349      71.719      96.197      115.00      72.528      68.354      57.399      43.522      30.952      22.424    
  18.205      16.254      14.839      13.970      13.536      13.353      13.296      13.297      13.305      13.297    
  13.296      13.353      13.536      13.970      14.839      16.254      18.205      22.424      30.952      43.522    
  57.399      68.354      39.264      37.278      32.192      26.097      21.108      18.205      16.745      15.667    
  15.027      14.839      14.965      15.227      15.488      15.689      15.772      15.689      15.488      15.227    
  14.965      14.839      15.027      15.667      16.745      18.205      21.108      26.097      32.192      37.278    
  21.996      21.364      19.829      18.186      17.032      16.254      15.667      15.445      15.667      16.254    
  17.032      18.186      19.829      21.364      21.996      21.364      19.829      18.186      17.032      16.254    
  15.667      15.445      15.667      16.254      17.032      18.186      19.829      21.364      15.772      15.689    
  15.488      15.227      14.965      14.839      15.027      15.667      16.745      18.205      21.108      26.097    
  32.192      37.278      39.264      37.278      32.192      26.097      21.108      18.205      16.745      15.667    
  15.027      14.839      14.965      15.227      15.488      15.689      13.305      13.297      13.296      13.353    
  13.536      13.970      14.839      16.254      18.205      22.424      30.952      43.522      57.399      68.354    
  72.528      68.354      57.399      43.522      30.952      22.424      18.205      16.254      14.839      13.970    
  13.536      13.353      13.296      13.297      11.704      11.733      11.860      12.154      12.671      13.536    
  14.965      17.032      21.108      30.952      48.349      71.719      96.197      115.00      122.08      115.00    
  96.197      71.719      48.349      30.952      21.108      17.032      14.965      13.536      12.671      12.154    
  11.860      11.733      10.663      10.711      10.919      11.384      12.154      13.353      15.227      18.186    
  26.097      43.522      71.719      107.73      144.48      172.37      182.83      172.37      144.48      107.73    
  71.719      43.522      26.097      18.186      15.227      13.353      12.154      11.384      10.919      10.711    
  10.056      10.105      10.348      10.919      11.860      13.296      15.488      19.829      32.192      57.399    
  96.197      144.48      193.21      230.08      243.90      230.08      193.21      144.48      96.197      57.399    
  32.192      19.829      15.488      13.296      11.860      10.919      10.348      10.105      9.8351      9.8717    
  10.105      10.711      11.733      13.297      15.689      21.364      37.278      68.354      115.00      172.37    
  230.08      273.74      290.12      273.74      230.08      172.37      115.00      68.354      37.278      21.364    
  15.689      13.297      11.733      10.711      10.105      9.8717      9.8066      9.8351      10.056      10.663    
  11.704      13.305      15.772      21.996      39.264      72.528      122.08      182.83      243.90      290.12    
  307.46      290.12      243.90      182.83      122.08      72.528      39.264      21.996      15.772      13.305    
  11.704      10.663      10.056      9.8351      9.8351      9.8717      10.105      10.711      11.733      13.297    
  15.689      21.364      37.278      68.354      115.00      172.37      230.08      273.74      290.12      273.74    
  230.08      172.37      115.00      68.354      37.278      21.364      15.689      13.297      11.733      10.711    
  10.105      9.8717      10.056      10.105      10.348      10.919      11.860      13.296      15.488      19.829    
  32.192      57.399      96.197      144.48      193.21      230.08      243.90      230.08      193.21      144.48    
  96.197      57.399      32.192      19.829      15.488      13.296      11.860      10.919      10.348      10.105    
  10.663      10.711      10.919      11.384      12.154      13.353      15.227      18.186      26.097      43.522    
  71.719      107.73      144.48      172.37      182.83      172.37      144.48      107.73      71.719      43.522    
  26.097      18.186      15.227      13.353      12.154      11.384      10.919      10.711      11.704      11.733    
  11.860      12.154      12.671      13.536      14.965      17.032      21.108      30.952      48.349      71.719    
  96.197      115.00      122.08      115.00      96.197      71.719      48.349      30.952      21.108      17.032    
  14.965      13.536      12.671      12.154      11.860      11.733      13.305      13.297      13.296      13.353    
  13.536      13.970      14.839      16.254      18.205      22.424      30.952      43.522      57.399      68.354    
  72.528      68.354      57.399      43.522      30.952      22.424      18.205      16.254      14.839      13.970    
  13.536      13.353      13.296      13.297      15.772      15.689      15.488      15.227      14.965      14.839    
  15.027      15.667      16.745      18.205      21.108      26.097      32.192      37.278      39.264      37.278    
  32.192      26.097      21.108      18.205      16.745      15.667      15.027      14.839      14.965      15.227    
  15.488      15.689      21.996      21.364      19.829      18.186      17.032      16.254      15.667      15.445    
  15.667      16.254      17.032      18.186      19.829      21.364      21.996      21.364      19.829      18.186    
  17.032      16.254      15.667      15.445      15.667      16.254      17.032      18.186      19.829      21.364    
  39.264      37.278      32.192      26.097      21.108      18.205      16.745      15.667      15.027      14.839    
  14.965      15.227      15.488      15.689      15.772      15.689      15.488      15.227      14.965      14.839    
  15.027      15.667      16.745      18.205      21.108      26.097      32.192      37.278      72.528      68.354    
  57.399      43.522      30.952      22.424      18.205      16.254      14.839      13.970      13.536      13.353    
  13.296      13.297      13.305      13.297      13.296      13.353      13.536      13.970      14.839      16.254    
  18.205      22.424      30.952      43.522      57.399      68.354      122.08      115.00      96.197      71.719    
  48.349      30.952      21.108      17.032      14.965      13.536      12.671      12.154      11.860      11.733    
  11.704      11.733      11.860      12.154      12.671      13.536      14.965      17.032      21.108      30.952    
  48.349      71.719      96.197      115.00      182.83      172.37      144.48      107.73      71.719      43.522    
  26.097      18.186      15.227      13.353      12.154      11.384      10.919      10.711      10.663      10.711    
  10.919      11.384      12.154      13.353      15.227      18.186      26.097      43.522      71.719      107.73    
  144.48      172.37      243.90      230.08      193.21      144.48      96.197      57.399      32.192      19.829    
  15.488      13.296      11.860      10.919      10.348      10.105      10.056      10.105      10.348      10.919    
  11.860      13.296      15.488      19.829      32.192      57.399      96.197      144.48      193.21      230.08    
  290.12      273.74      230.08      172.37      115.00      68.354      37.278      21.364      15.689      13.297    
  11.733      10.711      10.105      9.8717      9.8351      9.8717      10.105      10.711      11.733      13.297    
  15.689      21.364      37.278      68.354      115.00      172.37      230.08      273.74      258.52      243.90    
  204.88      153.30      102.13      60.835      33.773      20.302      15.562      13.306      11.830      10.868    
  10.291      10.056      10.013      10.056      10.291      10.868      11.830      13.306      15.562      20.302    
  33.773      60.835      102.13      153.30      204.88      243.90      243.90      230.08      193.21      144.48    
  96.197      57.399      32.192      19.829      15.488      13.296      11.860      10.919      10.348      10.105    
  10.056      10.105      10.348      10.919      11.860      13.296      15.488      19.829      32.192      57.399    
  96.197      144.48      193.21      230.08      204.88      193.21      162.07      120.98      80.491      48.420    
  28.173      18.691      15.289      13.285      11.980      11.122      10.590      10.348      10.291      10.348    
  10.590      11.122      11.980      13.285      15.289      18.691      28.173      48.420      80.491      120.98    
  162.07      193.21      153.30      144.48      120.98      90.134      60.183      37.172      23.440      17.483    
  15.009      13.320      12.243      11.550      11.122      10.919      10.868      10.919      11.122      11.550    
  12.243      13.320      15.009      17.483      23.440      37.172      60.183      90.134      120.98      144.48    
  102.13      96.197      80.491      60.183      41.062      27.195      19.674      16.584      14.732      13.465    
  12.700      12.243      11.980      11.860      11.830      11.860      11.980      12.243      12.700      13.465    
  14.732      16.584      19.674      27.195      41.062      60.183      80.491      96.197      60.835      57.399    
  48.420      37.172      27.195      20.659      17.523      15.840      14.585      13.831      13.465      13.320    
  13.285      13.296      13.306      13.296      13.285      13.320      13.465      13.831      14.585      15.840    
  17.523      20.659      27.195      37.172      48.420      57.399      33.773      32.192      28.173      23.440    
  19.674      17.523      16.257      15.283      14.727      14.585      14.732      15.009      15.289      15.488    
  15.562      15.488      15.289      15.009      14.732      14.585      14.727      15.283      16.257      17.523    
  19.674      23.440      28.173      32.192      20.302      19.829      18.691      17.483      16.584      15.840    
  15.283      15.076      15.283      15.840      16.584      17.483      18.691      19.829      20.302      19.829    
  18.691      17.483      16.584      15.840      15.283      15.076      15.283      15.840      16.584      17.483    
  18.691      19.829      15.562      15.488      15.289      15.009      14.732      14.585      14.727      15.283    
  16.257      17.523      19.674      23.440      28.173      32.192      33.773      32.192      28.173      23.440    
  19.674      17.523      16.257      15.283      14.727      14.585      14.732      15.009      15.289      15.488    
  13.306      13.296      13.285      13.320      13.465      13.831      14.585      15.840      17.523      20.659    
  27.195      37.172      48.420      57.399      60.835      57.399      48.420      37.172      27.195      20.659    
  17.523      15.840      14.585      13.831      13.465      13.320      13.285      13.296      11.830      11.860    
  11.980      12.243      12.700      13.465      14.732      16.584      19.674      27.195      41.062      60.183    
  80.491      96.197      102.13      96.197      80.491      60.183      41.062      27.195      19.674      16.584    
  14.732      13.465      12.700      12.243      11.980      11.860      10.868      10.919      11.122      11.550    
  12.243      13.320      15.009      17.483      23.440      37.172      60.183      90.134      120.98      144.48    
  153.30      144.48      120.98      90.134      60.183      37.172      23.440      17.483      15.009      13.320    
  12.243      11.550      11.122      10.919      10.291      10.348      10.590      11.122      11.980      13.285    
  15.289      18.691      28.173      48.420      80.491      120.98      162.07      193.21      204.88      193.21    
  162.07      120.98      80.491      48.420      28.173      18.691      15.289      13.285      11.980      11.122    
  10.590      10.348      10.056      10.105      10.348      10.919      11.860      13.296      15.488      19.829    
  32.192      57.399      96.197      144.48      193.21      230.08      243.90      230.08      193.21      144.48    
  96.197      57.399      32.192      19.829      15.488      13.296      11.860      10.919      10.348      10.105    
  10.013      10.056      10.291      10.868      11.830      13.306      15.562      20.302      33.773      60.835    
  102.13      153.30      204.88      243.90      258.52      243.90      204.88      153.30      102.13      60.835    
  33.773      20.302      15.562      13.306      11.830      10.868      10.291      10.056      10.056      10.105    
  10.348      10.919      11.860      13.296      15.488      19.829      32.192      57.399      96.197      144.48    
  193.21      230.08      243.90      230.08      193.21      144.48      96.197      57.399      32.192      19.829    
  15.488      13.296      11.860      10.919      10.348      10.105      10.291      10.348      10.590      11.122    
  11.980      13.285      15.289      18.691      28.173      48.420      80.491      120.98      162.07      193.21    
  204.88      193.21      162.07      120.98      80.491      48.420      28.173      18.691      15.289      13.285    
  11.980      11.122      10.590      10.348      10.868      10.919      11.122      11.550      12.243      13.320    
  15.009      17.483      23.440      37.172      60.183      90.134      120.98      144.48      153.30      144.48    
  120.98      90.134      60.183      37.172      23.440      17.483      15.009      13.320      12.243      11.550    
  11.122      10.919      11.830      11.860      11.980      12.243      12.700      13.465      14.732      16.584    
  19.674      27.195      41.062      60.183      80.491      96.197      102.13      96.197      80.491      60.183    
  41.062      27.195      19.674      16.584      14.732      13.465      12.700      12.243      11.980      11.860    
  13.306      13.296      13.285      13.320      13.465      13.831      14.585      15.840      17.523      20.659    
  27.195      37.172      48.420      57.399      60.835      57.399      48.420      37.172      27.195      20.659    
  17.523      15.840      14.585      13.831      13.465      13.320      13.285      13.296      15.562      15.488    
  15.289      15.009      14.732      14.585      14.727      15.283      16.257      17.523      19.674      23.440    
  28.173      32.192      33.773      32.192      28.173      23.440      19.674      17.523      16.257      15.283    
  14.727      14.585      14.732      15.009      15.289      15.488      20.302      19.829      18.691      17.483    
  16.584      15.840      15.283      15.076      15.283      15.840      16.584      17.483      18.691      19.829    
  20.302      19.829      18.691      17.483      16.584      15.840      15.283      15.076      15.283      15.840    
  16.584      17.483      18.691      19.829      33.773      32.192      28.173      23.440      19.674      17.523    
  16.257      15.283      14.727      14.585      14.732      15.009      15.289      15.488      15.562      15.488    
  15.289      15.009      14.732      14.585      14.727      15.283      16.257      17.523      19.674      23.440    
  28.173      32.192      60.835      57.399      48.420      37.172      27.195      20.659      17.523      15.840    
  14.585      13.831      13.465      13.320      13.285      13.296      13.306      13.296      13.285      13.320    
  13.465      13.831      14.585      15.840      17.523      20.659      27.195      37.172      48.420      57.399    
  102.13      96.197      80.491      60.183      41.062      27.195      19.674      16.584      14.732      13.465    
  12.700      12.243      11.980      11.860      11.830      11.860      11.980      12.243      12.700      13.465    
  14.732      16.584      19.674      27.195      41.062      60.183      80.491      96.197      153.30      144.48    
  120.98      90.134      60.183      37.172      23.440      17.483      15.009      13.320      12.243      11.550    
  11.122      10.919      10.868      10.919      11.122      11.550      12.243      13.320      15.009      17.483    
  23.440      37.172      60.183      90.134      120.98      144.48      204.88      193.21      162.07      120.98    
  80.491      48.420      28.173      18.691      15.289      13.285      11.980      11.122      10.590      10.348    
  10.291      10.348      10.590      11.122      11.980      13.285      15.289      18.691      28.173      48.420    
  80.491      120.98      162.07      193.21      243.90      230.08      193.21      144.48      96.197      57.399    
  32.192      19.829      15.488      13.296      11.860      10.919      10.348      10.105      10.056      10.105    
  10.348      10.919      11.860      13.296      15.488      19.829      32.192      57.399      96.197      144.48    
  193.21      230.08      193.90      182.83      153.30      114.36      76.102      45.976      27.158      18.478    
  15.306      13.369      12.131      11.340      10.868      10.663      10.619      10.663      10.868      11.340    
  12.131      13.369      15.306      18.478      27.158      45.976      76.102      114.36      153.30      182.83    
  182.83      172.37      144.48      107.73      71.719      43.522      26.097      18.186      15.227      13.353    
  12.154      11.384      10.919      10.711      10.663      10.711      10.919      11.384      12.154      13.353    
  15.227      18.186      26.097      43.522      71.719      107.73      144.48      172.37      153.30      144.48    
  120.98      90.134      60.183      37.172      23.440      17.483      15.009      13.320      12.243      11.550    
  11.122      10.919      10.868      10.919      11.122      11.550      12.243      13.320      15.009      17.483    
  23.440      37.172      60.183      90.134      120.98      144.48      114.36      107.73      90.134      67.257    
  45.486      29.394      20.406      16.706      14.712      13.314      12.440      11.888      11.550      11.384    