   4   4   0   0
  0.9710972E+01  0.3386681E-09  0.3386681E-09  0.3386681E-09  0.5000000E-15
  1.000000000000000E-004
  CAR 
 unknown system                          
     40.97550768     -3.76310320  301      7.39917974      1.00000000
     -3.763  0.0000E+00  0.0000E+00
     -3.614  0.0000E+00  0.0000E+00
     -3.465 -0.4978E-34 -0.7423E-35
     -3.316 -0.1087E-28 -0.1621E-29
     -3.167 -0.7735E-24 -0.1154E-24
     -3.017 -0.1792E-19 -0.2673E-20
     -2.868 -0.1311E-15 -0.1955E-16
     -2.719 -0.3166E-12 -0.4724E-13
     -2.570 -0.2471E-09 -0.3689E-10
     -2.421 -0.6219E-07 -0.9311E-08
     -2.272 -0.5081E-05 -0.7670E-06
     -2.123 -0.1369E-03 -0.2118E-04
     -1.974 -0.1193E-02 -0.1991E-03
     -1.824 -0.1632E-02 -0.4425E-03
     -1.675  0.1920E-01  0.2420E-02
     -1.526  0.7954E-01  0.1428E-01
     -1.377  0.1122E+00  0.3101E-01
     -1.228  0.1217E+00  0.4915E-01
     -1.079  0.2234E+00  0.8247E-01
     -0.930  0.2141E+00  0.1144E+00
     -0.781  0.1368E+00  0.1348E+00
     -0.631  0.2670E+00  0.1746E+00
     -0.482  0.3348E+00  0.2246E+00
     -0.333  0.2603E+00  0.2634E+00
     -0.184  0.3216E+00  0.3113E+00
     -0.035  0.3498E+00  0.3635E+00
      0.114  0.2477E+00  0.4004E+00
      0.263  0.4332E+00  0.4650E+00
      0.413  0.4828E+00  0.5370E+00
      0.562  0.5140E+00  0.6137E+00
      0.711  0.4491E+00  0.6807E+00
      0.860  0.2696E+00  0.7209E+00
      1.009  0.5868E+00  0.8084E+00
      1.158  0.7998E+00  0.9277E+00
      1.307  0.6742E+00  0.1028E+01
      1.456  0.5563E+00  0.1111E+01
      1.606  0.5938E+00  0.1200E+01
      1.755  0.1035E+01  0.1354E+01
      1.904  0.1121E+01  0.1521E+01
      2.053  0.9011E+00  0.1656E+01
      2.202  0.1917E+01  0.1941E+01
      2.351  0.3218E+01  0.2421E+01
      2.500  0.3836E+01  0.2993E+01
      2.649  0.3685E+01  0.3543E+01
      2.799  0.3653E+01  0.4088E+01
      2.948  0.4620E+01  0.4777E+01
      3.097  0.4748E+01  0.5485E+01
      3.246  0.5246E+01  0.6267E+01
      3.395  0.6100E+01  0.7177E+01
      3.544  0.5852E+01  0.8050E+01
      3.693  0.5308E+01  0.8841E+01
      3.842  0.5266E+01  0.9626E+01
      3.992  0.5353E+01  0.1042E+02
      4.141  0.4880E+01  0.1115E+02
      4.290  0.4697E+01  0.1185E+02
      4.439  0.4571E+01  0.1253E+02
      4.588  0.4509E+01  0.1321E+02
      4.737  0.4405E+01  0.1386E+02
      4.886  0.5931E+01  0.1475E+02
      5.035  0.6689E+01  0.1575E+02
      5.185  0.5884E+01  0.1662E+02
      5.334  0.5964E+01  0.1751E+02
      5.483  0.7796E+01  0.1868E+02
      5.632  0.8094E+01  0.1988E+02
      5.781  0.7851E+01  0.2105E+02
      5.930  0.8786E+01  0.2236E+02
      6.079  0.8783E+01  0.2367E+02
      6.229  0.6923E+01  0.2471E+02
      6.378  0.5921E+01  0.2559E+02
      6.527  0.5209E+01  0.2637E+02
      6.676  0.5035E+01  0.2712E+02
      6.825  0.5821E+01  0.2798E+02
      6.974  0.6423E+01  0.2894E+02
      7.123  0.7123E+01  0.3000E+02
      7.272  0.7754E+01  0.3116E+02
      7.422  0.6495E+01  0.3213E+02
      7.571  0.5664E+01  0.3297E+02
      7.720  0.6288E+01  0.3391E+02
      7.869  0.5922E+01  0.3480E+02
      8.018  0.5944E+01  0.3568E+02
      8.167  0.7272E+01  0.3677E+02
      8.316  0.8834E+01  0.3808E+02
      8.465  0.1169E+02  0.3983E+02
      8.615  0.9448E+01  0.4123E+02
      8.764  0.4469E+01  0.4190E+02
      8.913  0.2052E+01  0.4221E+02
      9.062  0.1840E+01  0.4248E+02
      9.211  0.1301E+01  0.4268E+02
      9.360  0.8950E+00  0.4281E+02
      9.509  0.8062E+00  0.4293E+02
      9.658  0.9182E+00  0.4307E+02
      9.808  0.1526E+01  0.4329E+02
      9.957  0.1492E+01  0.4352E+02
     10.106  0.6642E+00  0.4362E+02
     10.255  0.4683E+00  0.4369E+02
     10.404  0.1368E+01  0.4389E+02
     10.553  0.1836E+01  0.4416E+02
     10.702  0.8838E+00  0.4429E+02
     10.852  0.6223E+00  0.4439E+02
     11.001  0.9609E+00  0.4453E+02
     11.150  0.9435E+00  0.4467E+02
     11.299  0.1208E+01  0.4485E+02
     11.448  0.1259E+01  0.4504E+02
     11.597  0.6055E+00  0.4513E+02
     11.746  0.8079E+00  0.4525E+02
     11.895  0.1193E+01  0.4543E+02
     12.045  0.1044E+01  0.4558E+02
     12.194  0.9618E+00  0.4573E+02
     12.343  0.8352E+00  0.4585E+02
     12.492  0.8752E+00  0.4598E+02
     12.641  0.9673E+00  0.4613E+02
     12.790  0.6204E+00  0.4622E+02
     12.939  0.3609E+00  0.4627E+02
     13.088  0.7656E+00  0.4639E+02
     13.238  0.1104E+01  0.4655E+02
     13.387  0.1088E+01  0.4671E+02
     13.536  0.8524E+00  0.4684E+02
     13.685  0.5377E+00  0.4692E+02
     13.834  0.3500E+00  0.4697E+02
     13.983  0.6114E+00  0.4706E+02
     14.132  0.8453E+00  0.4719E+02
     14.281  0.4460E+00  0.4726E+02
     14.431  0.2732E+00  0.4730E+02
     14.580  0.6262E+00  0.4739E+02
     14.729  0.6163E+00  0.4748E+02
     14.878  0.5984E+00  0.4757E+02
     15.027  0.6202E+00  0.4767E+02
     15.176  0.3263E+00  0.4771E+02
     15.325  0.2197E+00  0.4775E+02
     15.474  0.1624E+00  0.4777E+02
     15.624  0.2192E+00  0.4780E+02
     15.773  0.4722E+00  0.4787E+02
     15.922  0.2831E+00  0.4792E+02
     16.071  0.1061E+00  0.4793E+02
     16.220  0.1742E+00  0.4796E+02
     16.369  0.9361E+00  0.4810E+02
     16.518  0.1751E+01  0.4836E+02
     16.668  0.1585E+01  0.4860E+02
     16.817  0.1715E+01  0.4885E+02
     16.966  0.1938E+01  0.4914E+02
     17.115  0.1160E+01  0.4931E+02
     17.264  0.7650E+00  0.4943E+02
     17.413  0.1206E+01  0.4961E+02
     17.562  0.1285E+01  0.4980E+02
     17.711  0.9162E+00  0.4993E+02
     17.861  0.8397E+00  0.5006E+02
     18.010  0.1025E+01  0.5021E+02
     18.159  0.1064E+01  0.5037E+02
     18.308  0.9647E+00  0.5052E+02
     18.457  0.9782E+00  0.5066E+02
     18.606  0.1084E+01  0.5082E+02
     18.755  0.8045E+00  0.5094E+02
     18.904  0.8233E+00  0.5107E+02
     19.054  0.8511E+00  0.5119E+02
     19.203  0.6165E+00  0.5128E+02
     19.352  0.7824E+00  0.5140E+02
     19.501  0.9902E+00  0.5155E+02
     19.650  0.1379E+01  0.5175E+02
     19.799  0.1400E+01  0.5196E+02
     19.948  0.8201E+00  0.5209E+02
     20.097  0.4507E+00  0.5215E+02
     20.247  0.1156E+01  0.5233E+02
     20.396  0.2271E+01  0.5266E+02
     20.545  0.1899E+01  0.5295E+02
     20.694  0.8890E+00  0.5308E+02
     20.843  0.6295E+00  0.5317E+02
     20.992  0.1329E+01  0.5337E+02
     21.141  0.2221E+01  0.5370E+02
     21.291  0.1727E+01  0.5396E+02
     21.440  0.1295E+01  0.5415E+02
     21.589  0.1412E+01  0.5436E+02
     21.738  0.1655E+01  0.5461E+02
     21.887  0.1428E+01  0.5482E+02
     22.036  0.1039E+01  0.5498E+02
     22.185  0.1147E+01  0.5515E+02
     22.334  0.1661E+01  0.5540E+02
     22.484  0.1438E+01  0.5561E+02
     22.633  0.1738E+01  0.5587E+02
     22.782  0.2020E+01  0.5617E+02
     22.931  0.2005E+01  0.5647E+02
     23.080  0.1436E+01  0.5669E+02
     23.229  0.9308E+00  0.5682E+02
     23.378  0.1090E+01  0.5699E+02
     23.527  0.1954E+01  0.5728E+02
     23.677  0.2137E+01  0.5760E+02
     23.826  0.1231E+01  0.5778E+02
     23.975  0.1405E+01  0.5799E+02
     24.124  0.1972E+01  0.5828E+02
     24.273  0.2140E+01  0.5860E+02
     24.422  0.1618E+01  0.5885E+02
     24.571  0.1345E+01  0.5905E+02
     24.720  0.1929E+01  0.5933E+02
     24.870  0.2525E+01  0.5971E+02
     25.019  0.1705E+01  0.5996E+02
     25.168  0.7882E+00  0.6008E+02
     25.317  0.1310E+01  0.6028E+02
     25.466  0.2525E+01  0.6065E+02
     25.615  0.2086E+01  0.6096E+02
     25.764  0.1185E+01  0.6114E+02
     25.914  0.1488E+01  0.6136E+02
     26.063  0.1748E+01  0.6162E+02
     26.212  0.1551E+01  0.6186E+02
     26.361  0.2071E+01  0.6216E+02
     26.510  0.2063E+01  0.6247E+02
     26.659  0.1561E+01  0.6271E+02
     26.808  0.1317E+01  0.6290E+02
     26.957  0.1173E+01  0.6308E+02
     27.107  0.9119E+00  0.6321E+02
     27.256  0.1421E+01  0.6342E+02
     27.405  0.2143E+01  0.6374E+02
     27.554  0.1947E+01  0.6403E+02
     27.703  0.1895E+01  0.6432E+02
     27.852  0.1664E+01  0.6456E+02
     28.001  0.9063E+00  0.6470E+02
     28.150  0.1297E+01  0.6489E+02
     28.300  0.2037E+01  0.6520E+02
     28.449  0.1224E+01  0.6538E+02
     28.598  0.9067E+00  0.6552E+02
     28.747  0.1769E+01  0.6578E+02
     28.896  0.2197E+01  0.6611E+02
     29.045  0.1696E+01  0.6636E+02
     29.194  0.1205E+01  0.6654E+02
     29.343  0.1148E+01  0.6671E+02
     29.493  0.6665E+00  0.6681E+02
     29.642  0.1091E+01  0.6697E+02
     29.791  0.1411E+01  0.6718E+02
     29.940  0.1702E+01  0.6744E+02
     30.089  0.2541E+01  0.6782E+02
     30.238  0.1994E+01  0.6811E+02
     30.387  0.1138E+01  0.6828E+02
     30.536  0.1088E+01  0.6845E+02
     30.686  0.1192E+01  0.6862E+02
     30.835  0.1368E+01  0.6883E+02
     30.984  0.1343E+01  0.6903E+02
     31.133  0.1341E+01  0.6923E+02
     31.282  0.9595E+00  0.6937E+02
     31.431  0.9164E+00  0.6951E+02
     31.580  0.1827E+01  0.6978E+02
     31.730  0.2556E+01  0.7016E+02
     31.879  0.1921E+01  0.7045E+02
     32.028  0.1732E+01  0.7071E+02
     32.177  0.1973E+01  0.7100E+02
     32.326  0.1745E+01  0.7126E+02
     32.475  0.1757E+01  0.7152E+02
     32.624  0.1872E+01  0.7180E+02
     32.773  0.1654E+01  0.7205E+02
     32.923  0.1340E+01  0.7225E+02
     33.072  0.1879E+01  0.7253E+02
     33.221  0.2498E+01  0.7290E+02
     33.370  0.2077E+01  0.7321E+02
     33.519  0.2037E+01  0.7351E+02
     33.668  0.1928E+01  0.7380E+02
     33.817  0.1089E+01  0.7396E+02
     33.966  0.1273E+01  0.7415E+02
     34.116  0.1922E+01  0.7444E+02
     34.265  0.2181E+01  0.7477E+02
     34.414  0.1721E+01  0.7502E+02
     34.563  0.1803E+01  0.7529E+02
     34.712  0.2502E+01  0.7566E+02
     34.861  0.2630E+01  0.7606E+02
     35.010  0.2132E+01  0.7637E+02
     35.159  0.1265E+01  0.7656E+02
     35.309  0.9405E+00  0.7670E+02
     35.458  0.1618E+01  0.7694E+02
     35.607  0.1987E+01  0.7724E+02
     35.756  0.1652E+01  0.7749E+02
     35.905  0.1780E+01  0.7775E+02
     36.054  0.1613E+01  0.7799E+02
     36.203  0.1374E+01  0.7820E+02
     36.353  0.1477E+01  0.7842E+02
     36.502  0.1276E+01  0.7861E+02
     36.651  0.1037E+01  0.7876E+02
     36.800  0.8420E+00  0.7889E+02
     36.949  0.7154E+00  0.7900E+02
     37.098  0.5048E+00  0.7907E+02
     37.247  0.4983E+00  0.7915E+02
     37.396  0.1010E+01  0.7930E+02
     37.546  0.1191E+01  0.7947E+02
     37.695  0.1162E+01  0.7965E+02
     37.844  0.9235E+00  0.7978E+02
     37.993  0.5714E+00  0.7987E+02
     38.142  0.2473E+00  0.7991E+02
     38.291  0.8661E-01  0.7992E+02
     38.440  0.9904E-01  0.7993E+02
     38.589  0.1300E+00  0.7995E+02
     38.739  0.5504E-01  0.7996E+02
     38.888  0.8455E-01  0.7997E+02
     39.037  0.1372E+00  0.7999E+02
     39.186  0.4259E-01  0.8000E+02
     39.335 -0.6474E-02  0.8000E+02
     39.484 -0.2053E-02  0.8000E+02
     39.633 -0.1020E-03  0.8000E+02
     39.782 -0.1393E-05  0.8000E+02
     39.932 -0.5772E-08  0.8000E+02
     40.081 -0.7519E-11  0.8000E+02
     40.230 -0.3114E-14  0.8000E+02
     40.379  0.0000E+00  0.8000E+02
     40.528  0.0000E+00  0.8000E+02
     40.677  0.0000E+00  0.8000E+02
     40.826  0.0000E+00  0.8000E+02
     40.976  0.0000E+00  0.8000E+02
