<?xml version="1.0" encoding="ISO-8859-1"?>
<modeling>
 <generator>
  <i name="program" type="string">vasp </i>
  <i name="version" type="string">6.2.0  </i>
  <i name="subversion" type="string">18Jan21 (build Mar 17 2021 09:06:54) complex                          serial </i>
  <i name="platform" type="string">LinuxIFC </i>
  <i name="date" type="string">2021 09 09 </i>
  <i name="time" type="string">09:05:28 </i>
 </generator>
 <incar>
  <i type="string" name="PREC">normal</i>
  <i type="int" name="ICHARG">     1</i>
  <i type="int" name="IBRION">     1</i>
  <i name="EDIFF">      0.00000100</i>
  <i type="int" name="NSW">     0</i>
  <i type="int" name="ISIF">     4</i>
  <i name="ENCUT">    300.00000000</i>
  <i type="int" name="NBANDS">    40</i>
  <i type="int" name="ISMEAR">     1</i>
  <i name="SIGMA">      0.20000000</i>
  <i type="logical" name="LCHARG"> T  </i>
  <i type="int" name="KPAR">     1</i>
  <i type="int" name="NCORE">     1</i>
  <i type="string" name="GGA">PE</i>
 </incar>
 <primitive_cell>
  <structure name="primitive_cell" >
   <crystal>
    <varray name="basis" >
     <v>       1.69334024      -1.69334024       0.00000000 </v>
     <v>       1.69334024       0.00000000       1.69334024 </v>
     <v>       0.00000000      -1.69334024       1.69334024 </v>
    </varray>
    <i name="volume">      9.71097157 </i>
    <varray name="rec_basis" >
     <v>       0.29527439      -0.29527439      -0.29527439 </v>
     <v>       0.29527439       0.29527439       0.29527439 </v>
     <v>      -0.29527439      -0.29527439       0.29527439 </v>
    </varray>
   </crystal>
   <varray name="positions" >
    <v>       0.00000000       0.00000000       0.00000000 </v>
   </varray>
  </structure>
  <varray name="primitive_index" >
   <v type="int" >        1 </v>
  </varray>
 </primitive_cell>
 <kpoints>
  <generation param="Monkhorst-Pack">
   <v type="int" name="divisions">      11       11       11 </v>
   <v name="usershift">      0.00000000       0.00000000       0.00000000 </v>
   <v name="genvec1">      0.09090909       0.00000000       0.00000000 </v>
   <v name="genvec2">      0.00000000       0.09090909       0.00000000 </v>
   <v name="genvec3">      0.00000000       0.00000000       0.09090909 </v>
   <v name="shift">      0.00000000       0.00000000       0.00000000 </v>
  </generation>
  <varray name="kpointlist" >
   <v>       0.00000000       0.00000000       0.00000000 </v>
   <v>       0.09090909       0.00000000       0.00000000 </v>
   <v>       0.18181818       0.00000000       0.00000000 </v>
   <v>       0.27272727       0.00000000       0.00000000 </v>
   <v>       0.36363636       0.00000000       0.00000000 </v>
   <v>       0.45454545       0.00000000       0.00000000 </v>
   <v>       0.09090909       0.09090909       0.00000000 </v>
   <v>       0.18181818       0.09090909       0.00000000 </v>
   <v>       0.27272727       0.09090909       0.00000000 </v>
   <v>       0.36363636       0.09090909       0.00000000 </v>
   <v>       0.45454545       0.09090909       0.00000000 </v>
   <v>       0.18181818       0.18181818       0.00000000 </v>
   <v>       0.27272727       0.18181818       0.00000000 </v>
   <v>       0.36363636       0.18181818       0.00000000 </v>
   <v>       0.45454545       0.18181818       0.00000000 </v>
   <v>       0.27272727       0.27272727       0.00000000 </v>
   <v>       0.36363636       0.27272727       0.00000000 </v>
   <v>       0.45454545       0.27272727       0.00000000 </v>
   <v>       0.36363636       0.36363636       0.00000000 </v>
   <v>       0.45454545       0.36363636       0.00000000 </v>
   <v>       0.45454545       0.45454545       0.00000000 </v>
   <v>       0.09090909       0.09090909       0.09090909 </v>
   <v>       0.18181818       0.09090909       0.09090909 </v>
   <v>       0.27272727       0.09090909       0.09090909 </v>
   <v>       0.36363636       0.09090909       0.09090909 </v>
   <v>       0.45454545       0.09090909       0.09090909 </v>
   <v>       0.18181818       0.18181818       0.09090909 </v>
   <v>       0.27272727       0.18181818       0.09090909 </v>
   <v>       0.36363636       0.18181818       0.09090909 </v>
   <v>       0.45454545       0.18181818       0.09090909 </v>
   <v>       0.27272727       0.27272727       0.09090909 </v>
   <v>       0.36363636       0.27272727       0.09090909 </v>
   <v>       0.45454545       0.27272727       0.09090909 </v>
   <v>       0.36363636       0.36363636       0.09090909 </v>
   <v>       0.45454545       0.36363636       0.09090909 </v>
   <v>       0.45454545       0.45454545       0.09090909 </v>
   <v>       0.18181818       0.18181818       0.18181818 </v>
   <v>       0.27272727       0.18181818       0.18181818 </v>
   <v>       0.36363636       0.18181818       0.18181818 </v>
   <v>       0.45454545       0.18181818       0.18181818 </v>
   <v>       0.27272727       0.27272727       0.18181818 </v>
   <v>       0.36363636       0.27272727       0.18181818 </v>
   <v>       0.45454545       0.27272727       0.18181818 </v>
   <v>       0.36363636       0.36363636       0.18181818 </v>
   <v>       0.45454545       0.36363636       0.18181818 </v>
   <v>       0.45454545       0.45454545       0.18181818 </v>
   <v>       0.27272727       0.27272727       0.27272727 </v>
   <v>       0.36363636       0.27272727       0.27272727 </v>
   <v>       0.45454545       0.27272727       0.27272727 </v>
   <v>       0.36363636       0.36363636       0.27272727 </v>
   <v>       0.45454545       0.36363636       0.27272727 </v>
   <v>       0.45454545       0.45454545       0.27272727 </v>
   <v>       0.36363636       0.36363636       0.36363636 </v>
   <v>       0.45454545       0.36363636       0.36363636 </v>
   <v>       0.45454545       0.45454545       0.36363636 </v>
   <v>       0.45454545       0.45454545       0.45454545 </v>
  </varray>
  <varray name="weights" >
   <v>       0.00075131 </v>
   <v>       0.00450789 </v>
   <v>       0.00450789 </v>
   <v>       0.00450789 </v>
   <v>       0.00450789 </v>
   <v>       0.00450789 </v>
   <v>       0.00901578 </v>
   <v>       0.01803156 </v>
   <v>       0.01803156 </v>
   <v>       0.01803156 </v>
   <v>       0.01803156 </v>
   <v>       0.00901578 </v>
   <v>       0.01803156 </v>
   <v>       0.01803156 </v>
   <v>       0.01803156 </v>
   <v>       0.00901578 </v>
   <v>       0.01803156 </v>
   <v>       0.01803156 </v>
   <v>       0.00901578 </v>
   <v>       0.01803156 </v>
   <v>       0.00901578 </v>
   <v>       0.00601052 </v>
   <v>       0.01803156 </v>
   <v>       0.01803156 </v>
   <v>       0.01803156 </v>
   <v>       0.01803156 </v>
   <v>       0.01803156 </v>
   <v>       0.03606311 </v>
   <v>       0.03606311 </v>
   <v>       0.03606311 </v>
   <v>       0.01803156 </v>
   <v>       0.03606311 </v>
   <v>       0.03606311 </v>
   <v>       0.01803156 </v>
   <v>       0.03606311 </v>
   <v>       0.01803156 </v>
   <v>       0.00601052 </v>
   <v>       0.01803156 </v>
   <v>       0.01803156 </v>
   <v>       0.01803156 </v>
   <v>       0.01803156 </v>
   <v>       0.03606311 </v>
   <v>       0.03606311 </v>
   <v>       0.01803156 </v>
   <v>       0.03606311 </v>
   <v>       0.01803156 </v>
   <v>       0.00601052 </v>
   <v>       0.01803156 </v>
   <v>       0.01803156 </v>
   <v>       0.01803156 </v>
   <v>       0.03606311 </v>
   <v>       0.01803156 </v>
   <v>       0.00601052 </v>
   <v>       0.01803156 </v>
   <v>       0.01803156 </v>
   <v>       0.00601052 </v>
  </varray>
 </kpoints>
 <parameters>
  <separator name="general" >
   <i type="string" name="SYSTEM">unknown system</i>
   <i type="logical" name="LCOMPAT"> F  </i>
  </separator>
  <separator name="electronic" >
   <i type="string" name="PREC">normal</i>
   <i name="ENMAX">    300.00000000</i>
   <i name="ENAUG">    511.36800000</i>
   <i name="EDIFF">      0.00000100</i>
   <i type="int" name="IALGO">    38</i>
   <i type="int" name="IWAVPR">     0</i>
   <i type="int" name="NBANDS">    40</i>
   <i type="int" name="NBANDSLOW">    -1</i>
   <i type="int" name="NBANDSHIGH">    -1</i>
   <i name="NELECT">     32.00000000</i>
   <i type="int" name="TURBO">     0</i>
   <i type="int" name="IRESTART">     0</i>
   <i type="int" name="NREBOOT">     0</i>
   <i type="int" name="NMIN">     0</i>
   <i name="EREF">      0.00000000</i>
   <separator name="electronic smearing" >
    <i type="int" name="ISMEAR">     1</i>
    <i name="SIGMA">      0.20000000</i>
    <i name="KSPACING">      0.50000000</i>
    <i type="logical" name="KGAMMA"> T  </i>
    <i type="logical" name="KBLOWUP"> T  </i>
   </separator>
   <separator name="electronic projectors" >
    <i type="logical" name="LREAL"> F  </i>
    <v name="ROPT">      0.00000000</v>
    <i type="int" name="LMAXPAW">  -100</i>
    <i type="int" name="LMAXMIX">     2</i>
    <i type="logical" name="NLSPLINE"> F  </i>
   </separator>
   <separator name="electronic startup" >
    <i type="int" name="ISTART">     0</i>
    <i type="int" name="ICHARG">     1</i>
    <i type="int" name="INIWAV">     1</i>
   </separator>
   <separator name="electronic spin" >
    <i type="int" name="ISPIN">     1</i>
    <i type="logical" name="LNONCOLLINEAR"> F  </i>
    <v name="MAGMOM">      1.00000000      1.00000000      1.00000000      1.00000000</v>
    <i name="NUPDOWN">     -1.00000000</i>
    <i type="logical" name="LSORBIT"> F  </i>
    <v name="SAXIS">      0.00000000      0.00000000      1.00000000</v>
    <i type="logical" name="LSPIRAL"> F  </i>
    <v name="QSPIRAL">      0.00000000      0.00000000      0.00000000</v>
    <i type="logical" name="LZEROZ"> F  </i>
   </separator>
   <separator name="electronic exchange-correlation" >
    <i type="logical" name="LASPH"> F  </i>
    <i type="logical" name="LMETAGGA"> F  </i>
   </separator>
   <separator name="electronic convergence" >
    <i type="int" name="NELM">    60</i>
    <i type="int" name="NELMDL">    -5</i>
    <i type="int" name="NELMIN">     2</i>
    <i name="ENINI">    300.00000000</i>
    <separator name="electronic convergence detail" >
     <i type="logical" name="LDIAG"> T  </i>
     <i type="logical" name="LSUBROT"> F  </i>
     <i name="WEIMIN">      0.00000000</i>
     <i name="EBREAK">      0.00000001</i>
     <i name="DEPER">      0.30000000</i>
     <i type="int" name="NRMM">     4</i>
     <i name="TIME">      0.40000000</i>
    </separator>
   </separator>
   <separator name="electronic mixer" >
    <i name="AMIX">      0.40000000</i>
    <i name="BMIX">      1.00000000</i>
    <i name="AMIN">      0.10000000</i>
    <i name="AMIX_MAG">      1.60000000</i>
    <i name="BMIX_MAG">      1.00000000</i>
    <separator name="electronic mixer details" >
     <i type="int" name="IMIX">     4</i>
     <i type="logical" name="MIXFIRST"> F  </i>
     <i type="int" name="MAXMIX">   -45</i>
     <i name="WC">    100.00000000</i>
     <i type="int" name="INIMIX">     1</i>
     <i type="int" name="MIXPRE">     1</i>
     <i type="int" name="MREMOVE">     5</i>
    </separator>
   </separator>
   <separator name="electronic dipolcorrection" >
    <i type="logical" name="LDIPOL"> F  </i>
    <i type="logical" name="LMONO"> F  </i>
    <i type="int" name="IDIPOL">     0</i>
    <i name="EPSILON">      1.00000000</i>
    <v name="DIPOL">   -100.00000000   -100.00000000   -100.00000000</v>
    <i name="EFIELD">      0.00000000</i>
   </separator>
  </separator>
  <separator name="grids" >
   <i type="int" name="NGX">    14</i>
   <i type="int" name="NGY">    14</i>
   <i type="int" name="NGZ">    14</i>
   <i type="int" name="NGXF">    28</i>
   <i type="int" name="NGYF">    28</i>
   <i type="int" name="NGZF">    28</i>
   <i type="logical" name="ADDGRID"> F  </i>
  </separator>
  <separator name="ionic" >
   <i type="int" name="NSW">     0</i>
   <i type="int" name="IBRION">    -1</i>
   <i type="int" name="MDALGO">     0</i>
   <i type="int" name="ISIF">     4</i>
   <i name="PSTRESS">      0.00000000</i>
   <i name="EDIFFG">      0.00001000</i>
   <i type="int" name="NFREE">     0</i>
   <i name="POTIM">      0.50000000</i>
   <i name="SMASS">     -3.00000000</i>
   <i name="SCALEE">      1.00000000</i>
  </separator>
  <separator name="ionic md" >
   <i name="TEBEG">      0.00010000</i>
   <i name="TEEND">      0.00010000</i>
   <i type="int" name="NBLOCK">     1</i>
   <i type="int" name="KBLOCK">     1</i>
   <i type="int" name="NPACO">   256</i>
   <i name="APACO">     16.00000000</i>
  </separator>
  <separator name="symmetry" >
   <i type="int" name="ISYM">     2</i>
   <i name="SYMPREC">      0.00001000</i>
  </separator>
  <separator name="dos" >
   <i type="int" name="LORBIT">     0</i>
   <v name="RWIGS">     -1.00000000</v>
   <i type="int" name="NEDOS">   301</i>
   <i name="EMIN">     10.00000000</i>
   <i name="EMAX">    -10.00000000</i>
   <i name="EFERMI">      0.00000000</i>
  </separator>
  <separator name="writing" >
   <i type="int" name="NWRITE">     2</i>
   <i type="logical" name="LWAVE"> T  </i>
   <i type="logical" name="LDOWNSAMPLE"> F  </i>
   <i type="logical" name="LCHARG"> T  </i>
   <i type="logical" name="LPARD"> F  </i>
   <i type="logical" name="LVTOT"> F  </i>
   <i type="logical" name="LVHAR"> F  </i>
   <i type="logical" name="LELF"> F  </i>
   <i type="logical" name="LOPTICS"> F  </i>
   <v name="STM">      0.00000000      0.00000000      0.00000000      0.00000000      0.00000000      0.00000000      0.00000000</v>
  </separator>
  <separator name="performance" >
   <i type="int" name="NPAR">     1</i>
   <i type="int" name="NSIM">     4</i>
   <i type="int" name="NBLK">    -1</i>
   <i type="logical" name="LPLANE"> T  </i>
   <i type="logical" name="LSCALAPACK"> F  </i>
   <i type="logical" name="LSCAAWARE"> F  </i>
   <i type="logical" name="LSCALU"> F  </i>
   <i type="logical" name="LASYNC"> F  </i>
   <i type="logical" name="LORBITALREAL"> F  </i>
  </separator>
  <separator name="miscellaneous" >
   <i type="int" name="IDIOT">     3</i>
   <i type="int" name="PHON_NSTRUCT">    -1</i>
   <i type="logical" name="LMUSIC"> F  </i>
   <v name="POMASS">     55.84700000</v>
   <v name="DARWINR">      0.00000000</v>
   <v name="DARWINV">      1.00000000</v>
   <i type="logical" name="LCORR"> T  </i>
  </separator>
  <i type="logical" name="GGA_COMPAT"> T  </i>
  <i type="logical" name="LBERRY"> F  </i>
  <i type="int" name="ICORELEVEL">     0</i>
  <i type="logical" name="LDAU"> F  </i>
  <i type="int" name="I_CONSTRAINED_M">     0</i>
  <separator name="electronic exchange-correlation" >
   <i type="string" name="GGA">PE</i>
   <i type="int" name="VOSKOWN">     0</i>
   <i type="logical" name="LHFCALC"> F  </i>
   <i type="string" name="PRECFOCK"></i>
   <i type="logical" name="LSYMGRAD"> F  </i>
   <i type="logical" name="LHFONE"> F  </i>
   <i type="logical" name="LRHFCALC"> F  </i>
   <i type="logical" name="LTHOMAS"> F  </i>
   <i type="logical" name="LMODELHF"> F  </i>
   <i type="logical" name="LFOCKACE"> F  </i>
   <i name="ENCUT4O">     -1.00000000</i>
   <i type="int" name="EXXOEP">     0</i>
   <i type="int" name="FOURORBIT">     0</i>
   <i name="AEXX">      0.00000000</i>
   <i name="HFALPHA">      0.00000000</i>
   <i name="MCALPHA">      0.00000000</i>
   <i name="ALDAX">      1.00000000</i>
   <i name="AGGAX">      1.00000000</i>
   <i name="ALDAC">      1.00000000</i>
   <i name="AGGAC">      1.00000000</i>
   <i type="int" name="NKREDX">     1</i>
   <i type="int" name="NKREDY">     1</i>
   <i type="int" name="NKREDZ">     1</i>
   <i type="logical" name="SHIFTRED"> F  </i>
   <i type="logical" name="ODDONLY"> F  </i>
   <i type="logical" name="EVENONLY"> F  </i>
   <i type="int" name="LMAXFOCK">     0</i>
   <i type="int" name="NMAXFOCKAE">     0</i>
   <i type="logical" name="LFOCKAEDFT"> F  </i>
   <i name="HFSCREEN">      0.00000000</i>
   <i name="HFSCREENC">      0.00000000</i>
   <i type="int" name="NBANDSGWLOW">     0</i>
  </separator>
  <separator name="vdW DFT" >
   <i type="logical" name="LUSE_VDW"> F  </i>
   <i name="Zab_VDW">     -0.84910000</i>
   <i name="PARAM1">      0.12340000</i>
   <i name="PARAM2">      1.00000000</i>
   <i name="PARAM3">      0.00000000</i>
  </separator>
  <separator name="model GW" >
   <i type="int" name="MODEL_GW">     0</i>
   <i name="MODEL_EPS0">      5.82658294</i>
   <i name="MODEL_ALPHA">      1.00000000</i>
  </separator>
  <separator name="linear response parameters" >
   <i type="logical" name="LEPSILON"> F  </i>
   <i type="logical" name="LRPA"> F  </i>
   <i type="logical" name="LNABLA"> F  </i>
   <i type="logical" name="LVEL"> F  </i>
   <i type="int" name="KINTER">     0</i>
   <i name="CSHIFT">      0.10000000</i>
   <i name="OMEGAMAX">     -1.00000000</i>
   <i name="DEG_THRESHOLD">      0.00200000</i>
   <i name="RTIME">     -0.10000000</i>
   <i name="WPLASMAI">      0.00000000</i>
   <v name="DFIELD">      0.00000000      0.00000000      0.00000000</v>
   <v name="WPLASMA">      0.00000000      0.00000000      0.00000000      0.00000000      0.00000000      0.00000000      0.00000000      0.00000000      0.00000000</v>
  </separator>
  <separator name="orbital magnetization" >
   <i type="logical" name="NUCIND"> F  </i>
   <v name="MAGPOS">      0.00000000      0.00000000      0.00000000</v>
   <i type="logical" name="LNICSALL"> T  </i>
   <i type="logical" name="ORBITALMAG"> F  </i>
   <i type="logical" name="LMAGBLOCH"> F  </i>
   <i type="logical" name="LCHIMAG"> F  </i>
   <i type="logical" name="LGAUGE"> T  </i>
   <i type="int" name="MAGATOM">     0</i>
   <v name="MAGDIPOL">      0.00000000      0.00000000      0.00000000</v>
   <v name="AVECCONST">      0.00000000      0.00000000      0.00000000</v>
  </separator>
  <separator name="response functions" >
   <i type="logical" name="LFINITE_TEMPERATURE"> F  </i>
   <i type="logical" name="LADDER"> F  </i>
   <i type="logical" name="LRPAFORCE"> F  </i>
   <i type="logical" name="LFXC"> F  </i>
   <i type="logical" name="LHARTREE"> T  </i>
   <i type="int" name="IBSE">     0</i>
   <v type="int" name="KPOINT">    -1     0     0     0</v>
   <i type="logical" name="LTCTC"> F  </i>
   <i type="logical" name="LTCTE"> F  </i>
   <i type="logical" name="LTETE"> F  </i>
   <i type="logical" name="LTRIPLET"> F  </i>
   <i type="logical" name="LFXCEPS"> F  </i>
   <i type="logical" name="LFXHEG"> F  </i>
   <i type="int" name="NATURALO">     2</i>
   <i type="logical" name="LHOLEGF"> F  </i>
   <i type="logical" name="L2ORDER"> F  </i>
   <i type="logical" name="LDMP1"> F  </i>
   <i type="logical" name="LMP2LT"> F  </i>
   <i type="logical" name="LSMP2LT"> F  </i>
   <i type="logical" name="LGWLF"> F  </i>
   <i name="ENCUTGW">     -2.00000000</i>
   <i name="ENCUTGWSOFT">     -2.00000000</i>
   <i name="ENCUTLF">     -1.00000000</i>
   <i type="logical" name="LESF_SPLINES"> F  </i>
   <i type="int" name="LMAXMP2">    -1</i>
   <i name="SCISSOR">      0.00000000</i>
   <i type="int" name="NOMEGA">     0</i>
   <i type="int" name="NOMEGAR">     0</i>
   <i type="int" name="NBANDSGW">    -1</i>
   <i type="int" name="NBANDSO">    -1</i>
   <i type="int" name="NBANDSV">    -1</i>
   <i type="int" name="NELM">     1</i>
   <i type="int" name="NELMHF">     1</i>
   <i type="int" name="DIM">     3</i>
   <i type="int" name="IESPILON">     4</i>
   <i type="int" name="ANTIRES">     0</i>
   <i name="OMEGAMAX">    -30.00000000</i>
   <i name="OMEGAMIN">    -30.00000000</i>
   <i name="OMEGATL">   -200.00000000</i>
   <i type="int" name="OMEGAGRID">     0</i>
   <i name="CSHIFT">     -0.10000000</i>
   <i type="logical" name="LSELFENERGY"> F  </i>
   <i type="logical" name="LSPECTRAL"> F  </i>
   <i type="logical" name="LSPECTRALGW"> F  </i>
   <i type="logical" name="LSINGLES"> F  </i>
   <i type="logical" name="LFERMIGW"> F  </i>
   <i type="logical" name="ODDONLYGW"> F  </i>
   <i type="logical" name="EVENONLYGW"> F  </i>
   <i type="int" name="NKREDLFX">     1</i>
   <i type="int" name="NKREDLFY">     1</i>
   <i type="int" name="NKREDLFZ">     1</i>
   <i type="int" name="MAXMEM">  2800</i>
   <i type="int" name="TELESCOPE">     0</i>
   <i type="int" name="NTAUPAR">    -1</i>
   <i type="int" name="NOMEGAPAR">    -1</i>
   <i name="DAMP_NEWTON">      0.80000001</i>
   <i name="LAMBDA">      1.00000000</i>
  </separator>
  <separator name="External order field" >
   <i name="OFIELD_KAPPA">      0.00000000</i>
   <v name="OFIELD_K">      0.00000000      0.00000000      0.00000000</v>
   <i name="OFIELD_Q6_NEAR">      0.00000000</i>
   <i name="OFIELD_Q6_FAR">      0.00000000</i>
   <i name="OFIELD_A">      0.00000000</i>
  </separator>
 </parameters>
 <atominfo>
  <atoms>       4 </atoms>
  <types>       1 </types>
  <array name="atoms" >
   <dimension dim="1">ion</dimension>
   <field type="string">element</field>
   <field type="int">atomtype</field>
   <set>
    <rc><c>Fe</c><c>   1</c></rc>
    <rc><c>Fe</c><c>   1</c></rc>
    <rc><c>Fe</c><c>   1</c></rc>
    <rc><c>Fe</c><c>   1</c></rc>
   </set>
  </array>
  <array name="atomtypes" >
   <dimension dim="1">type</dimension>
   <field type="int">atomspertype</field>
   <field type="string">element</field>
   <field>mass</field>
   <field>valence</field>
   <field type="string">pseudopotential</field>
   <set>
    <rc><c>   4</c><c>Fe</c><c>     55.84700000</c><c>      8.00000000</c><c>  PAW_PBE Fe 06Sep2000                  </c></rc>
   </set>
  </array>
 </atominfo>
 <structure name="initialpos" >
  <crystal>
   <varray name="basis" >
    <v>       3.38668048       0.00000000       0.00000000 </v>
    <v>       0.00000000       3.38668048       0.00000000 </v>
    <v>       0.00000000       0.00000000       3.38668048 </v>
   </varray>
   <i name="volume">     38.84388627 </i>
   <varray name="rec_basis" >
    <v>       0.29527439       0.00000000       0.00000000 </v>
    <v>       0.00000000       0.29527439       0.00000000 </v>
    <v>       0.00000000       0.00000000       0.29527439 </v>
   </varray>
  </crystal>
  <varray name="positions" >
   <v>       0.00000000       0.00000000       0.00000000 </v>
   <v>       0.50000000       0.50000000       0.00000000 </v>
   <v>       0.50000000       0.00000000       0.50000000 </v>
   <v>       0.00000000       0.50000000       0.50000000 </v>
  </varray>
 </structure>
 <calculation>
  <scstep>
   <time name="dav">    0.71    0.73</time>
   <time name="total">    0.73    0.75</time>
   <energy>
    <i name="alphaZ">    284.68325965 </i>
    <i name="ewald">  -2495.27317690 </i>
    <i name="hartreedc">   -399.30945136 </i>
    <i name="XCdc">     17.59148042 </i>
    <i name="pawpsdc">   2219.38341365 </i>
    <i name="pawaedc">  -2250.19294531 </i>
    <i name="eentropy">     -0.00468021 </i>
    <i name="bandstr">    408.59324844 </i>
    <i name="atom">   2377.15350596 </i>
    <i name="e_fr_energy">    162.62465436 </i>
    <i name="e_wo_entrp">    162.62933457 </i>
    <i name="e_0_energy">    162.62621443 </i>
   </energy>
  </scstep>
  <scstep>
   <time name="dav">    0.69    0.70</time>
   <time name="total">    0.70    0.70</time>
   <energy>
    <i name="e_fr_energy">    -25.13508965 </i>
    <i name="e_wo_entrp">    -25.12997056 </i>
    <i name="e_0_energy">    -25.13338329 </i>
   </energy>
  </scstep>
  <scstep>
   <time name="dav">    0.70    0.70</time>
   <time name="total">    0.70    0.70</time>
   <energy>
    <i name="e_fr_energy">    -38.07653098 </i>
    <i name="e_wo_entrp">    -38.08313460 </i>
    <i name="e_0_energy">    -38.07873218 </i>
   </energy>
  </scstep>
  <scstep>
   <time name="dav">    0.67    0.67</time>
   <time name="total">    0.67    0.67</time>
   <energy>
    <i name="e_fr_energy">    -38.24301476 </i>
    <i name="e_wo_entrp">    -38.24996203 </i>
    <i name="e_0_energy">    -38.24533052 </i>
   </energy>
  </scstep>
  <scstep>
   <time name="dav">    0.68    0.68</time>
   <time name="total">    0.72    0.72</time>
   <energy>
    <i name="e_fr_energy">    -38.24442534 </i>
    <i name="e_wo_entrp">    -38.25137317 </i>
    <i name="e_0_energy">    -38.24674128 </i>
   </energy>
  </scstep>
  <scstep>
   <time name="dav">    0.69    0.69</time>
   <time name="total">    0.74    0.74</time>
   <energy>
    <i name="e_fr_energy">    -32.57784451 </i>
    <i name="e_wo_entrp">    -32.58362856 </i>
    <i name="e_0_energy">    -32.57977253 </i>
   </energy>
  </scstep>
  <scstep>
   <time name="dav">    0.72    0.72</time>
   <time name="total">    0.77    0.77</time>
   <energy>
    <i name="e_fr_energy">    -32.31943356 </i>
    <i name="e_wo_entrp">    -32.32774456 </i>
    <i name="e_0_energy">    -32.32220390 </i>
   </energy>
  </scstep>
  <scstep>
   <time name="dav">    0.79    0.79</time>
   <time name="total">    0.84    0.84</time>
   <energy>
    <i name="e_fr_energy">    -32.25848677 </i>
    <i name="e_wo_entrp">    -32.26656535 </i>
    <i name="e_0_energy">    -32.26117963 </i>
   </energy>
  </scstep>
  <scstep>
   <time name="dav">    0.72    0.72</time>
   <time name="total">    0.77    0.77</time>
   <energy>
    <i name="e_fr_energy">    -32.23905166 </i>
    <i name="e_wo_entrp">    -32.24682008 </i>
    <i name="e_0_energy">    -32.24164113 </i>
   </energy>
  </scstep>
  <scstep>
   <time name="dav">    0.68    0.68</time>
   <time name="total">    0.73    0.73</time>
   <energy>
    <i name="e_fr_energy">    -32.23898718 </i>
    <i name="e_wo_entrp">    -32.24675655 </i>
    <i name="e_0_energy">    -32.24157697 </i>
   </energy>
  </scstep>
  <scstep>
   <time name="dav">    0.73    0.73</time>
   <time name="total">    0.77    0.78</time>
   <energy>
    <i name="e_fr_energy">    -32.23899062 </i>
    <i name="e_wo_entrp">    -32.24675939 </i>
    <i name="e_0_energy">    -32.24158021 </i>
   </energy>
  </scstep>
  <scstep>
   <time name="dav">    0.66    0.66</time>
   <time name="total">    0.71    0.71</time>
   <energy>
    <i name="e_fr_energy">    -32.23899394 </i>
    <i name="e_wo_entrp">    -32.24675890 </i>
    <i name="e_0_energy">    -32.24158226 </i>
   </energy>
  </scstep>
  <scstep>
   <time name="dav">    0.45    0.45</time>
   <time name="total">    0.46    0.46</time>
   <energy>
    <i name="alphaZ">    284.68325965 </i>
    <i name="ewald">  -2495.27317690 </i>
    <i name="hartreedc">   -330.92377892 </i>
    <i name="XCdc">     14.39555951 </i>
    <i name="pawpsdc">   3061.01423693 </i>
    <i name="pawaedc">  -3097.09210195 </i>
    <i name="eentropy">      0.00776473 </i>
    <i name="bandstr">    153.79573645 </i>
    <i name="atom">   2377.15350596 </i>
    <i name="e_fr_energy">    -32.23899453 </i>
    <i name="e_wo_entrp">    -32.24675926 </i>
    <i name="e_0_energy">    -32.24158277 </i>
   </energy>
  </scstep>
  <structure>
   <crystal>
    <varray name="basis" >
     <v>       3.38668048       0.00000000       0.00000000 </v>
     <v>       0.00000000       3.38668048       0.00000000 </v>
     <v>       0.00000000       0.00000000       3.38668048 </v>
    </varray>
    <i name="volume">     38.84388627 </i>
    <varray name="rec_basis" >
     <v>       0.29527439       0.00000000       0.00000000 </v>
     <v>       0.00000000       0.29527439       0.00000000 </v>
     <v>       0.00000000       0.00000000       0.29527439 </v>
    </varray>
   </crystal>
   <varray name="positions" >
    <v>       0.00000000       0.00000000       0.00000000 </v>
    <v>       0.50000000       0.50000000       0.00000000 </v>
    <v>       0.50000000       0.00000000       0.50000000 </v>
    <v>       0.00000000       0.50000000       0.50000000 </v>
   </varray>
  </structure>
  <varray name="forces" >
   <v>      -0.00000000       0.00000000      -0.00000000 </v>
   <v>       0.00000000      -0.00000000       0.00000000 </v>
   <v>      -0.00000000       0.00000000       0.00000000 </v>
   <v>       0.00000000      -0.00000000      -0.00000000 </v>
  </varray>
  <varray name="stress" >
   <v>     163.73580777      -0.00000000       0.00000000 </v>
   <v>      -0.00000000     163.73580777       0.00000000 </v>
   <v>      -0.00000000      -0.00000000     163.73580777 </v>
  </varray>
  <energy>
   <i name="e_fr_energy">    -32.23899453 </i>
   <i name="e_wo_entrp">    -32.24675926 </i>
   <i name="e_0_energy">    -32.24158277 </i>
  </energy>
  <time name="totalsc">    9.89    9.91</time>
  <eigenvalues>
   <array>
    <dimension dim="1">band</dimension>
    <dimension dim="2">kpoint</dimension>
    <dimension dim="3">spin</dimension>
    <field>eigene</field>
    <field>occ</field>
    <set>
     <set comment="spin 1">
      <set comment="kpoint 1">
       <r>   -1.7295    1.0000 </r>
       <r>    2.0966    1.0000 </r>
       <r>    2.0966    1.0000 </r>
       <r>    2.0966    1.0000 </r>
       <r>    2.8838    1.0000 </r>
       <r>    2.8838    1.0000 </r>
       <r>    2.8838    1.0000 </r>
       <r>    5.6495    1.0000 </r>
       <r>    5.6495    1.0000 </r>
       <r>    5.6495    1.0000 </r>
       <r>    7.3335    0.7620 </r>
       <r>    7.3335    0.7620 </r>
       <r>    8.4542   -0.0000 </r>
       <r>    8.4542   -0.0000 </r>
       <r>    8.4542   -0.0000 </r>
       <r>    8.7806   -0.0000 </r>
       <r>    8.7806   -0.0000 </r>
       <r>    8.7806   -0.0000 </r>
       <r>    8.7806   -0.0000 </r>
       <r>    8.7806   -0.0000 </r>
       <r>    8.7806   -0.0000 </r>
       <r>   10.8246   -0.0000 </r>
       <r>   10.8246   -0.0000 </r>
       <r>   10.8246   -0.0000 </r>
       <r>   19.7592    0.0000 </r>
       <r>   19.7592    0.0000 </r>
       <r>   19.7592    0.0000 </r>
       <r>   24.2601    0.0000 </r>
       <r>   24.2601    0.0000 </r>
       <r>   24.2601    0.0000 </r>
       <r>   24.2601    0.0000 </r>
       <r>   24.2601    0.0000 </r>
       <r>   24.2601    0.0000 </r>
       <r>   29.8917    0.0000 </r>
       <r>   29.8917    0.0000 </r>
       <r>   29.8917    0.0000 </r>
       <r>   31.1774    0.0000 </r>
       <r>   35.2229    0.0000 </r>
       <r>   35.2229    0.0000 </r>
       <r>   35.2229    0.0000 </r>
      </set>
      <set comment="kpoint 2">
       <r>   -1.6065    1.0000 </r>
       <r>    2.1308    1.0000 </r>
       <r>    2.1742    1.0000 </r>
       <r>    2.1742    1.0000 </r>
       <r>    2.9325    1.0000 </r>
       <r>    2.9420    1.0000 </r>
       <r>    2.9420    1.0000 </r>
       <r>    5.5845    1.0000 </r>
       <r>    5.6961    1.0000 </r>
       <r>    5.6961    1.0000 </r>
       <r>    7.2729    0.9336 </r>
       <r>    7.3552    0.6813 </r>
       <r>    8.2802   -0.0000 </r>
       <r>    8.2802   -0.0000 </r>
       <r>    8.3748   -0.0000 </r>
       <r>    8.3748   -0.0000 </r>
       <r>    8.4303   -0.0000 </r>
       <r>    8.6898   -0.0000 </r>
       <r>    8.6898   -0.0000 </r>
       <r>    8.7807   -0.0000 </r>
       <r>    8.7807   -0.0000 </r>
       <r>   10.3354   -0.0000 </r>
       <r>   11.4061   -0.0000 </r>
       <r>   11.4061   -0.0000 </r>
       <r>   19.7518    0.0000 </r>
       <r>   19.7518    0.0000 </r>
       <r>   20.3877    0.0000 </r>
       <r>   23.7296    0.0000 </r>
       <r>   23.7296    0.0000 </r>
       <r>   23.9929    0.0000 </r>
       <r>   23.9929    0.0000 </r>
       <r>   24.4677    0.0000 </r>
       <r>   24.4677    0.0000 </r>
       <r>   29.9012    0.0000 </r>
       <r>   30.5216    0.0000 </r>
       <r>   30.5216    0.0000 </r>
       <r>   31.1117    0.0000 </r>
       <r>   35.2710    0.0000 </r>
       <r>   35.7855    0.0000 </r>
       <r>   35.7855    0.0000 </r>
      </set>
      <set comment="kpoint 3">
       <r>   -1.2442    1.0000 </r>
       <r>    2.2111    1.0000 </r>
       <r>    2.3945    1.0000 </r>
       <r>    2.3945    1.0000 </r>
       <r>    3.0762    1.0000 </r>
       <r>    3.1163    1.0000 </r>
       <r>    3.1163    1.0000 </r>
       <r>    5.3971    1.0000 </r>
       <r>    5.8346    1.0000 </r>
       <r>    5.8346    1.0000 </r>
       <r>    7.0997    1.0278 </r>
       <r>    7.3954    0.5158 </r>
       <r>    7.3954    0.5158 </r>
       <r>    7.4187    0.4179 </r>
       <r>    8.1478   -0.0000 </r>
       <r>    8.1478   -0.0000 </r>
       <r>    8.3612   -0.0000 </r>
       <r>    8.4355   -0.0000 </r>
       <r>    8.4355   -0.0000 </r>
       <r>    8.7814   -0.0000 </r>
       <r>    8.7814   -0.0000 </r>
       <r>    9.2024   -0.0000 </r>
       <r>   12.5340   -0.0000 </r>
       <r>   12.5340   -0.0000 </r>
       <r>   19.7320    0.0000 </r>
       <r>   19.7320    0.0000 </r>
       <r>   21.9446    0.0000 </r>
       <r>   22.5354    0.0000 </r>
       <r>   22.5354    0.0000 </r>
       <r>   23.3658    0.0000 </r>
       <r>   23.3658    0.0000 </r>
       <r>   25.0701    0.0000 </r>
       <r>   25.0701    0.0000 </r>
       <r>   29.9305    0.0000 </r>
       <r>   30.9430    0.0000 </r>
       <r>   32.0333    0.0000 </r>
       <r>   32.0333    0.0000 </r>
       <r>   34.7516    0.0000 </r>
       <r>   35.1463    0.0000 </r>
       <r>   35.1465    0.0000 </r>
      </set>
      <set comment="kpoint 4">
       <r>   -0.6647    1.0000 </r>
       <r>    2.2610    1.0000 </r>
       <r>    2.7170    1.0000 </r>
       <r>    2.7170    1.0000 </r>
       <r>    3.3071    1.0000 </r>
       <r>    3.4062    1.0000 </r>
       <r>    3.4062    1.0000 </r>
       <r>    5.1096    1.0000 </r>
       <r>    6.0613    1.0000 </r>
       <r>    6.0613    1.0000 </r>
       <r>    6.5043    1.0000 </r>
       <r>    6.5043    1.0000 </r>
       <r>    6.8433    1.0003 </r>
       <r>    7.5195    0.0792 </r>
       <r>    7.8129   -0.0064 </r>
       <r>    7.8129   -0.0064 </r>
       <r>    7.9439   -0.0004 </r>
       <r>    8.0632   -0.0000 </r>
       <r>    8.0632   -0.0000 </r>
       <r>    8.2530   -0.0000 </r>
       <r>    8.7818   -0.0000 </r>
       <r>    8.7818   -0.0000 </r>
       <r>   13.8278    0.0000 </r>
       <r>   13.8278    0.0000 </r>
       <r>   19.7048    0.0000 </r>
       <r>   19.7048    0.0000 </r>
       <r>   21.1102    0.0000 </r>
       <r>   21.1102    0.0000 </r>
       <r>   22.6839    0.0000 </r>
       <r>   22.6839    0.0000 </r>
       <r>   23.9314    0.0000 </r>
       <r>   26.0156    0.0000 </r>
       <r>   26.0156    0.0000 </r>
       <r>   29.9955    0.0000 </r>
       <r>   30.7294    0.0000 </r>
       <r>   33.1381    0.0000 </r>
       <r>   33.5592    0.0000 </r>
       <r>   33.5592    0.0000 </r>
       <r>   33.9763    0.0000 </r>
       <r>   33.9763    0.0000 </r>
      </set>
      <set comment="kpoint 5">
       <r>    0.0862    1.0000 </r>
       <r>    2.1316    1.0000 </r>
       <r>    3.0614    1.0000 </r>
       <r>    3.0614    1.0000 </r>
       <r>    3.6119    1.0000 </r>
       <r>    3.8107    1.0000 </r>
       <r>    3.8107    1.0000 </r>
       <r>    4.7528    1.0000 </r>
       <r>    5.6824    1.0000 </r>
       <r>    5.6824    1.0000 </r>
       <r>    6.3691    1.0000 </r>
       <r>    6.3691    1.0000 </r>
       <r>    6.5614    1.0000 </r>
       <r>    6.9341    1.0024 </r>
       <r>    7.4519    0.2853 </r>
       <r>    7.4519    0.2853 </r>
       <r>    7.6267   -0.0342 </r>
       <r>    7.6267   -0.0342 </r>
       <r>    7.6499   -0.0353 </r>
       <r>    8.1157   -0.0000 </r>
       <r>    8.7823   -0.0000 </r>
       <r>    8.7823   -0.0000 </r>
       <r>   15.2062    0.0000 </r>
       <r>   15.2062    0.0000 </r>
       <r>   19.6165    0.0000 </r>
       <r>   19.6165    0.0000 </r>
       <r>   19.6751    0.0000 </r>
       <r>   19.6751    0.0000 </r>
       <r>   22.1529    0.0000 </r>
       <r>   22.1529    0.0000 </r>
       <r>   26.0380    0.0000 </r>
       <r>   27.2383    0.0000 </r>
       <r>   27.2383    0.0000 </r>
       <r>   30.0718    0.0000 </r>
       <r>   30.5084    0.0000 </r>
       <r>   31.5496    0.0000 </r>
       <r>   31.8921    0.0000 </r>
       <r>   31.8921    0.0000 </r>
       <r>   36.1965    0.0000 </r>
       <r>   36.1966    0.0000 </r>
      </set>
      <set comment="kpoint 6">
       <r>    0.9191    1.0000 </r>
       <r>    1.6696    1.0000 </r>
       <r>    3.2985    1.0000 </r>
       <r>    3.2985    1.0000 </r>
       <r>    3.9719    1.0000 </r>
       <r>    4.3276    1.0000 </r>
       <r>    4.3276    1.0000 </r>
       <r>    4.3623    1.0000 </r>
       <r>    4.9534    1.0000 </r>
       <r>    4.9534    1.0000 </r>
       <r>    6.3577    1.0000 </r>
       <r>    6.4122    1.0000 </r>
       <r>    6.7462    1.0000 </r>
       <r>    6.7462    1.0000 </r>
       <r>    7.1743    1.0337 </r>
       <r>    7.1743    1.0337 </r>
       <r>    7.2032    1.0229 </r>
       <r>    7.2032    1.0229 </r>
       <r>    7.8007   -0.0078 </r>
       <r>    7.9601   -0.0003 </r>
       <r>    8.7827   -0.0000 </r>
       <r>    8.7827   -0.0000 </r>
       <r>   16.6436    0.0000 </r>
       <r>   16.6436    0.0000 </r>
       <r>   18.1210    0.0000 </r>
       <r>   18.1210    0.0000 </r>
       <r>   19.6600    0.0000 </r>
       <r>   19.6600    0.0000 </r>
       <r>   21.8719    0.0000 </r>
       <r>   21.8719    0.0000 </r>
       <r>   28.0549    0.0000 </r>
       <r>   28.6613    0.0000 </r>
       <r>   28.6613    0.0000 </r>
       <r>   29.8844    0.0000 </r>
       <r>   30.1765    0.0000 </r>
       <r>   30.2345    0.0000 </r>
       <r>   30.2345    0.0000 </r>
       <r>   30.3231    0.0000 </r>
       <r>   37.6164    0.0000 </r>
       <r>   38.6769    0.0000 </r>
      </set>
      <set comment="kpoint 7">
       <r>   -1.4848    1.0000 </r>
       <r>    2.2095    1.0000 </r>
       <r>    2.2095    1.0000 </r>
       <r>    2.2495    1.0000 </r>
       <r>    2.9895    1.0000 </r>
       <r>    2.9895    1.0000 </r>
       <r>    2.9985    1.0000 </r>
       <r>    5.5467    1.0000 </r>
       <r>    5.7175    1.0000 </r>
       <r>    5.7369    1.0000 </r>
       <r>    7.2553    0.9664 </r>
       <r>    7.3401    0.7383 </r>
       <r>    7.9697   -0.0002 </r>
       <r>    8.1212   -0.0000 </r>
       <r>    8.1212   -0.0000 </r>
       <r>    8.3001   -0.0000 </r>
       <r>    8.3879   -0.0000 </r>
       <r>    8.3879   -0.0000 </r>
       <r>    8.6899   -0.0000 </r>
       <r>    8.6899   -0.0000 </r>
       <r>    8.7243   -0.0000 </r>
       <r>   10.9373   -0.0000 </r>
       <r>   10.9373   -0.0000 </r>
       <r>   11.8550   -0.0000 </r>
       <r>   19.7281    0.0000 </r>
       <r>   20.3919    0.0000 </r>
       <r>   20.3919    0.0000 </r>
       <r>   22.6077    0.0000 </r>
       <r>   23.9230    0.0000 </r>
       <r>   23.9230    0.0000 </r>
       <r>   24.1946    0.0000 </r>
       <r>   24.1946    0.0000 </r>
       <r>   24.6678    0.0000 </r>
       <r>   30.5549    0.0000 </r>
       <r>   30.5549    0.0000 </r>
       <r>   30.7428    0.0000 </r>
       <r>   30.9849    0.0000 </r>
       <r>   34.8136    0.0000 </r>
       <r>   35.8360    0.0000 </r>
       <r>   35.8360    0.0000 </r>
      </set>
      <set comment="kpoint 8">
       <r>   -1.1262    1.0000 </r>
       <r>    2.2931    1.0000 </r>
       <r>    2.4333    1.0000 </r>
       <r>    2.4640    1.0000 </r>
       <r>    3.1297    1.0000 </r>
       <r>    3.1603    1.0000 </r>
       <r>    3.1670    1.0000 </r>
       <r>    5.3787    1.0000 </r>
       <r>    5.8424    1.0000 </r>
       <r>    5.8562    1.0000 </r>
       <r>    7.1068    1.0293 </r>
       <r>    7.2438    0.9839 </r>
       <r>    7.2459    0.9810 </r>
       <r>    7.3992    0.4999 </r>
       <r>    7.7421   -0.0179 </r>
       <r>    8.0856   -0.0000 </r>
       <r>    8.1546   -0.0000 </r>
       <r>    8.3255   -0.0000 </r>
       <r>    8.4350   -0.0000 </r>
       <r>    8.6895   -0.0000 </r>
       <r>    8.6932   -0.0000 </r>
       <r>    9.9098   -0.0000 </r>
       <r>   12.0255   -0.0000 </r>
       <r>   12.8565   -0.0000 </r>
       <r>   19.6087    0.0000 </r>
       <r>   20.4044    0.0000 </r>
       <r>   21.3468    0.0000 </r>
       <r>   21.9536    0.0000 </r>
       <r>   22.7084    0.0000 </r>
       <r>   23.5595    0.0000 </r>
       <r>   24.4771    0.0000 </r>
       <r>   24.6388    0.0000 </r>
       <r>   24.7893    0.0000 </r>
       <r>   30.6346    0.0000 </r>
       <r>   30.6406    0.0000 </r>
       <r>   31.6786    0.0000 </r>
       <r>   32.0731    0.0000 </r>
       <r>   33.1932    0.0000 </r>
       <r>   35.3596    0.0000 </r>
       <r>   36.0107    0.0000 </r>
      </set>
      <set comment="kpoint 9">
       <r>   -0.5527    1.0000 </r>
       <r>    2.3477    1.0000 </r>
       <r>    2.7621    1.0000 </r>
       <r>    2.7807    1.0000 </r>
       <r>    3.3548    1.0000 </r>
       <r>    3.4433    1.0000 </r>
       <r>    3.4441    1.0000 </r>
       <r>    5.1038    1.0000 </r>
       <r>    6.0379    1.0000 </r>
       <r>    6.0649    1.0000 </r>
       <r>    6.3733    1.0000 </r>
       <r>    6.4302    1.0000 </r>
       <r>    6.8806    1.0008 </r>
       <r>    7.1598    1.0353 </r>
       <r>    7.5155    0.0884 </r>
       <r>    7.7675   -0.0129 </r>
       <r>    7.8241   -0.0052 </r>
       <r>    8.0620   -0.0000 </r>
       <r>    8.1595   -0.0000 </r>
       <r>    8.6859   -0.0000 </r>
       <r>    8.6890   -0.0000 </r>
       <r>    8.9177   -0.0000 </r>
       <r>   13.2261    0.0000 </r>
       <r>   14.0832    0.0000 </r>
       <r>   19.1244    0.0000 </r>
       <r>   20.4231    0.0000 </r>
       <r>   20.5071    0.0000 </r>
       <r>   21.2784    0.0000 </r>
       <r>   22.8913    0.0000 </r>
       <r>   23.8833    0.0000 </r>
       <r>   24.0203    0.0000 </r>
       <r>   25.3285    0.0000 </r>
       <r>   25.7739    0.0000 </r>
       <r>   30.1344    0.0000 </r>
       <r>   30.7849    0.0000 </r>
       <r>   31.6298    0.0000 </r>
       <r>   33.3782    0.0000 </r>
       <r>   34.0375    0.0000 </r>
       <r>   34.2086    0.0000 </r>
       <r>   35.0712    0.0000 </r>
      </set>
      <set comment="kpoint 10">
       <r>    0.1906    1.0000 </r>
       <r>    2.2222    1.0000 </r>
       <r>    3.1163    1.0000 </r>
       <r>    3.1262    1.0000 </r>
       <r>    3.6518    1.0000 </r>
       <r>    3.8186    1.0000 </r>
       <r>    3.8393    1.0000 </r>
       <r>    4.7596    1.0000 </r>
       <r>    5.5762    1.0000 </r>
       <r>    5.6518    1.0000 </r>
       <r>    6.1939    1.0000 </r>
       <r>    6.3709    1.0000 </r>
       <r>    6.5263    1.0000 </r>
       <r>    6.7271    1.0000 </r>
       <r>    7.4240    0.3958 </r>
       <r>    7.4646    0.2390 </r>
       <r>    7.6257   -0.0340 </r>
       <r>    7.6698   -0.0333 </r>
       <r>    7.8010   -0.0078 </r>
       <r>    8.3340   -0.0000 </r>
       <r>    8.6845   -0.0000 </r>
       <r>    8.6880   -0.0000 </r>
       <r>   14.4632    0.0000 </r>
       <r>   15.4228    0.0000 </r>
       <r>   18.1057    0.0000 </r>
       <r>   19.7859    0.0000 </r>
       <r>   20.2856    0.0000 </r>
       <r>   20.4231    0.0000 </r>
       <r>   22.4382    0.0000 </r>
       <r>   23.2657    0.0000 </r>
       <r>   25.7382    0.0000 </r>
       <r>   26.3868    0.0000 </r>
       <r>   27.2328    0.0000 </r>
       <r>   29.4703    0.0000 </r>
       <r>   30.1496    0.0000 </r>
       <r>   31.0388    0.0000 </r>
       <r>   33.0479    0.0000 </r>
       <r>   33.1895    0.0000 </r>
       <r>   35.5114    0.0000 </r>
       <r>   36.2669    0.0000 </r>
      </set>
      <set comment="kpoint 11">
       <r>    1.0160    1.0000 </r>
       <r>    1.7620    1.0000 </r>
       <r>    3.3649    1.0000 </r>
       <r>    3.3692    1.0000 </r>
       <r>    4.0020    1.0000 </r>
       <r>    4.2921    1.0000 </r>
       <r>    4.3430    1.0000 </r>
       <r>    4.3811    1.0000 </r>
       <r>    4.8778    1.0000 </r>
       <r>    4.9502    1.0000 </r>
       <r>    6.1454    1.0000 </r>
       <r>    6.1647    1.0000 </r>
       <r>    6.7466    1.0000 </r>
       <r>    6.9147    1.0016 </r>
       <r>    7.1737    1.0338 </r>
       <r>    7.1929    1.0281 </r>
       <r>    7.2085    1.0196 </r>
       <r>    7.3213    0.8033 </r>
       <r>    7.8518   -0.0031 </r>
       <r>    8.0592   -0.0000 </r>
       <r>    8.6853   -0.0000 </r>
       <r>    8.6867   -0.0000 </r>
       <r>   15.7033    0.0000 </r>
       <r>   16.8360    0.0000 </r>
       <r>   16.9247    0.0000 </r>
       <r>   18.2966    0.0000 </r>
       <r>   20.3018    0.0000 </r>
       <r>   20.3742    0.0000 </r>
       <r>   22.3526    0.0000 </r>
       <r>   22.6581    0.0000 </r>
       <r>   27.2929    0.0000 </r>
       <r>   27.5202    0.0000 </r>
       <r>   28.5922    0.0000 </r>
       <r>   28.7210    0.0000 </r>
       <r>   29.1489    0.0000 </r>
       <r>   31.1929    0.0000 </r>
       <r>   31.4419    0.0000 </r>
       <r>   32.0933    0.0000 </r>
       <r>   37.9262    0.0000 </r>
       <r>   38.1333    0.0000 </r>
      </set>
      <set comment="kpoint 12">
       <r>   -0.7786    1.0000 </r>
       <r>    2.5272    1.0000 </r>
       <r>    2.5272    1.0000 </r>
       <r>    2.6627    1.0000 </r>
       <r>    3.2898    1.0000 </r>
       <r>    3.2898    1.0000 </r>
       <r>    3.3167    1.0000 </r>
       <r>    5.2792    1.0000 </r>
       <r>    5.9154    1.0000 </r>
       <r>    5.9176    1.0000 </r>
       <r>    6.8099    1.0001 </r>
       <r>    6.8657    1.0005 </r>
       <r>    6.8657    1.0005 </r>
       <r>    7.0528    1.0172 </r>
       <r>    7.4243    0.3945 </r>
       <r>    7.9049   -0.0010 </r>
       <r>    8.1179   -0.0000 </r>
       <r>    8.1179   -0.0000 </r>
       <r>    8.4333   -0.0000 </r>
       <r>    8.4333   -0.0000 </r>
       <r>    8.5579   -0.0000 </r>
       <r>   10.9345   -0.0000 </r>
       <r>   10.9345   -0.0000 </r>
       <r>   13.6742    0.0000 </r>
       <r>   18.8988    0.0000 </r>
       <r>   20.5142    0.0000 </r>
       <r>   21.9575    0.0000 </r>
       <r>   21.9575    0.0000 </r>
       <r>   23.2102    0.0000 </r>
       <r>   23.2102    0.0000 </r>
       <r>   24.1715    0.0000 </r>
       <r>   24.1715    0.0000 </r>
       <r>   25.8222    0.0000 </r>
       <r>   29.9218    0.0000 </r>
       <r>   31.4063    0.0000 </r>
       <r>   31.5461    0.0000 </r>
       <r>   32.2223    0.0000 </r>
       <r>   32.2223    0.0000 </r>
       <r>   35.6215    0.0000 </r>
       <r>   37.4973    0.0000 </r>
      </set>
      <set comment="kpoint 13">
       <r>   -0.2232    1.0000 </r>
       <r>    2.5967    1.0000 </r>
       <r>    2.8750    1.0000 </r>
       <r>    2.9616    1.0000 </r>
       <r>    3.4972    1.0000 </r>
       <r>    3.5537    1.0000 </r>
       <r>    3.5550    1.0000 </r>
       <r>    5.0651    1.0000 </r>
       <r>    5.9950    1.0000 </r>
       <r>    6.0450    1.0000 </r>
       <r>    6.1020    1.0000 </r>
       <r>    6.2044    1.0000 </r>
       <r>    6.3698    1.0000 </r>
       <r>    6.9005    1.0012 </r>
       <r>    7.5743   -0.0069 </r>
       <r>    7.6311   -0.0347 </r>
       <r>    7.8068   -0.0071 </r>
       <r>    7.9726   -0.0002 </r>
       <r>    8.0594   -0.0000 </r>
       <r>    8.4307   -0.0000 </r>
       <r>    8.4788   -0.0000 </r>
       <r>    9.8328   -0.0000 </r>
       <r>   11.9958   -0.0000 </r>
       <r>   14.7700    0.0000 </r>
       <r>   17.6465    0.0000 </r>
       <r>   20.3992    0.0000 </r>
       <r>   21.7595    0.0000 </r>
       <r>   21.8555    0.0000 </r>
       <r>   23.6213    0.0000 </r>
       <r>   23.6644    0.0000 </r>
       <r>   23.9736    0.0000 </r>
       <r>   25.3873    0.0000 </r>
       <r>   25.9870    0.0000 </r>
       <r>   29.0277    0.0000 </r>
       <r>   30.0215    0.0000 </r>
       <r>   32.2503    0.0000 </r>
       <r>   32.4758    0.0000 </r>
       <r>   34.2229    0.0000 </r>
       <r>   35.4089    0.0000 </r>
       <r>   36.6557    0.0000 </r>
      </set>
      <set comment="kpoint 14">
       <r>    0.4964    1.0000 </r>
       <r>    2.4827    1.0000 </r>
       <r>    3.2598    1.0000 </r>
       <r>    3.3083    1.0000 </r>
       <r>    3.7698    1.0000 </r>
       <r>    3.8482    1.0000 </r>
       <r>    3.9224    1.0000 </r>
       <r>    4.7691    1.0000 </r>
       <r>    5.3107    1.0000 </r>
       <r>    5.5552    1.0000 </r>
       <r>    5.9321    1.0000 </r>
       <r>    5.9955    1.0000 </r>
       <r>    6.3892    1.0000 </r>
       <r>    6.8268    1.0002 </r>
       <r>    7.3339    0.7607 </r>
       <r>    7.4588    0.2598 </r>
       <r>    7.6239   -0.0337 </r>
       <r>    7.6935   -0.0289 </r>
       <r>    7.8039   -0.0074 </r>
       <r>    8.4281   -0.0000 </r>
       <r>    8.4436   -0.0000 </r>
       <r>    8.9987   -0.0000 </r>
       <r>   13.0629    0.0000 </r>
       <r>   16.0235    0.0000 </r>
       <r>   16.3921    0.0000 </r>
       <r>   20.2709    0.0000 </r>
       <r>   20.5127    0.0000 </r>
       <r>   21.5239    0.0000 </r>
       <r>   23.6110    0.0000 </r>
       <r>   24.9178    0.0000 </r>
       <r>   24.9452    0.0000 </r>
       <r>   25.3841    0.0000 </r>
       <r>   27.3489    0.0000 </r>
       <r>   28.0518    0.0000 </r>
       <r>   28.6279    0.0000 </r>
       <r>   32.8575    0.0000 </r>
       <r>   34.1312    0.0000 </r>
       <r>   34.3973    0.0000 </r>
       <r>   34.7783    0.0000 </r>
       <r>   36.4832    0.0000 </r>
      </set>
      <set comment="kpoint 15">
       <r>    1.2973    1.0000 </r>
       <r>    2.0281    1.0000 </r>
       <r>    3.5489    1.0000 </r>
       <r>    3.5726    1.0000 </r>
       <r>    4.0894    1.0000 </r>
       <r>    4.1967    1.0000 </r>
       <r>    4.3864    1.0000 </r>
       <r>    4.4322    1.0000 </r>
       <r>    4.6832    1.0000 </r>
       <r>    4.9370    1.0000 </r>
       <r>    5.7622    1.0000 </r>
       <r>    5.8557    1.0000 </r>
       <r>    6.7545    1.0000 </r>
       <r>    6.9916    1.0071 </r>
       <r>    7.1450    1.0351 </r>
       <r>    7.1756    1.0334 </r>
       <r>    7.1931    1.0280 </r>
       <r>    7.3245    0.7930 </r>
       <r>    8.0922   -0.0000 </r>
       <r>    8.4269   -0.0000 </r>
       <r>    8.4301   -0.0000 </r>
       <r>    8.4598   -0.0000 </r>
       <r>   14.1329    0.0000 </r>
       <r>   15.2296    0.0000 </r>
       <r>   17.3788    0.0000 </r>
       <r>   18.8011    0.0000 </r>
       <r>   20.7510    0.0000 </r>
       <r>   21.1024    0.0000 </r>
       <r>   23.9833    0.0000 </r>
       <r>   24.6222    0.0000 </r>
       <r>   25.9596    0.0000 </r>
       <r>   26.1298    0.0000 </r>
       <r>   27.0185    0.0000 </r>
       <r>   27.3449    0.0000 </r>
       <r>   29.6622    0.0000 </r>
       <r>   32.0467    0.0000 </r>
       <r>   33.3794    0.0000 </r>
       <r>   34.0427    0.0000 </r>
       <r>   36.4709    0.0000 </r>
       <r>   38.9419    0.0000 </r>
      </set>
      <set comment="kpoint 16">
       <r>    0.3017    1.0000 </r>
       <r>    2.9722    1.0000 </r>
       <r>    2.9722    1.0000 </r>
       <r>    3.2332    1.0000 </r>
       <r>    3.7271    1.0000 </r>
       <r>    3.7316    1.0000 </r>
       <r>    3.7316    1.0000 </r>
       <r>    4.9515    1.0000 </r>
       <r>    5.6522    1.0000 </r>
       <r>    5.6522    1.0000 </r>
       <r>    5.8387    1.0000 </r>
       <r>    5.9511    1.0000 </r>
       <r>    6.2255    1.0000 </r>
       <r>    6.8077    1.0001 </r>
       <r>    7.4153    0.4319 </r>
       <r>    7.6869   -0.0303 </r>
       <r>    7.6869   -0.0303 </r>
       <r>    7.7890   -0.0094 </r>
       <r>    8.0570   -0.0000 </r>
       <r>    8.0570   -0.0000 </r>
       <r>    8.2889   -0.0000 </r>
       <r>   10.7599   -0.0000 </r>
       <r>   10.7599   -0.0000 </r>
       <r>   15.7471    0.0000 </r>
       <r>   16.1531    0.0000 </r>
       <r>   20.5197    0.0000 </r>
       <r>   22.4884    0.0000 </r>
       <r>   22.4884    0.0000 </r>
       <r>   23.0152    0.0000 </r>
       <r>   23.0152    0.0000 </r>
       <r>   25.3542    0.0000 </r>
       <r>   25.3542    0.0000 </r>
       <r>   27.5644    0.0000 </r>
       <r>   27.8501    0.0000 </r>
       <r>   28.5469    0.0000 </r>
       <r>   31.6506    0.0000 </r>
       <r>   34.5253    0.0000 </r>
       <r>   34.5253    0.0000 </r>
       <r>   36.3715    0.0000 </r>
       <r>   37.4368    0.0000 </r>
      </set>
      <set comment="kpoint 17">
       <r>    0.9793    1.0000 </r>
       <r>    2.8767    1.0000 </r>
       <r>    3.4034    1.0000 </r>
       <r>    3.5660    1.0000 </r>
       <r>    3.9143    1.0000 </r>
       <r>    3.9610    1.0000 </r>
       <r>    4.0522    1.0000 </r>
       <r>    4.7535    1.0000 </r>
       <r>    5.0176    1.0000 </r>
       <r>    5.3832    1.0000 </r>
       <r>    5.3838    1.0000 </r>
       <r>    5.8455    1.0000 </r>
       <r>    6.4594    1.0000 </r>
       <r>    6.7389    1.0000 </r>
       <r>    7.1736    1.0338 </r>
       <r>    7.3608    0.6592 </r>
       <r>    7.4415    0.3253 </r>
       <r>    7.6261   -0.0340 </r>
       <r>    8.0582   -0.0000 </r>
       <r>    8.1198   -0.0000 </r>
       <r>    8.1653   -0.0000 </r>
       <r>    9.7662   -0.0000 </r>
       <r>   11.6948   -0.0000 </r>
       <r>   14.8303    0.0000 </r>
       <r>   16.9087    0.0000 </r>
       <r>   20.7611    0.0000 </r>
       <r>   21.0107    0.0000 </r>
       <r>   22.2846    0.0000 </r>
       <r>   23.4053    0.0000 </r>
       <r>   23.9642    0.0000 </r>
       <r>   25.6860    0.0000 </r>
       <r>   26.6853    0.0000 </r>
       <r>   27.2162    0.0000 </r>
       <r>   27.6460    0.0000 </r>
       <r>   27.7238    0.0000 </r>
       <r>   32.7308    0.0000 </r>
       <r>   34.9695    0.0000 </r>
       <r>   35.2718    0.0000 </r>
       <r>   36.5500    0.0000 </r>
       <r>   36.8304    0.0000 </r>
      </set>
      <set comment="kpoint 18">
       <r>    1.7335    1.0000 </r>
       <r>    2.4314    1.0000 </r>
       <r>    3.7698    1.0000 </r>
       <r>    3.8815    1.0000 </r>
       <r>    4.0629    1.0000 </r>
       <r>    4.2250    1.0000 </r>
       <r>    4.4489    1.0000 </r>
       <r>    4.4727    1.0000 </r>
       <r>    4.4995    1.0000 </r>
       <r>    4.9031    1.0000 </r>
       <r>    5.4015    1.0000 </r>
       <r>    5.6224    1.0000 </r>
       <r>    6.7900    1.0001 </r>
       <r>    6.8529    1.0004 </r>
       <r>    7.0273    1.0123 </r>
       <r>    7.0984    1.0275 </r>
       <r>    7.1247    1.0327 </r>
       <r>    7.1899    1.0293 </r>
       <r>    8.0689   -0.0000 </r>
       <r>    8.0993   -0.0000 </r>
       <r>    8.5311   -0.0000 </r>
       <r>    9.0511   -0.0000 </r>
       <r>   12.6542   -0.0000 </r>
       <r>   13.6797    0.0000 </r>
       <r>   18.1957    0.0000 </r>
       <r>   19.5694    0.0000 </r>
       <r>   21.1266    0.0000 </r>
       <r>   21.6330    0.0000 </r>
       <r>   24.4382    0.0000 </r>
       <r>   24.9464    0.0000 </r>
       <r>   25.5417    0.0000 </r>
       <r>   26.0232    0.0000 </r>
       <r>   26.2689    0.0000 </r>
       <r>   27.0204    0.0000 </r>
       <r>   30.1506    0.0000 </r>
       <r>   32.7192    0.0000 </r>
       <r>   34.9625    0.0000 </r>
       <r>   35.5197    0.0000 </r>
       <r>   36.1161    0.0000 </r>
       <r>   37.4814    0.0000 </r>
      </set>
      <set comment="kpoint 19">
       <r>    1.5947    1.0000 </r>
       <r>    3.3311    1.0000 </r>
       <r>    3.3311    1.0000 </r>
       <r>    3.8103    1.0000 </r>
       <r>    4.0400    1.0000 </r>
       <r>    4.2153    1.0000 </r>
       <r>    4.2153    1.0000 </r>
       <r>    4.6850    1.0000 </r>
       <r>    4.9159    1.0000 </r>
       <r>    4.9159    1.0000 </r>
       <r>    5.1359    1.0000 </r>
       <r>    5.6907    1.0000 </r>
       <r>    6.6156    1.0000 </r>
       <r>    6.6194    1.0000 </r>
       <r>    6.9729    1.0051 </r>
       <r>    7.1432    1.0350 </r>
       <r>    7.1432    1.0350 </r>
       <r>    7.6416   -0.0354 </r>
       <r>    7.6416   -0.0354 </r>
       <r>    7.9317   -0.0005 </r>
       <r>    8.5539   -0.0000 </r>
       <r>   10.5688   -0.0000 </r>
       <r>   10.5688   -0.0000 </r>
       <r>   13.4922    0.0000 </r>
       <r>   17.9900    0.0000 </r>
       <r>   21.1095    0.0000 </r>
       <r>   21.9401    0.0000 </r>
       <r>   21.9401    0.0000 </r>
       <r>   23.0265    0.0000 </r>
       <r>   23.0265    0.0000 </r>
       <r>   25.3879    0.0000 </r>
       <r>   25.9497    0.0000 </r>
       <r>   28.1316    0.0000 </r>
       <r>   28.1316    0.0000 </r>
       <r>   29.7321    0.0000 </r>
       <r>   31.9446    0.0000 </r>
       <r>   35.3810    0.0000 </r>
       <r>   37.2829    0.0000 </r>
       <r>   37.2984    0.0000 </r>
       <r>   37.2984    0.0000 </r>
      </set>
      <set comment="kpoint 20">
       <r>    2.2713    1.0000 </r>
       <r>    2.9033    1.0000 </r>
       <r>    3.7213    1.0000 </r>
       <r>    3.8960    1.0000 </r>
       <r>    4.2498    1.0000 </r>
       <r>    4.3922    1.0000 </r>
       <r>    4.5154    1.0000 </r>
       <r>    4.5387    1.0000 </r>
       <r>    4.5580    1.0000 </r>
       <r>    4.8344    1.0000 </r>
       <r>    5.1165    1.0000 </r>
       <r>    5.4352    1.0000 </r>
       <r>    6.6481    1.0000 </r>
       <r>    6.8401    1.0003 </r>
       <r>    6.8632    1.0005 </r>
       <r>    6.8831    1.0008 </r>
       <r>    6.9020    1.0012 </r>
       <r>    7.2349    0.9954 </r>
       <r>    7.6844   -0.0308 </r>
       <r>    7.7742   -0.0117 </r>
       <r>    9.0740   -0.0000 </r>
       <r>    9.7178   -0.0000 </r>
       <r>   11.4212   -0.0000 </r>
       <r>   12.3738   -0.0000 </r>
       <r>   19.2113    0.0000 </r>
       <r>   20.5334    0.0000 </r>
       <r>   21.5927    0.0000 </r>
       <r>   22.2268    0.0000 </r>
       <r>   22.9970    0.0000 </r>
       <r>   23.8681    0.0000 </r>
       <r>   24.1511    0.0000 </r>
       <r>   24.8385    0.0000 </r>
       <r>   28.8072    0.0000 </r>
       <r>   29.6101    0.0000 </r>
       <r>   30.7268    0.0000 </r>
       <r>   33.3395    0.0000 </r>
       <r>   33.5973    0.0000 </r>
       <r>   36.1976    0.0000 </r>
       <r>   37.2547    0.0000 </r>
       <r>   37.8393    0.0000 </r>
      </set>
      <set comment="kpoint 21">
       <r>    2.8353    1.0000 </r>
       <r>    3.3449    1.0000 </r>
       <r>    3.3449    1.0000 </r>
       <r>    3.6745    1.0000 </r>
       <r>    4.5667    1.0000 </r>
       <r>    4.5667    1.0000 </r>
       <r>    4.5838    1.0000 </r>
       <r>    4.6010    1.0000 </r>
       <r>    4.7209    1.0000 </r>
       <r>    4.8780    1.0000 </r>
       <r>    4.8780    1.0000 </r>
       <r>    5.2084    1.0000 </r>
       <r>    6.5544    1.0000 </r>
       <r>    6.6711    1.0000 </r>
       <r>    6.6711    1.0000 </r>
       <r>    6.6721    1.0000 </r>
       <r>    7.0614    1.0190 </r>
       <r>    7.3346    0.7581 </r>
       <r>    7.3346    0.7581 </r>
       <r>    7.5117    0.0976 </r>
       <r>    9.7006   -0.0000 </r>
       <r>   10.4562   -0.0000 </r>
       <r>   10.4562   -0.0000 </r>
       <r>   11.3165   -0.0000 </r>
       <r>   20.3679    0.0000 </r>
       <r>   21.6390    0.0000 </r>
       <r>   21.6390    0.0000 </r>
       <r>   22.1896    0.0000 </r>
       <r>   22.8546    0.0000 </r>
       <r>   22.9483    0.0000 </r>
       <r>   22.9483    0.0000 </r>
       <r>   23.8131    0.0000 </r>
       <r>   31.4673    0.0000 </r>
       <r>   31.4673    0.0000 </r>
       <r>   32.1892    0.0000 </r>
       <r>   32.5661    0.0000 </r>
       <r>   33.6998    0.0000 </r>
       <r>   34.7984    0.0000 </r>
       <r>   35.1415    0.0000 </r>
       <r>   35.1415    0.0000 </r>
      </set>
      <set comment="kpoint 22">
       <r>   -1.3644    1.0000 </r>
       <r>    2.2856    1.0000 </r>
       <r>    2.2856    1.0000 </r>
       <r>    2.2856    1.0000 </r>
       <r>    3.0449    1.0000 </r>
       <r>    3.0449    1.0000 </r>
       <r>    3.0449    1.0000 </r>
       <r>    5.5115    1.0000 </r>
       <r>    5.7550    1.0000 </r>
       <r>    5.7550    1.0000 </r>
       <r>    7.2844    0.9079 </r>
       <r>    7.2844    0.9079 </r>
       <r>    7.8381   -0.0041 </r>
       <r>    7.8381   -0.0041 </r>
       <r>    7.8381   -0.0041 </r>
       <r>    8.2291   -0.0000 </r>
       <r>    8.2291   -0.0000 </r>
       <r>    8.2291   -0.0000 </r>
       <r>    8.6897   -0.0000 </r>
       <r>    8.6897   -0.0000 </r>
       <r>    8.6897   -0.0000 </r>
       <r>   11.3736   -0.0000 </r>
       <r>   11.3736   -0.0000 </r>
       <r>   11.3736   -0.0000 </r>
       <r>   20.3746    0.0000 </r>
       <r>   20.3746    0.0000 </r>
       <r>   20.3746    0.0000 </r>
       <r>   22.8026    0.0000 </r>
       <r>   22.8026    0.0000 </r>
       <r>   22.8026    0.0000 </r>
       <r>   24.8668    0.0000 </r>
       <r>   24.8668    0.0000 </r>
       <r>   24.8668    0.0000 </r>
       <r>   30.7516    0.0000 </r>
       <r>   30.7651    0.0000 </r>
       <r>   30.7651    0.0000 </r>
       <r>   30.7651    0.0000 </r>
       <r>   34.0773    0.0000 </r>
       <r>   36.4823    0.0000 </r>
       <r>   36.4823    0.0000 </r>
      </set>
      <set comment="kpoint 23">
       <r>   -1.0100    1.0000 </r>
       <r>    2.3712    1.0000 </r>
       <r>    2.5024    1.0000 </r>
       <r>    2.5024    1.0000 </r>
       <r>    3.1821    1.0000 </r>
       <r>    3.2101    1.0000 </r>
       <r>    3.2101    1.0000 </r>
       <r>    5.3606    1.0000 </r>
       <r>    5.8571    1.0000 </r>
       <r>    5.8667    1.0000 </r>
       <r>    7.1100    1.0300 </r>
       <r>    7.1100    1.0300 </r>
       <r>    7.1305    1.0336 </r>
       <r>    7.3696    0.6237 </r>
       <r>    7.4567    0.2672 </r>
       <r>    8.0253   -0.0000 </r>
       <r>    8.0303   -0.0000 </r>
       <r>    8.0303   -0.0000 </r>
       <r>    8.5941   -0.0000 </r>
       <r>    8.6603   -0.0000 </r>
       <r>    8.6603   -0.0000 </r>
       <r>   10.3173   -0.0000 </r>
       <r>   12.3202   -0.0000 </r>
       <r>   12.3202   -0.0000 </r>
       <r>   20.2369    0.0000 </r>
       <r>   20.2369    0.0000 </r>
       <r>   21.6001    0.0000 </r>
       <r>   21.6001    0.0000 </r>
       <r>   21.9021    0.0000 </r>
       <r>   23.4050    0.0000 </r>
       <r>   24.8212    0.0000 </r>
       <r>   24.8212    0.0000 </r>
       <r>   25.4468    0.0000 </r>
       <r>   30.1219    0.0000 </r>
       <r>   30.8487    0.0000 </r>
       <r>   31.7220    0.0000 </r>
       <r>   31.7220    0.0000 </r>
       <r>   32.9661    0.0000 </r>
       <r>   35.4437    0.0000 </r>
       <r>   36.6629    0.0000 </r>
      </set>
      <set comment="kpoint 24">
       <r>   -0.4433    1.0000 </r>
       <r>    2.4284    1.0000 </r>
       <r>    2.8237    1.0000 </r>
       <r>    2.8237    1.0000 </r>
       <r>    3.4026    1.0000 </r>
       <r>    3.4798    1.0000 </r>
       <r>    3.4798    1.0000 </r>
       <r>    5.1006    1.0000 </r>
       <r>    6.0269    1.0000 </r>
       <r>    6.0513    1.0000 </r>
       <r>    6.3114    1.0000 </r>
       <r>    6.3114    1.0000 </r>
       <r>    6.8865    1.0009 </r>
       <r>    6.9324    1.0024 </r>
       <r>    7.5034    0.1185 </r>
       <r>    7.7188   -0.0232 </r>
       <r>    7.7414   -0.0181 </r>
       <r>    7.7414   -0.0181 </r>
       <r>    8.4517   -0.0000 </r>
       <r>    8.6337   -0.0000 </r>
       <r>    8.6337   -0.0000 </r>
       <r>    9.2226   -0.0000 </r>
       <r>   13.4421    0.0000 </r>
       <r>   13.4421    0.0000 </r>
       <r>   19.5457    0.0000 </r>
       <r>   19.5457    0.0000 </r>
       <r>   21.0386    0.0000 </r>
       <r>   21.0386    0.0000 </r>
       <r>   23.5136    0.0000 </r>
       <r>   24.1846    0.0000 </r>
       <r>   24.1846    0.0000 </r>
       <r>   24.6246    0.0000 </r>
       <r>   26.3624    0.0000 </r>
       <r>   29.2150    0.0000 </r>
       <r>   31.0161    0.0000 </r>
       <r>   31.9617    0.0000 </r>
       <r>   33.4207    0.0000 </r>
       <r>   33.4207    0.0000 </r>
       <r>   33.8444    0.0000 </r>
       <r>   36.0813    0.0000 </r>
      </set>
      <set comment="kpoint 25">
       <r>    0.2909    1.0000 </r>
       <r>    2.3045    1.0000 </r>
       <r>    3.1784    1.0000 </r>
       <r>    3.1784    1.0000 </r>
       <r>    3.6935    1.0000 </r>
       <r>    3.8408    1.0000 </r>
       <r>    3.8408    1.0000 </r>
       <r>    4.7699    1.0000 </r>
       <r>    5.5617    1.0000 </r>
       <r>    5.5617    1.0000 </r>
       <r>    6.1288    1.0000 </r>
       <r>    6.3046    1.0000 </r>
       <r>    6.3181    1.0000 </r>
       <r>    6.8654    1.0005 </r>
       <r>    7.3543    0.6847 </r>
       <r>    7.4132    0.4407 </r>
       <r>    7.4132    0.4407 </r>
       <r>    7.6753   -0.0325 </r>
       <r>    8.2748   -0.0000 </r>
       <r>    8.3285   -0.0000 </r>
       <r>    8.6193   -0.0000 </r>
       <r>    8.6193   -0.0000 </r>
       <r>   14.6157    0.0000 </r>
       <r>   14.6157    0.0000 </r>
       <r>   18.4254    0.0000 </r>
       <r>   18.4254    0.0000 </r>
       <r>   21.0432    0.0000 </r>
       <r>   21.0432    0.0000 </r>
       <r>   23.4418    0.0000 </r>
       <r>   23.4418    0.0000 </r>
       <r>   24.7221    0.0000 </r>
       <r>   26.5546    0.0000 </r>
       <r>   27.5536    0.0000 </r>
       <r>   28.1471    0.0000 </r>
       <r>   31.0711    0.0000 </r>
       <r>   31.3092    0.0000 </r>
       <r>   32.1721    0.0000 </r>
       <r>   34.4627    0.0000 </r>
       <r>   35.5604    0.0000 </r>
       <r>   35.5604    0.0000 </r>
      </set>
      <set comment="kpoint 26">
       <r>    1.1067    1.0000 </r>
       <r>    1.8462    1.0000 </r>
       <r>    3.4353    1.0000 </r>
       <r>    3.4353    1.0000 </r>
       <r>    4.0356    1.0000 </r>
       <r>    4.2698    1.0000 </r>
       <r>    4.2698    1.0000 </r>
       <r>    4.4040    1.0000 </r>
       <r>    4.9196    1.0000 </r>
       <r>    4.9196    1.0000 </r>
       <r>    6.0235    1.0000 </r>
       <r>    6.0408    1.0000 </r>
       <r>    6.6178    1.0000 </r>
       <r>    6.9759    1.0054 </r>
       <r>    7.1379    1.0345 </r>
       <r>    7.1798    1.0325 </r>
       <r>    7.1798    1.0325 </r>
       <r>    7.6449   -0.0355 </r>
       <r>    7.8712   -0.0021 </r>
       <r>    8.0767   -0.0000 </r>
       <r>    8.6135   -0.0000 </r>
       <r>    8.6135   -0.0000 </r>
       <r>   15.7174    0.0000 </r>
       <r>   15.7174    0.0000 </r>
       <r>   17.3345    0.0000 </r>
       <r>   17.3345    0.0000 </r>
       <r>   21.1566    0.0000 </r>
       <r>   21.1566    0.0000 </r>
       <r>   22.9337    0.0000 </r>
       <r>   22.9337    0.0000 </r>
       <r>   25.8614    0.0000 </r>
       <r>   27.0098    0.0000 </r>
       <r>   28.5220    0.0000 </r>
       <r>   28.9612    0.0000 </r>
       <r>   30.0476    0.0000 </r>
       <r>   30.5188    0.0000 </r>
       <r>   31.8593    0.0000 </r>
       <r>   32.9075    0.0000 </r>
       <r>   37.9004    0.0000 </r>
       <r>   37.9004    0.0000 </r>
      </set>
      <set comment="kpoint 27">
       <r>   -0.6681    1.0000 </r>
       <r>    2.5944    1.0000 </r>
       <r>    2.5944    1.0000 </r>
       <r>    2.6999    1.0000 </r>
       <r>    3.3379    1.0000 </r>
       <r>    3.3379    1.0000 </r>
       <r>    3.3570    1.0000 </r>
       <r>    5.2692    1.0000 </r>
       <r>    5.9188    1.0000 </r>
       <r>    5.9192    1.0000 </r>
       <r>    6.6994    1.0000 </r>
       <r>    6.7529    1.0000 </r>
       <r>    6.7529    1.0000 </r>
       <r>    7.1112    1.0302 </r>
       <r>    7.3809    0.5770 </r>
       <r>    7.7926   -0.0089 </r>
       <r>    7.8469   -0.0034 </r>
       <r>    7.8469   -0.0034 </r>
       <r>    8.5705   -0.0000 </r>
       <r>    8.5705   -0.0000 </r>
       <r>    8.5874   -0.0000 </r>
       <r>   11.1717   -0.0000 </r>
       <r>   11.1717   -0.0000 </r>
       <r>   13.0555    0.0000 </r>
       <r>   19.3018    0.0000 </r>
       <r>   21.0554    0.0000 </r>
       <r>   21.3885    0.0000 </r>
       <r>   21.3885    0.0000 </r>
       <r>   22.6051    0.0000 </r>
       <r>   22.6051    0.0000 </r>
       <r>   25.3587    0.0000 </r>
       <r>   25.3587    0.0000 </r>
       <r>   25.9997    0.0000 </r>
       <r>   29.0398    0.0000 </r>
       <r>   31.4330    0.0000 </r>
       <r>   31.8467    0.0000 </r>
       <r>   31.8467    0.0000 </r>
       <r>   32.1511    0.0000 </r>
       <r>   35.6007    0.0000 </r>
       <r>   37.6012    0.0000 </r>
      </set>
      <set comment="kpoint 28">
       <r>   -0.1223    1.0000 </r>
       <r>    2.6586    1.0000 </r>
       <r>    2.9273    1.0000 </r>
       <r>    2.9973    1.0000 </r>
       <r>    3.5451    1.0000 </r>
       <r>    3.5868    1.0000 </r>
       <r>    3.5900    1.0000 </r>
       <r>    5.0712    1.0000 </r>
       <r>    5.9903    1.0000 </r>
       <r>    6.0092    1.0000 </r>
       <r>    6.0635    1.0000 </r>
       <r>    6.1171    1.0000 </r>
       <r>    6.2785    1.0000 </r>
       <r>    6.9915    1.0070 </r>
       <r>    7.5343    0.0489 </r>
       <r>    7.5425    0.0345 </r>
       <r>    7.5496    0.0233 </r>
       <r>    7.6246   -0.0338 </r>
       <r>    8.4197   -0.0000 </r>
       <r>    8.4986   -0.0000 </r>
       <r>    8.5073   -0.0000 </r>
       <r>    9.9800   -0.0000 </r>
       <r>   12.1489   -0.0000 </r>
       <r>   13.9977    0.0000 </r>
       <r>   18.0085    0.0000 </r>
       <r>   20.2172    0.0000 </r>
       <r>   21.1112    0.0000 </r>
       <r>   22.3188    0.0000 </r>
       <r>   22.5509    0.0000 </r>
       <r>   24.4346    0.0000 </r>
       <r>   24.7096    0.0000 </r>
       <r>   26.1407    0.0000 </r>
       <r>   26.2555    0.0000 </r>
       <r>   27.8249    0.0000 </r>
       <r>   31.1245    0.0000 </r>
       <r>   32.0764    0.0000 </r>
       <r>   32.2860    0.0000 </r>
       <r>   33.5793    0.0000 </r>
       <r>   34.7940    0.0000 </r>
       <r>   37.3836    0.0000 </r>
      </set>
      <set comment="kpoint 29">
       <r>    0.5837    1.0000 </r>
       <r>    2.5381    1.0000 </r>
       <r>    3.3062    1.0000 </r>
       <r>    3.3482    1.0000 </r>
       <r>    3.8188    1.0000 </r>
       <r>    3.8560    1.0000 </r>
       <r>    3.9107    1.0000 </r>
       <r>    4.7920    1.0000 </r>
       <r>    5.3398    1.0000 </r>
       <r>    5.5100    1.0000 </r>
       <r>    5.8670    1.0000 </r>
       <r>    5.9785    1.0000 </r>
       <r>    6.2704    1.0000 </r>
       <r>    7.0023    1.0084 </r>
       <r>    7.1974    1.0260 </r>
       <r>    7.2658    0.9477 </r>
       <r>    7.3436    0.7254 </r>
       <r>    7.7771   -0.0112 </r>
       <r>    8.1680   -0.0000 </r>
       <r>    8.4461   -0.0000 </r>
       <r>    8.4501   -0.0000 </r>
       <r>    9.0193   -0.0000 </r>
       <r>   13.1521    0.0000 </r>
       <r>   14.9081    0.0000 </r>
       <r>   16.9368    0.0000 </r>
       <r>   18.9857    0.0000 </r>
       <r>   21.3601    0.0000 </r>
       <r>   22.5580    0.0000 </r>
       <r>   23.2764    0.0000 </r>
       <r>   24.1456    0.0000 </r>
       <r>   25.5192    0.0000 </r>
       <r>   26.2949    0.0000 </r>
       <r>   26.6098    0.0000 </r>
       <r>   27.6586    0.0000 </r>
       <r>   30.0573    0.0000 </r>
       <r>   32.4745    0.0000 </r>
       <r>   33.4132    0.0000 </r>
       <r>   34.1597    0.0000 </r>
       <r>   35.7058    0.0000 </r>
       <r>   35.7438    0.0000 </r>
      </set>
      <set comment="kpoint 30">
       <r>    1.3685    1.0000 </r>
       <r>    2.0858    1.0000 </r>
       <r>    3.6132    1.0000 </r>
       <r>    3.6373    1.0000 </r>
       <r>    4.1055    1.0000 </r>
       <r>    4.1359    1.0000 </r>
       <r>    4.1953    1.0000 </r>
       <r>    4.4696    1.0000 </r>
       <r>    4.8649    1.0000 </r>
       <r>    4.9939    1.0000 </r>
       <r>    5.7204    1.0000 </r>
       <r>    5.8268    1.0000 </r>
       <r>    6.5312    1.0000 </r>
       <r>    6.8457    1.0003 </r>
       <r>    7.0841    1.0242 </r>
       <r>    7.1158    1.0311 </r>
       <r>    7.2913    0.8910 </r>
       <r>    7.7521   -0.0158 </r>
       <r>    8.0573   -0.0000 </r>
       <r>    8.4150   -0.0000 </r>
       <r>    8.4220   -0.0000 </r>
       <r>    8.4230   -0.0000 </r>
       <r>   14.1380    0.0000 </r>
       <r>   14.9859    0.0000 </r>
       <r>   16.8643    0.0000 </r>
       <r>   17.8229    0.0000 </r>
       <r>   21.7494    0.0000 </r>
       <r>   22.2307    0.0000 </r>
       <r>   24.2024    0.0000 </r>
       <r>   24.3217    0.0000 </r>
       <r>   24.7643    0.0000 </r>
       <r>   25.4416    0.0000 </r>
       <r>   27.7233    0.0000 </r>
       <r>   28.9406    0.0000 </r>
       <r>   29.6412    0.0000 </r>
       <r>   31.6845    0.0000 </r>
       <r>   33.1279    0.0000 </r>
       <r>   34.1917    0.0000 </r>
       <r>   36.4183    0.0000 </r>
       <r>   37.6767    0.0000 </r>
      </set>
      <set comment="kpoint 31">
       <r>    0.3877    1.0000 </r>
       <r>    3.0011    1.0000 </r>
       <r>    3.0011    1.0000 </r>
       <r>    3.2536    1.0000 </r>
       <r>    3.7541    1.0000 </r>
       <r>    3.7756    1.0000 </r>
       <r>    3.7756    1.0000 </r>
       <r>    4.9760    1.0000 </r>
       <r>    5.6464    1.0000 </r>
       <r>    5.6464    1.0000 </r>
       <r>    5.7946    1.0000 </r>
       <r>    5.9494    1.0000 </r>
       <r>    6.1354    1.0000 </r>
       <r>    6.9506    1.0034 </r>
       <r>    7.2854    0.9056 </r>
       <r>    7.3835    0.5661 </r>
       <r>    7.3835    0.5661 </r>
       <r>    7.7504   -0.0162 </r>
       <r>    8.3002   -0.0000 </r>
       <r>    8.3002   -0.0000 </r>
       <r>    8.3645   -0.0000 </r>
       <r>   10.8418   -0.0000 </r>
       <r>   10.8418   -0.0000 </r>
       <r>   14.6170    0.0000 </r>
       <r>   16.7459    0.0000 </r>
       <r>   20.9780    0.0000 </r>
       <r>   20.9780    0.0000 </r>
       <r>   21.3315    0.0000 </r>
       <r>   24.2656    0.0000 </r>
       <r>   24.2656    0.0000 </r>
       <r>   25.8225    0.0000 </r>
       <r>   25.8225    0.0000 </r>
       <r>   26.4584    0.0000 </r>
       <r>   27.7149    0.0000 </r>
       <r>   29.9306    0.0000 </r>
       <r>   31.6665    0.0000 </r>
       <r>   33.8656    0.0000 </r>
       <r>   33.8656    0.0000 </r>
       <r>   35.5471    0.0000 </r>
       <r>   38.4618    0.0000 </r>
      </set>
      <set comment="kpoint 32">
       <r>    1.0433    1.0000 </r>
       <r>    2.8793    1.0000 </r>
       <r>    3.3930    1.0000 </r>
       <r>    3.5620    1.0000 </r>
       <r>    3.9223    1.0000 </r>
       <r>    4.0257    1.0000 </r>
       <r>    4.0547    1.0000 </r>
       <r>    4.8012    1.0000 </r>
       <r>    5.1052    1.0000 </r>
       <r>    5.3996    1.0000 </r>
       <r>    5.4049    1.0000 </r>
       <r>    5.8466    1.0000 </r>
       <r>    6.2661    1.0000 </r>
       <r>    6.9828    1.0061 </r>
       <r>    7.0523    1.0171 </r>
       <r>    7.0625    1.0193 </r>
       <r>    7.1638    1.0351 </r>
       <r>    8.0138   -0.0001 </r>
       <r>    8.0774   -0.0000 </r>
       <r>    8.2010   -0.0000 </r>
       <r>    8.2437   -0.0000 </r>
       <r>    9.7711   -0.0000 </r>
       <r>   11.7298   -0.0000 </r>
       <r>   14.4746    0.0000 </r>
       <r>   16.5790    0.0000 </r>
       <r>   19.7006    0.0000 </r>
       <r>   21.6894    0.0000 </r>
       <r>   21.8728    0.0000 </r>
       <r>   23.6629    0.0000 </r>
       <r>   25.1744    0.0000 </r>
       <r>   25.5099    0.0000 </r>
       <r>   25.8819    0.0000 </r>
       <r>   27.8172    0.0000 </r>
       <r>   27.8444    0.0000 </r>
       <r>   28.7629    0.0000 </r>
       <r>   32.7468    0.0000 </r>
       <r>   34.3127    0.0000 </r>
       <r>   34.6442    0.0000 </r>
       <r>   35.9396    0.0000 </r>
       <r>   37.0546    0.0000 </r>
      </set>
      <set comment="kpoint 33">
       <r>    1.7691    1.0000 </r>
       <r>    2.4391    1.0000 </r>
       <r>    3.7485    1.0000 </r>
       <r>    3.8930    1.0000 </r>
       <r>    3.9621    1.0000 </r>
       <r>    4.1721    1.0000 </r>
       <r>    4.3015    1.0000 </r>
       <r>    4.5674    1.0000 </r>
       <r>    4.8439    1.0000 </r>
       <r>    5.0444    1.0000 </r>
       <r>    5.4162    1.0000 </r>
       <r>    5.6281    1.0000 </r>
       <r>    6.4623    1.0000 </r>
       <r>    6.7364    1.0000 </r>
       <r>    6.9122    1.0015 </r>
       <r>    6.9619    1.0042 </r>
       <r>    7.2359    0.9942 </r>
       <r>    7.6289   -0.0345 </r>
       <r>    8.1574   -0.0000 </r>
       <r>    8.1718   -0.0000 </r>
       <r>    8.4827   -0.0000 </r>
       <r>    9.0093   -0.0000 </r>
       <r>   12.6397   -0.0000 </r>
       <r>   13.5822    0.0000 </r>
       <r>   17.4271    0.0000 </r>
       <r>   18.5147    0.0000 </r>
       <r>   22.2087    0.0000 </r>
       <r>   22.8799    0.0000 </r>
       <r>   22.8903    0.0000 </r>
       <r>   23.9831    0.0000 </r>
       <r>   26.3924    0.0000 </r>
       <r>   26.5725    0.0000 </r>
       <r>   27.1281    0.0000 </r>
       <r>   27.6469    0.0000 </r>
       <r>   30.1989    0.0000 </r>
       <r>   32.5915    0.0000 </r>
       <r>   34.9234    0.0000 </r>
       <r>   34.9601    0.0000 </r>
       <r>   35.8564    0.0000 </r>
       <r>   36.9459    0.0000 </r>
      </set>
      <set comment="kpoint 34">
       <r>    1.6235    1.0000 </r>
       <r>    3.2503    1.0000 </r>
       <r>    3.2503    1.0000 </r>
       <r>    3.6967    1.0000 </r>
       <r>    4.0956    1.0000 </r>
       <r>    4.2916    1.0000 </r>
       <r>    4.2916    1.0000 </r>
       <r>    4.7679    1.0000 </r>
       <r>    5.0167    1.0000 </r>
       <r>    5.0167    1.0000 </r>
       <r>    5.2444    1.0000 </r>
       <r>    5.7047    1.0000 </r>
       <r>    6.2819    1.0000 </r>
       <r>    6.8320    1.0002 </r>
       <r>    6.8907    1.0010 </r>
       <r>    6.8907    1.0010 </r>
       <r>    6.9927    1.0072 </r>
       <r>    7.8901   -0.0014 </r>
       <r>    7.8901   -0.0014 </r>
       <r>    8.0478   -0.0000 </r>
       <r>    8.5044   -0.0000 </r>
       <r>   10.5525   -0.0000 </r>
       <r>   10.5525   -0.0000 </r>
       <r>   13.3586    0.0000 </r>
       <r>   17.2911    0.0000 </r>
       <r>   20.5684    0.0000 </r>
       <r>   20.5684    0.0000 </r>
       <r>   22.1487    0.0000 </r>
       <r>   23.8580    0.0000 </r>
       <r>   24.5165    0.0000 </r>
       <r>   24.5165    0.0000 </r>
       <r>   27.5476    0.0000 </r>
       <r>   28.2423    0.0000 </r>
       <r>   28.2423    0.0000 </r>
       <r>   29.8546    0.0000 </r>
       <r>   31.9385    0.0000 </r>
       <r>   34.9046    0.0000 </r>
       <r>   36.2530    0.0000 </r>
       <r>   36.2530    0.0000 </r>
       <r>   37.3573    0.0000 </r>
      </set>
      <set comment="kpoint 35">
       <r>    2.2528    1.0000 </r>
       <r>    2.8347    1.0000 </r>
       <r>    3.5514    1.0000 </r>
       <r>    3.7018    1.0000 </r>
       <r>    4.3098    1.0000 </r>
       <r>    4.4527    1.0000 </r>
       <r>    4.5213    1.0000 </r>
       <r>    4.6763    1.0000 </r>
       <r>    4.8646    1.0000 </r>
       <r>    5.0444    1.0000 </r>
       <r>    5.1697    1.0000 </r>
       <r>    5.4613    1.0000 </r>
       <r>    6.3794    1.0000 </r>
       <r>    6.6007    1.0000 </r>
       <r>    6.6931    1.0000 </r>
       <r>    6.7265    1.0000 </r>
       <r>    7.1881    1.0299 </r>
       <r>    7.5252    0.0669 </r>
       <r>    7.8492   -0.0033 </r>
       <r>    7.9050   -0.0010 </r>
       <r>    9.0197   -0.0000 </r>
       <r>    9.6700   -0.0000 </r>
[...]
       <r>    8.3649   -0.0000 </r>
       <r>    8.4503   -0.0000 </r>
       <r>    8.4503   -0.0000 </r>
       <r>    8.4774   -0.0000 </r>
       <r>    9.2119   -0.0000 </r>
       <r>   10.3882   -0.0000 </r>
       <r>   10.3882   -0.0000 </r>
       <r>   16.3652    0.0000 </r>
       <r>   16.3652    0.0000 </r>
       <r>   17.5130    0.0000 </r>
       <r>   18.4108    0.0000 </r>
       <r>   28.3165    0.0000 </r>
       <r>   28.3165    0.0000 </r>
       <r>   29.2727    0.0000 </r>
       <r>   29.9764    0.0000 </r>
       <r>   31.5941    0.0000 </r>
       <r>   31.5941    0.0000 </r>
       <r>   32.7736    0.0000 </r>
       <r>   33.8913    0.0000 </r>
       <r>   33.8913    0.0000 </r>
       <r>   34.0840    0.0000 </r>
       <r>   34.0930    0.0000 </r>
       <r>   35.9366    0.0000 </r>
      </set>
      <set comment="kpoint 55">
       <r>    2.2678    1.0000 </r>
       <r>    2.4230    1.0000 </r>
       <r>    2.4230    1.0000 </r>
       <r>    2.4952    1.0000 </r>
       <r>    5.3009    1.0000 </r>
       <r>    5.3770    1.0000 </r>
       <r>    5.3770    1.0000 </r>
       <r>    5.5517    1.0000 </r>
       <r>    5.6381    1.0000 </r>
       <r>    5.7040    1.0000 </r>
       <r>    5.7040    1.0000 </r>
       <r>    5.7251    1.0000 </r>
       <r>    6.5935    1.0000 </r>
       <r>    6.5935    1.0000 </r>
       <r>    6.6016    1.0000 </r>
       <r>    6.6594    1.0000 </r>
       <r>    8.2625   -0.0000 </r>
       <r>    8.4087   -0.0000 </r>
       <r>    8.4087   -0.0000 </r>
       <r>    8.4164   -0.0000 </r>
       <r>    8.7343   -0.0000 </r>
       <r>    9.4047   -0.0000 </r>
       <r>    9.4047   -0.0000 </r>
       <r>    9.8253   -0.0000 </r>
       <r>   16.3536    0.0000 </r>
       <r>   16.7579    0.0000 </r>
       <r>   16.7579    0.0000 </r>
       <r>   17.4566    0.0000 </r>
       <r>   28.8713    0.0000 </r>
       <r>   29.2071    0.0000 </r>
       <r>   29.2071    0.0000 </r>
       <r>   29.7140    0.0000 </r>
       <r>   33.1201    0.0000 </r>
       <r>   33.1201    0.0000 </r>
       <r>   33.2076    0.0000 </r>
       <r>   33.7393    0.0000 </r>
       <r>   34.1645    0.0000 </r>
       <r>   34.6145    0.0000 </r>
       <r>   34.6145    0.0000 </r>
       <r>   35.8160    0.0000 </r>
      </set>
      <set comment="kpoint 56">
       <r>    2.2417    1.0000 </r>
       <r>    2.3171    1.0000 </r>
       <r>    2.3171    1.0000 </r>
       <r>    2.3171    1.0000 </r>
       <r>    5.4828    1.0000 </r>
       <r>    5.4828    1.0000 </r>
       <r>    5.4828    1.0000 </r>
       <r>    5.5675    1.0000 </r>
       <r>    5.5675    1.0000 </r>
       <r>    5.5974    1.0000 </r>
       <r>    5.5974    1.0000 </r>
       <r>    5.5974    1.0000 </r>
       <r>    7.1649    1.0350 </r>
       <r>    7.1649    1.0350 </r>
       <r>    7.1649    1.0350 </r>
       <r>    7.3268    0.7850 </r>
       <r>    8.4346   -0.0000 </r>
       <r>    8.4346   -0.0000 </r>
       <r>    8.4875   -0.0000 </r>
       <r>    8.4875   -0.0000 </r>
       <r>    8.4875   -0.0000 </r>
       <r>    8.9583   -0.0000 </r>
       <r>    8.9583   -0.0000 </r>
       <r>    8.9583   -0.0000 </r>
       <r>   16.3406    0.0000 </r>
       <r>   16.3406    0.0000 </r>
       <r>   16.3406    0.0000 </r>
       <r>   16.7257    0.0000 </r>
       <r>   29.5572    0.0000 </r>
       <r>   29.5572    0.0000 </r>
       <r>   29.5572    0.0000 </r>
       <r>   29.7992    0.0000 </r>
       <r>   34.5872    0.0000 </r>
       <r>   34.5872    0.0000 </r>
       <r>   34.5872    0.0000 </r>
       <r>   34.6762    0.0000 </r>
       <r>   34.6762    0.0000 </r>
       <r>   34.6762    0.0000 </r>
       <r>   35.4745    0.0000 </r>
       <r>   35.4745    0.0000 </r>
      </set>
     </set>
    </set>
   </array>
  </eigenvalues>
  <separator name="orbital magnetization" >
   <v name="MAGDIPOLOUT">      0.00000000      0.00000000      0.00000000</v>
  </separator>
  <dos>
   <i name="efermi">      7.39917974 </i>
   <total>
    <array>
     <dimension dim="1">gridpoints</dimension>
     <dimension dim="2">spin</dimension>
     <field>energy</field>
     <field>total</field>
     <field>integrated</field>
     <set>
      <set comment="spin 1">
       <r>    -3.7631     0.0000     0.0000 </r>
       <r>    -3.6140     0.0000     0.0000 </r>
       <r>    -3.4648    -0.0000    -0.0000 </r>
       <r>    -3.3157    -0.0000    -0.0000 </r>
       <r>    -3.1666    -0.0000    -0.0000 </r>
       <r>    -3.0175    -0.0000    -0.0000 </r>
       <r>    -2.8683    -0.0000    -0.0000 </r>
       <r>    -2.7192    -0.0000    -0.0000 </r>
       <r>    -2.5701    -0.0000    -0.0000 </r>
       <r>    -2.4209    -0.0000    -0.0000 </r>
       <r>    -2.2718    -0.0000    -0.0000 </r>
       <r>    -2.1227    -0.0001    -0.0000 </r>
       <r>    -1.9736    -0.0012    -0.0002 </r>
       <r>    -1.8244    -0.0016    -0.0004 </r>
       <r>    -1.6753     0.0192     0.0024 </r>
       <r>    -1.5262     0.0795     0.0143 </r>
       <r>    -1.3770     0.1122     0.0310 </r>
       <r>    -1.2279     0.1217     0.0492 </r>
       <r>    -1.0788     0.2234     0.0825 </r>
       <r>    -0.9297     0.2141     0.1144 </r>
       <r>    -0.7805     0.1368     0.1348 </r>
       <r>    -0.6314     0.2670     0.1746 </r>
       <r>    -0.4823     0.3348     0.2246 </r>
       <r>    -0.3331     0.2603     0.2634 </r>
       <r>    -0.1840     0.3216     0.3113 </r>
       <r>    -0.0349     0.3498     0.3635 </r>
       <r>     0.1142     0.2477     0.4004 </r>
       <r>     0.2634     0.4332     0.4650 </r>
       <r>     0.4125     0.4828     0.5370 </r>
       <r>     0.5616     0.5140     0.6137 </r>
       <r>     0.7108     0.4491     0.6807 </r>
       <r>     0.8599     0.2696     0.7209 </r>
       <r>     1.0090     0.5868     0.8084 </r>
       <r>     1.1581     0.7998     0.9277 </r>
       <r>     1.3073     0.6742     1.0282 </r>
       <r>     1.4564     0.5563     1.1112 </r>
       <r>     1.6055     0.5938     1.1997 </r>
       <r>     1.7547     1.0351     1.3541 </r>
       <r>     1.9038     1.1210     1.5212 </r>
       <r>     2.0529     0.9011     1.6556 </r>
       <r>     2.2020     1.9166     1.9415 </r>
       <r>     2.3512     3.2178     2.4213 </r>
       <r>     2.5003     3.8364     2.9934 </r>
       <r>     2.6494     3.6850     3.5430 </r>
       <r>     2.7986     3.6535     4.0878 </r>
       <r>     2.9477     4.6198     4.7768 </r>
       <r>     3.0968     4.7477     5.4848 </r>
       <r>     3.2459     5.2463     6.2672 </r>
       <r>     3.3951     6.1000     7.1768 </r>
       <r>     3.5442     5.8519     8.0495 </r>
       <r>     3.6933     5.3081     8.8411 </r>
       <r>     3.8425     5.2662     9.6265 </r>
       <r>     3.9916     5.3528    10.4247 </r>
       <r>     4.1407     4.8800    11.1525 </r>
       <r>     4.2898     4.6975    11.8530 </r>
       <r>     4.4390     4.5712    12.5347 </r>
       <r>     4.5881     4.5088    13.2071 </r>
       <r>     4.7372     4.4047    13.8639 </r>
       <r>     4.8864     5.9314    14.7485 </r>
       <r>     5.0355     6.6885    15.7459 </r>
       <r>     5.1846     5.8843    16.6234 </r>
       <r>     5.3337     5.9643    17.5129 </r>
       <r>     5.4829     7.7963    18.6755 </r>
       <r>     5.6320     8.0936    19.8825 </r>
       <r>     5.7811     7.8510    21.0533 </r>
       <r>     5.9303     8.7857    22.3635 </r>
       <r>     6.0794     8.7826    23.6733 </r>
       <r>     6.2285     6.9234    24.7057 </r>
       <r>     6.3776     5.9212    25.5888 </r>
       <r>     6.5268     5.2091    26.3656 </r>
       <r>     6.6759     5.0345    27.1164 </r>
       <r>     6.8250     5.8208    27.9844 </r>
       <r>     6.9742     6.4228    28.9423 </r>
       <r>     7.1233     7.1232    30.0045 </r>
       <r>     7.2724     7.7539    31.1609 </r>
       <r>     7.4215     6.4950    32.1295 </r>
       <r>     7.5707     5.6643    32.9742 </r>
       <r>     7.7198     6.2882    33.9119 </r>
       <r>     7.8689     5.9217    34.7950 </r>
       <r>     8.0181     5.9438    35.6814 </r>
       <r>     8.1672     7.2722    36.7659 </r>
       <r>     8.3163     8.8335    38.0833 </r>
       <r>     8.4655    11.6851    39.8258 </r>
       <r>     8.6146     9.4484    41.2349 </r>
       <r>     8.7637     4.4685    41.9013 </r>
       <r>     8.9128     2.0516    42.2072 </r>
       <r>     9.0620     1.8400    42.4816 </r>
       <r>     9.2111     1.3015    42.6757 </r>
       <r>     9.3602     0.8950    42.8092 </r>
       <r>     9.5094     0.8062    42.9294 </r>
       <r>     9.6585     0.9182    43.0663 </r>
       <r>     9.8076     1.5255    43.2938 </r>
       <r>     9.9567     1.4923    43.5164 </r>
       <r>    10.1059     0.6642    43.6154 </r>
       <r>    10.2550     0.4683    43.6853 </r>
       <r>    10.4041     1.3684    43.8893 </r>
       <r>    10.5533     1.8362    44.1632 </r>
       <r>    10.7024     0.8838    44.2950 </r>
       <r>    10.8515     0.6223    44.3878 </r>
       <r>    11.0006     0.9609    44.5311 </r>
       <r>    11.1498     0.9435    44.6718 </r>
       <r>    11.2989     1.2084    44.8520 </r>
       <r>    11.4480     1.2588    45.0397 </r>
       <r>    11.5972     0.6055    45.1300 </r>
       <r>    11.7463     0.8079    45.2505 </r>
       <r>    11.8954     1.1926    45.4283 </r>
       <r>    12.0445     1.0439    45.5840 </r>
       <r>    12.1937     0.9618    45.7274 </r>
       <r>    12.3428     0.8352    45.8520 </r>
       <r>    12.4919     0.8752    45.9825 </r>
       <r>    12.6411     0.9673    46.1268 </r>
       <r>    12.7902     0.6204    46.2193 </r>
       <r>    12.9393     0.3609    46.2731 </r>
       <r>    13.0884     0.7656    46.3873 </r>
       <r>    13.2376     1.1037    46.5519 </r>
       <r>    13.3867     1.0882    46.7141 </r>
       <r>    13.5358     0.8524    46.8412 </r>
       <r>    13.6850     0.5377    46.9214 </r>
       <r>    13.8341     0.3500    46.9736 </r>
       <r>    13.9832     0.6114    47.0648 </r>
       <r>    14.1323     0.8453    47.1909 </r>
       <r>    14.2815     0.4460    47.2574 </r>
       <r>    14.4306     0.2732    47.2981 </r>
       <r>    14.5797     0.6262    47.3915 </r>
       <r>    14.7289     0.6163    47.4834 </r>
       <r>    14.8780     0.5984    47.5727 </r>
       <r>    15.0271     0.6202    47.6652 </r>
       <r>    15.1762     0.3263    47.7138 </r>
       <r>    15.3254     0.2197    47.7466 </r>
       <r>    15.4745     0.1624    47.7708 </r>
       <r>    15.6236     0.2192    47.8035 </r>
       <r>    15.7728     0.4722    47.8739 </r>
       <r>    15.9219     0.2831    47.9161 </r>
       <r>    16.0710     0.1061    47.9319 </r>
       <r>    16.2201     0.1742    47.9579 </r>
       <r>    16.3693     0.9361    48.0975 </r>
       <r>    16.5184     1.7514    48.3587 </r>
       <r>    16.6675     1.5851    48.5951 </r>
       <r>    16.8167     1.7149    48.8508 </r>
       <r>    16.9658     1.9378    49.1398 </r>
       <r>    17.1149     1.1599    49.3128 </r>
       <r>    17.2640     0.7650    49.4269 </r>
       <r>    17.4132     1.2060    49.6067 </r>
       <r>    17.5623     1.2848    49.7983 </r>
       <r>    17.7114     0.9162    49.9349 </r>
       <r>    17.8606     0.8397    50.0602 </r>
       <r>    18.0097     1.0255    50.2131 </r>
       <r>    18.1588     1.0644    50.3718 </r>
       <r>    18.3079     0.9647    50.5157 </r>
       <r>    18.4571     0.9782    50.6616 </r>
       <r>    18.6062     1.0839    50.8232 </r>
       <r>    18.7553     0.8045    50.9432 </r>
       <r>    18.9045     0.8233    51.0660 </r>
       <r>    19.0536     0.8511    51.1929 </r>
       <r>    19.2027     0.6165    51.2848 </r>
       <r>    19.3518     0.7824    51.4015 </r>
       <r>    19.5010     0.9902    51.5492 </r>
       <r>    19.6501     1.3792    51.7548 </r>
       <r>    19.7992     1.4003    51.9637 </r>
       <r>    19.9484     0.8201    52.0860 </r>
       <r>    20.0975     0.4507    52.1532 </r>
       <r>    20.2466     1.1563    52.3256 </r>
       <r>    20.3957     2.2707    52.6642 </r>
       <r>    20.5449     1.8987    52.9474 </r>
       <r>    20.6940     0.8890    53.0800 </r>
       <r>    20.8431     0.6295    53.1738 </r>
       <r>    20.9923     1.3286    53.3720 </r>
       <r>    21.1414     2.2212    53.7032 </r>
       <r>    21.2905     1.7273    53.9608 </r>
       <r>    21.4396     1.2951    54.1539 </r>
       <r>    21.5888     1.4121    54.3645 </r>
       <r>    21.7379     1.6553    54.6114 </r>
       <r>    21.8870     1.4284    54.8244 </r>
       <r>    22.0362     1.0389    54.9793 </r>
       <r>    22.1853     1.1474    55.1504 </r>
       <r>    22.3344     1.6608    55.3981 </r>
       <r>    22.4835     1.4376    55.6125 </r>
       <r>    22.6327     1.7381    55.8717 </r>
       <r>    22.7818     2.0196    56.1729 </r>
       <r>    22.9309     2.0051    56.4719 </r>
       <r>    23.0801     1.4365    56.6861 </r>
       <r>    23.2292     0.9308    56.8249 </r>
       <r>    23.3783     1.0896    56.9874 </r>
       <r>    23.5274     1.9541    57.2788 </r>
       <r>    23.6766     2.1369    57.5975 </r>
       <r>    23.8257     1.2311    57.7811 </r>
       <r>    23.9748     1.4053    57.9906 </r>
       <r>    24.1240     1.9718    58.2847 </r>
       <r>    24.2731     2.1401    58.6038 </r>
       <r>    24.4222     1.6182    58.8452 </r>
       <r>    24.5714     1.3451    59.0458 </r>
       <r>    24.7205     1.9289    59.3334 </r>
       <r>    24.8696     2.5253    59.7100 </r>
       <r>    25.0187     1.7055    59.9643 </r>
       <r>    25.1679     0.7882    60.0819 </r>
       <r>    25.3170     1.3105    60.2773 </r>
       <r>    25.4661     2.5252    60.6539 </r>
       <r>    25.6153     2.0859    60.9650 </r>
       <r>    25.7644     1.1851    61.1417 </r>
       <r>    25.9135     1.4884    61.3637 </r>
       <r>    26.0626     1.7483    61.6244 </r>
       <r>    26.2118     1.5507    61.8556 </r>
       <r>    26.3609     2.0710    62.1645 </r>
       <r>    26.5100     2.0632    62.4722 </r>
       <r>    26.6592     1.5613    62.7050 </r>
       <r>    26.8083     1.3173    62.9015 </r>
       <r>    26.9574     1.1725    63.0763 </r>
       <r>    27.1065     0.9119    63.2123 </r>
       <r>    27.2557     1.4207    63.4242 </r>
       <r>    27.4048     2.1433    63.7438 </r>
       <r>    27.5539     1.9473    64.0342 </r>
       <r>    27.7031     1.8949    64.3168 </r>
       <r>    27.8522     1.6641    64.5649 </r>
       <r>    28.0013     0.9063    64.7001 </r>
       <r>    28.1504     1.2974    64.8936 </r>
       <r>    28.2996     2.0373    65.1974 </r>
       <r>    28.4487     1.2242    65.3800 </r>
       <r>    28.5978     0.9067    65.5152 </r>
       <r>    28.7470     1.7695    65.7790 </r>
       <r>    28.8961     2.1974    66.1067 </r>
       <r>    29.0452     1.6962    66.3597 </r>
       <r>    29.1943     1.2050    66.5394 </r>
       <r>    29.3435     1.1480    66.7106 </r>
       <r>    29.4926     0.6665    66.8100 </r>
       <r>    29.6417     1.0908    66.9727 </r>
       <r>    29.7909     1.4112    67.1831 </r>
       <r>    29.9400     1.7023    67.4370 </r>
       <r>    30.0891     2.5412    67.8159 </r>
       <r>    30.2382     1.9942    68.1133 </r>
       <r>    30.3874     1.1379    68.2830 </r>
       <r>    30.5365     1.0877    68.4452 </r>
       <r>    30.6856     1.1920    68.6230 </r>
       <r>    30.8348     1.3675    68.8269 </r>
       <r>    30.9839     1.3435    69.0273 </r>
       <r>    31.1330     1.3415    69.2273 </r>
       <r>    31.2821     0.9595    69.3704 </r>
       <r>    31.4313     0.9164    69.5071 </r>
       <r>    31.5804     1.8271    69.7796 </r>
       <r>    31.7295     2.5560    70.1608 </r>
       <r>    31.8787     1.9208    70.4472 </r>
       <r>    32.0278     1.7322    70.7055 </r>
       <r>    32.1769     1.9734    70.9998 </r>
       <r>    32.3260     1.7446    71.2600 </r>
       <r>    32.4752     1.7568    71.5220 </r>
       <r>    32.6243     1.8719    71.8011 </r>
       <r>    32.7734     1.6539    72.0478 </r>
       <r>    32.9226     1.3397    72.2476 </r>
       <r>    33.0717     1.8789    72.5277 </r>
       <r>    33.2208     2.4983    72.9003 </r>
       <r>    33.3699     2.0774    73.2101 </r>
       <r>    33.5191     2.0374    73.5139 </r>
       <r>    33.6682     1.9285    73.8015 </r>
       <r>    33.8173     1.0893    73.9640 </r>
       <r>    33.9665     1.2730    74.1538 </r>
       <r>    34.1156     1.9223    74.4405 </r>
       <r>    34.2647     2.1812    74.7658 </r>
       <r>    34.4138     1.7206    75.0223 </r>
       <r>    34.5630     1.8028    75.2912 </r>
       <r>    34.7121     2.5022    75.6643 </r>
       <r>    34.8612     2.6301    76.0566 </r>
       <r>    35.0104     2.1316    76.3745 </r>
       <r>    35.1595     1.2646    76.5630 </r>
       <r>    35.3086     0.9405    76.7033 </r>
       <r>    35.4577     1.6182    76.9446 </r>
       <r>    35.6069     1.9869    77.2409 </r>
       <r>    35.7560     1.6515    77.4872 </r>
       <r>    35.9051     1.7801    77.7527 </r>
       <r>    36.0543     1.6133    77.9933 </r>
       <r>    36.2034     1.3743    78.1982 </r>
       <r>    36.3525     1.4767    78.4185 </r>
       <r>    36.5016     1.2763    78.6088 </r>
       <r>    36.6508     1.0371    78.7634 </r>
       <r>    36.7999     0.8420    78.8890 </r>
       <r>    36.9490     0.7154    78.9957 </r>
       <r>    37.0982     0.5048    79.0710 </r>
       <r>    37.2473     0.4983    79.1453 </r>
       <r>    37.3964     1.0100    79.2959 </r>
       <r>    37.5455     1.1913    79.4736 </r>
       <r>    37.6947     1.1615    79.6468 </r>
       <r>    37.8438     0.9235    79.7845 </r>
       <r>    37.9929     0.5714    79.8697 </r>
       <r>    38.1421     0.2473    79.9066 </r>
       <r>    38.2912     0.0866    79.9195 </r>
       <r>    38.4403     0.0990    79.9343 </r>
       <r>    38.5894     0.1300    79.9537 </r>
       <r>    38.7386     0.0550    79.9619 </r>
       <r>    38.8877     0.0846    79.9745 </r>
       <r>    39.0368     0.1372    79.9949 </r>
       <r>    39.1860     0.0426    80.0013 </r>
       <r>    39.3351    -0.0065    80.0003 </r>
       <r>    39.4842    -0.0021    80.0000 </r>
       <r>    39.6333    -0.0001    80.0000 </r>
       <r>    39.7825    -0.0000    80.0000 </r>
       <r>    39.9316    -0.0000    80.0000 </r>
       <r>    40.0807    -0.0000    80.0000 </r>
       <r>    40.2299    -0.0000    80.0000 </r>
       <r>    40.3790     0.0000    80.0000 </r>
       <r>    40.5281     0.0000    80.0000 </r>
       <r>    40.6773     0.0000    80.0000 </r>
       <r>    40.8264     0.0000    80.0000 </r>
       <r>    40.9755     0.0000    80.0000 </r>
      </set>
     </set>
    </array>
   </total>
  </dos>
 </calculation>
 <structure name="finalpos" >
  <crystal>
   <varray name="basis" >
    <v>       3.38668048       0.00000000       0.00000000 </v>
    <v>       0.00000000       3.38668048       0.00000000 </v>
    <v>       0.00000000       0.00000000       3.38668048 </v>
   </varray>
   <i name="volume">     38.84388627 </i>
   <varray name="rec_basis" >
    <v>       0.29527439       0.00000000       0.00000000 </v>
    <v>       0.00000000       0.29527439       0.00000000 </v>
    <v>       0.00000000       0.00000000       0.29527439 </v>
   </varray>
  </crystal>
  <varray name="positions" >
   <v>       0.00000000       0.00000000       0.00000000 </v>
   <v>       0.50000000       0.50000000       0.00000000 </v>
   <v>       0.50000000       0.00000000       0.50000000 </v>
   <v>       0.00000000       0.50000000       0.50000000 </v>
  </varray>
 </structure>
</modeling>
