unknown system                          
   1.00000000000000     
     3.635000    0.000000    0.000000
     0.000000    3.635000    0.000000
     0.000000    0.000000    3.635000
   Cu
     4
Direct
  0.000000  0.000000  0.000000
  0.500000  0.500000  0.000000
  0.500000  0.000000  0.500000
  0.000000  0.500000  0.500000
 
   24   24   24
  803.64      724.22      527.25      305.47      139.76      56.707      29.779      16.176      8.1352      6.8528    
  7.0050      5.3915      4.1586      5.3915      7.0050      6.8528      8.1352      16.176      29.779      56.707    
  139.76      305.47      527.25      724.22      724.22      652.05      473.42      273.22      124.98      51.925    
  28.314      15.332      8.0050      7.1043      7.5712      6.3921      5.3915      6.3921      7.5712      7.1043    
  8.0050      15.332      28.314      51.925      124.98      273.22      473.42      652.05      527.25      473.42    
  341.06      194.98      90.057      41.026      24.469      13.230      7.6177      7.2844      8.0515      7.5712    
  7.0050      7.5712      8.0515      7.2844      7.6177      13.230      24.469      41.026      90.057      194.98    
  341.06      473.42      305.47      273.22      194.98      111.35      54.846      30.435      19.191      10.780    
  7.1004      6.8480      7.2844      7.1043      6.8528      7.1043      7.2844      6.8480      7.1004      10.780    
  19.191      30.435      54.846      111.35      194.98      273.22      139.76      124.98      90.057      54.846    
  33.031      22.185      13.844      8.8162      7.0560      7.1004      7.6177      8.0050      8.1352      8.0050    
  7.6177      7.1004      7.0560      8.8162      13.844      22.185      33.031      54.846      90.057      124.98    
  56.707      51.925      41.026      30.435      22.185      14.773      9.8871      8.1613      8.8162      10.780    
  13.230      15.332      16.176      15.332      13.230      10.780      8.8162      8.1613      9.8871      14.773    
  22.185      30.435      41.026      51.925      29.779      28.314      24.469      19.191      13.844      9.8871    
  8.4294      9.8871      13.844      19.191      24.469      28.314      29.779      28.314      24.469      19.191    
  13.844      9.8871      8.4294      9.8871      13.844      19.191      24.469      28.314      16.176      15.332    
  13.230      10.780      8.8162      8.1613      9.8871      14.773      22.185      30.435      41.026      51.925    
  56.707      51.925      41.026      30.435      22.185      14.773      9.8871      8.1613      8.8162      10.780    
  13.230      15.332      8.1352      8.0050      7.6177      7.1004      7.0560      8.8162      13.844      22.185    
  33.031      54.846      90.057      124.98      139.76      124.98      90.057      54.846      33.031      22.185    
  13.844      8.8162      7.0560      7.1004      7.6177      8.0050      6.8528      7.1043      7.2844      6.8480    
  7.1004      10.780      19.191      30.435      54.846      111.35      194.98      273.22      305.47      273.22    
  194.98      111.35      54.846      30.435      19.191      10.780      7.1004      6.8480      7.2844      7.1043    
  7.0050      7.5712      8.0515      7.2844      7.6177      13.230      24.469      41.026      90.057      194.98    
  341.06      473.42      527.25      473.42      341.06      194.98      90.057      41.026      24.469      13.230    
  7.6177      7.2844      8.0515      7.5712      5.3915      6.3921      7.5712      7.1043      8.0050      15.332    
  28.314      51.925      124.98      273.22      473.42      652.05      724.22      652.05      473.42      273.22    
  124.98      51.925      28.314      15.332      8.0050      7.1043      7.5712      6.3921      4.1586      5.3915    
  7.0050      6.8528      8.1352      16.176      29.779      56.707      139.76      305.47      527.25      724.22    
  803.64      724.22      527.25      305.47      139.76      56.707      29.779      16.176      8.1352      6.8528    
  7.0050      5.3915      5.3915      6.3921      7.5712      7.1043      8.0050      15.332      28.314      51.925    
  124.98      273.22      473.42      652.05      724.22      652.05      473.42      273.22      124.98      51.925    
  28.314      15.332      8.0050      7.1043      7.5712      6.3921      7.0050      7.5712      8.0515      7.2844    
  7.6177      13.230      24.469      41.026      90.057      194.98      341.06      473.42      527.25      473.42    
  341.06      194.98      90.057      41.026      24.469      13.230      7.6177      7.2844      8.0515      7.5712    
  6.8528      7.1043      7.2844      6.8480      7.1004      10.780      19.191      30.435      54.846      111.35    
  194.98      273.22      305.47      273.22      194.98      111.35      54.846      30.435      19.191      10.780    
  7.1004      6.8480      7.2844      7.1043      8.1352      8.0050      7.6177      7.1004      7.0560      8.8162    
  13.844      22.185      33.031      54.846      90.057      124.98      139.76      124.98      90.057      54.846    
  33.031      22.185      13.844      8.8162      7.0560      7.1004      7.6177      8.0050      16.176      15.332    
  13.230      10.780      8.8162      8.1613      9.8871      14.773      22.185      30.435      41.026      51.925    
  56.707      51.925      41.026      30.435      22.185      14.773      9.8871      8.1613      8.8162      10.780    
  13.230      15.332      29.779      28.314      24.469      19.191      13.844      9.8871      8.4294      9.8871    
  13.844      19.191      24.469      28.314      29.779      28.314      24.469      19.191      13.844      9.8871    
  8.4294      9.8871      13.844      19.191      24.469      28.314      56.707      51.925      41.026      30.435    
  22.185      14.773      9.8871      8.1613      8.8162      10.780      13.230      15.332      16.176      15.332    
  13.230      10.780      8.8162      8.1613      9.8871      14.773      22.185      30.435      41.026      51.925    
  139.76      124.98      90.057      54.846      33.031      22.185      13.844      8.8162      7.0560      7.1004    
  7.6177      8.0050      8.1352      8.0050      7.6177      7.1004      7.0560      8.8162      13.844      22.185    
  33.031      54.846      90.057      124.98      305.47      273.22      194.98      111.35      54.846      30.435    
  19.191      10.780      7.1004      6.8480      7.2844      7.1043      6.8528      7.1043      7.2844      6.8480    
  7.1004      10.780      19.191      30.435      54.846      111.35      194.98      273.22      527.25      473.42    
  341.06      194.98      90.057      41.026      24.469      13.230      7.6177      7.2844      8.0515      7.5712    
  7.0050      7.5712      8.0515      7.2844      7.6177      13.230      24.469      41.026      90.057      194.98    
  341.06      473.42      724.22      652.05      473.42      273.22      124.98      51.925      28.314      15.332    
  8.0050      7.1043      7.5712      6.3921      5.3915      6.3921      7.5712      7.1043      8.0050      15.332    
  28.314      51.925      124.98      273.22      473.42      652.05      724.22      652.05      473.42      273.22    
  124.98      51.925      28.314      15.332      8.0050      7.1043      7.5712      6.3921      5.3915      6.3921    
  7.5712      7.1043      8.0050      15.332      28.314      51.925      124.98      273.22      473.42      652.05    
  652.05      586.55      424.76      244.30      111.93      47.794      26.955      14.541      7.8602      7.2744    
  7.9943      7.1886      6.3921      7.1886      7.9943      7.2744      7.8602      14.541      26.955      47.794    
  111.93      244.30      424.76      586.55      473.42      424.76      305.39      174.34      81.213      38.395    
  23.305      12.592      7.4654      7.3171      8.2244      7.9943      7.5712      7.9943      8.2244      7.3171    
  7.4654      12.592      23.305      38.395      81.213      174.34      305.39      424.76      273.22      244.30    
  174.34      100.07      50.498      29.152      18.329      10.363      6.9886      6.8193      7.3171      7.2744    
  7.1043      7.2744      7.3171      6.8193      6.9886      10.363      18.329      29.152      50.498      100.07    
  174.34      244.30      124.98      111.93      81.213      50.498      31.549      21.398      13.361      8.6231    
  6.9738      6.9886      7.4654      7.8602      8.0050      7.8602      7.4654      6.9886      6.9738      8.6231    
  13.361      21.398      31.549      50.498      81.213      111.93      51.925      47.794      38.395      29.152    
  21.398      14.332      9.7297      8.0868      8.6231      10.363      12.592      14.541      15.332      14.541    
  12.592      10.363      8.6231      8.0868      9.7297      14.332      21.398      29.152      38.395      47.794    
  28.314      26.955      23.305      18.329      13.361      9.7297      8.4015      9.7297      13.361      18.329    
  23.305      26.955      28.314      26.955      23.305      18.329      13.361      9.7297      8.4015      9.7297    
  13.361      18.329      23.305      26.955      15.332      14.541      12.592      10.363      8.6231      8.0868    
  9.7297      14.332      21.398      29.152      38.395      47.794      51.925      47.794      38.395      29.152    
  21.398      14.332      9.7297      8.0868      8.6231      10.363      12.592      14.541      8.0050      7.8602    
  7.4654      6.9886      6.9738      8.6231      13.361      21.398      31.549      50.498      81.213      111.93    
  124.98      111.93      81.213      50.498      31.549      21.398      13.361      8.6231      6.9738      6.9886    
  7.4654      7.8602      7.1043      7.2744      7.3171      6.8193      6.9886      10.363      18.329      29.152    
  50.498      100.07      174.34      244.30      273.22      244.30      174.34      100.07      50.498      29.152    
  18.329      10.363      6.9886      6.8193      7.3171      7.2744      7.5712      7.9943      8.2244      7.3171    
  7.4654      12.592      23.305      38.395      81.213      174.34      305.39      424.76      473.42      424.76    
  305.39      174.34      81.213      38.395      23.305      12.592      7.4654      7.3171      8.2244      7.9943    
  6.3921      7.1886      7.9943      7.2744      7.8602      14.541      26.955      47.794      111.93      244.30    
  424.76      586.55      652.05      586.55      424.76      244.30      111.93      47.794      26.955      14.541    
  7.8602      7.2744      7.9943      7.1886      5.3915      6.3921      7.5712      7.1043      8.0050      15.332    
  28.314      51.925      124.98      273.22      473.42      652.05      724.22      652.05      473.42      273.22    
  124.98      51.925      28.314      15.332      8.0050      7.1043      7.5712      6.3921      6.3921      7.1886    
  7.9943      7.2744      7.8602      14.541      26.955      47.794      111.93      244.30      424.76      586.55    
  652.05      586.55      424.76      244.30      111.93      47.794      26.955      14.541      7.8602      7.2744    
  7.9943      7.1886      7.5712      7.9943      8.2244      7.3171      7.4654      12.592      23.305      38.395    
  81.213      174.34      305.39      424.76      473.42      424.76      305.39      174.34      81.213      38.395    
  23.305      12.592      7.4654      7.3171      8.2244      7.9943      7.1043      7.2744      7.3171      6.8193    
  6.9886      10.363      18.329      29.152      50.498      100.07      174.34      244.30      273.22      244.30    
  174.34      100.07      50.498      29.152      18.329      10.363      6.9886      6.8193      7.3171      7.2744    
  8.0050      7.8602      7.4654      6.9886      6.9738      8.6231      13.361      21.398      31.549      50.498    
  81.213      111.93      124.98      111.93      81.213      50.498      31.549      21.398      13.361      8.6231    
  6.9738      6.9886      7.4654      7.8602      15.332      14.541      12.592      10.363      8.6231      8.0868    
  9.7297      14.332      21.398      29.152      38.395      47.794      51.925      47.794      38.395      29.152    
  21.398      14.332      9.7297      8.0868      8.6231      10.363      12.592      14.541      28.314      26.955    
  23.305      18.329      13.361      9.7297      8.4015      9.7297      13.361      18.329      23.305      26.955    
  28.314      26.955      23.305      18.329      13.361      9.7297      8.4015      9.7297      13.361      18.329    
  23.305      26.955      51.925      47.794      38.395      29.152      21.398      14.332      9.7297      8.0868    
  8.6231      10.363      12.592      14.541      15.332      14.541      12.592      10.363      8.6231      8.0868    
  9.7297      14.332      21.398      29.152      38.395      47.794      124.98      111.93      81.213      50.498    
  31.549      21.398      13.361      8.6231      6.9738      6.9886      7.4654      7.8602      8.0050      7.8602    
  7.4654      6.9886      6.9738      8.6231      13.361      21.398      31.549      50.498      81.213      111.93    
  273.22      244.30      174.34      100.07      50.498      29.152      18.329      10.363      6.9886      6.8193    
  7.3171      7.2744      7.1043      7.2744      7.3171      6.8193      6.9886      10.363      18.329      29.152    
  50.498      100.07      174.34      244.30      473.42      424.76      305.39      174.34      81.213      38.395    
  23.305      12.592      7.4654      7.3171      8.2244      7.9943      7.5712      7.9943      8.2244      7.3171    
  7.4654      12.592      23.305      38.395      81.213      174.34      305.39      424.76      652.05      586.55    
  424.76      244.30      111.93      47.794      26.955      14.541      7.8602      7.2744      7.9943      7.1886    
  6.3921      7.1886      7.9943      7.2744      7.8602      14.541      26.955      47.794      111.93      244.30    
  424.76      586.55      527.25      473.42      341.06      194.98      90.057      41.026      24.469      13.230    
  7.6177      7.2844      8.0515      7.5712      7.0050      7.5712      8.0515      7.2844      7.6177      13.230    
  24.469      41.026      90.057      194.98      341.06      473.42      473.42      424.76      305.39      174.34    
  81.213      38.395      23.305      12.592      7.4654      7.3171      8.2244      7.9943      7.5712      7.9943    
  8.2244      7.3171      7.4654      12.592      23.305      38.395      81.213      174.34      305.39      424.76    
  341.06      305.39      218.54      124.92      60.667      32.361      20.184      11.055      7.1096      7.1746    
  8.1043      8.2244      8.0515      8.2244      8.1043      7.1746      7.1096      11.055      20.184      32.361    
  60.667      124.92      218.54      305.39      194.98      174.34      124.92      73.624      40.598      25.891    
  16.056      9.3838      6.7698      6.6930      7.1746      7.3171      7.2844      7.3171      7.1746      6.6930    
  6.7698      9.3838      16.056      25.891      40.598      73.624      124.92      174.34      90.057      81.213    
  60.667      40.598      27.985      19.147      12.087      8.1681      6.8282      6.7698      7.1096      7.4654    
  7.6177      7.4654      7.1096      6.7698      6.8282      8.1681      12.087      19.147      27.985      40.598    
  60.667      81.213      41.026      38.395      32.361      25.891      19.147      13.100      9.2811      7.8854    
  8.1681      9.3838      11.055      12.592      13.230      12.592      11.055      9.3838      8.1681      7.8854    
  9.2811      13.100      19.147      25.891      32.361      38.395      24.469      23.305      20.184      16.056    
  12.087      9.2811      8.2752      9.2811      12.087      16.056      20.184      23.305      24.469      23.305    
  20.184      16.056      12.087      9.2811      8.2752      9.2811      12.087      16.056      20.184      23.305    
  13.230      12.592      11.055      9.3838      8.1681      7.8854      9.2811      13.100      19.147      25.891    
  32.361      38.395      41.026      38.395      32.361      25.891      19.147      13.100      9.2811      7.8854    
  8.1681      9.3838      11.055      12.592      7.6177      7.4654      7.1096      6.7698      6.8282      8.1681    
  12.087      19.147      27.985      40.598      60.667      81.213      90.057      81.213      60.667      40.598    
  27.985      19.147      12.087      8.1681      6.8282      6.7698      7.1096      7.4654      7.2844      7.3171    
  7.1746      6.6930      6.7698      9.3838      16.056      25.891      40.598      73.624      124.92      174.34    
  194.98      174.34      124.92      73.624      40.598      25.891      16.056      9.3838      6.7698      6.6930    
  7.1746      7.3171      8.0515      8.2244      8.1043      7.1746      7.1096      11.055      20.184      32.361    
  60.667      124.92      218.54      305.39      341.06      305.39      218.54      124.92      60.667      32.361    
  20.184      11.055      7.1096      7.1746      8.1043      8.2244      7.5712      7.9943      8.2244      7.3171    
  7.4654      12.592      23.305      38.395      81.213      174.34      305.39      424.76      473.42      424.76    
  305.39      174.34      81.213      38.395      23.305      12.592      7.4654      7.3171      8.2244      7.9943    
  7.0050      7.5712      8.0515      7.2844      7.6177      13.230      24.469      41.026      90.057      194.98    
  341.06      473.42      527.25      473.42      341.06      194.98      90.057      41.026      24.469      13.230    
  7.6177      7.2844      8.0515      7.5712      7.5712      7.9943      8.2244      7.3171      7.4654      12.592    
  23.305      38.395      81.213      174.34      305.39      424.76      473.42      424.76      305.39      174.34    
  81.213      38.395      23.305      12.592      7.4654      7.3171      8.2244      7.9943      8.0515      8.2244    
  8.1043      7.1746      7.1096      11.055      20.184      32.361      60.667      124.92      218.54      305.39    
  341.06      305.39      218.54      124.92      60.667      32.361      20.184      11.055      7.1096      7.1746    
  8.1043      8.2244      7.2844      7.3171      7.1746      6.6930      6.7698      9.3838      16.056      25.891    
  40.598      73.624      124.92      174.34      194.98      174.34      124.92      73.624      40.598      25.891    
  16.056      9.3838      6.7698      6.6930      7.1746      7.3171      7.6177      7.4654      7.1096      6.7698    
  6.8282      8.1681      12.087      19.147      27.985      40.598      60.667      81.213      90.057      81.213    
  60.667      40.598      27.985      19.147      12.087      8.1681      6.8282      6.7698      7.1096      7.4654    
  13.230      12.592      11.055      9.3838      8.1681      7.8854      9.2811      13.100      19.147      25.891    
  32.361      38.395      41.026      38.395      32.361      25.891      19.147      13.100      9.2811      7.8854    
  8.1681      9.3838      11.055      12.592      24.469      23.305      20.184      16.056      12.087      9.2811    
  8.2752      9.2811      12.087      16.056      20.184      23.305      24.469      23.305      20.184      16.056    
  12.087      9.2811      8.2752      9.2811      12.087      16.056      20.184      23.305      41.026      38.395    
  32.361      25.891      19.147      13.100      9.2811      7.8854      8.1681      9.3838      11.055      12.592    
  13.230      12.592      11.055      9.3838      8.1681      7.8854      9.2811      13.100      19.147      25.891    
  32.361      38.395      90.057      81.213      60.667      40.598      27.985      19.147      12.087      8.1681    
  6.8282      6.7698      7.1096      7.4654      7.6177      7.4654      7.1096      6.7698      6.8282      8.1681    
  12.087      19.147      27.985      40.598      60.667      81.213      194.98      174.34      124.92      73.624    
  40.598      25.891      16.056      9.3838      6.7698      6.6930      7.1746      7.3171      7.2844      7.3171    
  7.1746      6.6930      6.7698      9.3838      16.056      25.891      40.598      73.624      124.92      174.34    
  341.06      305.39      218.54      124.92      60.667      32.361      20.184      11.055      7.1096      7.1746    
  8.1043      8.2244      8.0515      8.2244      8.1043      7.1746      7.1096      11.055      20.184      32.361    
  60.667      124.92      218.54      305.39      473.42      424.76      305.39      174.34      81.213      38.395    
  23.305      12.592      7.4654      7.3171      8.2244      7.9943      7.5712      7.9943      8.2244      7.3171    
  7.4654      12.592      23.305      38.395      81.213      174.34      305.39      424.76      305.47      273.22    
  194.98      111.35      54.846      30.435      19.191      10.780      7.1004      6.8480      7.2844      7.1043    
  6.8528      7.1043      7.2844      6.8480      7.1004      10.780      19.191      30.435      54.846      111.35    
  194.98      273.22      273.22      244.30      174.34      100.07      50.498      29.152      18.329      10.363    
  6.9886      6.8193      7.3171      7.2744      7.1043      7.2744      7.3171      6.8193      6.9886      10.363    
  18.329      29.152      50.498      100.07      174.34      244.30      194.98      174.34      124.92      73.624    
  40.598      25.891      16.056      9.3838      6.7698      6.6930      7.1746      7.3171      7.2844      7.3171    
  7.1746      6.6930      6.7698      9.3838      16.056      25.891      40.598      73.624      124.92      174.34    
  111.35      100.07      73.624      47.327      30.971      21.195      13.144      8.3705      6.6363      6.4807    
  6.6930      6.8193      6.8480      6.8193      6.6930      6.4807      6.6363      8.3705      13.144      21.195    
  30.971      47.327      73.624      100.07      54.846      50.498      40.598      30.971      23.267      15.867    
  10.453      7.6905      6.7695      6.6363      6.7698      6.9886      7.1004      6.9886      6.7698      6.6363    
  6.7695      7.6905      10.453      15.867      23.267      30.971      40.598      50.498      30.435      29.152    
  25.891      21.195      15.867      11.360      8.6237      7.6074      7.6905      8.3705      9.3838      10.363    
  10.780      10.363      9.3838      8.3705      7.6905      7.6074      8.6237      11.360      15.867      21.195    
  25.891      29.152      19.191      18.329      16.056      13.144      10.453      8.6237      7.9839      8.6237    
  10.453      13.144      16.056      18.329      19.191      18.329      16.056      13.144      10.453      8.6237    
  7.9839      8.6237      10.453      13.144      16.056      18.329      10.780      10.363      9.3838      8.3705    
  7.6905      7.6074      8.6237      11.360      15.867      21.195      25.891      29.152      30.435      29.152    
  25.891      21.195      15.867      11.360      8.6237      7.6074      7.6905      8.3705      9.3838      10.363    
  7.1004      6.9886      6.7698      6.6363      6.7695      7.6905      10.453      15.867      23.267      30.971    
  40.598      50.498      54.846      50.498      40.598      30.971      23.267      15.867      10.453      7.6905    
  6.7695      6.6363      6.7698      6.9886      6.8480      6.8193      6.6930      6.4807      6.6363      8.3705    
  13.144      21.195      30.971      47.327      73.624      100.07      111.35      100.07      73.624      47.327    
  30.971      21.195      13.144      8.3705      6.6363      6.4807      6.6930      6.8193      7.2844      7.3171    
  7.1746      6.6930      6.7698      9.3838      16.056      25.891      40.598      73.624      124.92      174.34    
  194.98      174.34      124.92      73.624      40.598      25.891      16.056      9.3838      6.7698      6.6930    
  7.1746      7.3171      7.1043      7.2744      7.3171      6.8193      6.9886      10.363      18.329      29.152    
  50.498      100.07      174.34      244.30      273.22      244.30      174.34      100.07      50.498      29.152    
  18.329      10.363      6.9886      6.8193      7.3171      7.2744      6.8528      7.1043      7.2844      6.8480    
  7.1004      10.780      19.191      30.435      54.846      111.35      194.98      273.22      305.47      273.22    
  194.98      111.35      54.846      30.435      19.191      10.780      7.1004      6.8480      7.2844      7.1043    
  7.1043      7.2744      7.3171      6.8193      6.9886      10.363      18.329      29.152      50.498      100.07    
  174.34      244.30      273.22      244.30      174.34      100.07      50.498      29.152      18.329      10.363    
  6.9886      6.8193      7.3171      7.2744      7.2844      7.3171      7.1746      6.6930      6.7698      9.3838    
  16.056      25.891      40.598      73.624      124.92      174.34      194.98      174.34      124.92      73.624    
  40.598      25.891      16.056      9.3838      6.7698      6.6930      7.1746      7.3171      6.8480      6.8193    
  6.6930      6.4807      6.6363      8.3705      13.144      21.195      30.971      47.327      73.624      100.07    
  111.35      100.07      73.624      47.327      30.971      21.195      13.144      8.3705      6.6363      6.4807    
  6.6930      6.8193      7.1004      6.9886      6.7698      6.6363      6.7695      7.6905      10.453      15.867    
  23.267      30.971      40.598      50.498      54.846      50.498      40.598      30.971      23.267      15.867    
  10.453      7.6905      6.7695      6.6363      6.7698      6.9886      10.780      10.363      9.3838      8.3705    
  7.6905      7.6074      8.6237      11.360      15.867      21.195      25.891      29.152      30.435      29.152    
  25.891      21.195      15.867      11.360      8.6237      7.6074      7.6905      8.3705      9.3838      10.363    
  19.191      18.329      16.056      13.144      10.453      8.6237      7.9839      8.6237      10.453      13.144    
  16.056      18.329      19.191      18.329      16.056      13.144      10.453      8.6237      7.9839      8.6237    
  10.453      13.144      16.056      18.329      30.435      29.152      25.891      21.195      15.867      11.360    
  8.6237      7.6074      7.6905      8.3705      9.3838      10.363      10.780      10.363      9.3838      8.3705    
  7.6905      7.6074      8.6237      11.360      15.867      21.195      25.891      29.152      54.846      50.498    
  40.598      30.971      23.267      15.867      10.453      7.6905      6.7695      6.6363      6.7698      6.9886    
  7.1004      6.9886      6.7698      6.6363      6.7695      7.6905      10.453      15.867      23.267      30.971    
  40.598      50.498      111.35      100.07      73.624      47.327      30.971      21.195      13.144      8.3705    
  6.6363      6.4807      6.6930      6.8193      6.8480      6.8193      6.6930      6.4807      6.6363      8.3705    
  13.144      21.195      30.971      47.327      73.624      100.07      194.98      174.34      124.92      73.624    
  40.598      25.891      16.056      9.3838      6.7698      6.6930      7.1746      7.3171      7.2844      7.3171    
  7.1746      6.6930      6.7698      9.3838      16.056      25.891      40.598      73.624      124.92      174.34    
  273.22      244.30      174.34      100.07      50.498      29.152      18.329      10.363      6.9886      6.8193    
  7.3171      7.2744      7.1043      7.2744      7.3171      6.8193      6.9886      10.363      18.329      29.152    
  50.498      100.07      174.34      244.30      139.76      124.98      90.057      54.846      33.031      22.185    
  13.844      8.8162      7.0560      7.1004      7.6177      8.0050      8.1352      8.0050      7.6177      7.1004    
  7.0560      8.8162      13.844      22.185      33.031      54.846      90.057      124.98      124.98      111.93    
  81.213      50.498      31.549      21.398      13.361      8.6231      6.9738      6.9886      7.4654      7.8602    
  8.0050      7.8602      7.4654      6.9886      6.9738      8.6231      13.361      21.398      31.549      50.498    
  81.213      111.93      90.057      81.213      60.667      40.598      27.985      19.147      12.087      8.1681    
  6.8282      6.7698      7.1096      7.4654      7.6177      7.4654      7.1096      6.7698      6.8282      8.1681    
  12.087      19.147      27.985      40.598      60.667      81.213      54.846      50.498      40.598      30.971    
  23.267      15.867      10.453      7.6905      6.7695      6.6363      6.7698      6.9886      7.1004      6.9886    
  6.7698      6.6363      6.7695      7.6905      10.453      15.867      23.267      30.971      40.598      50.498    
  33.031      31.549      27.985      23.267      17.561      12.371      8.9424      7.3576      6.8648      6.7695    
  6.8282      6.9738      7.0560      6.9738      6.8282      6.7695      6.8648      7.3576      8.9424      12.371    
  17.561      23.267      27.985      31.549      22.185      21.398      19.147      15.867      12.371      9.5583    
  7.9149      7.3232      7.3576      7.6905      8.1681      8.6231      8.8162      8.6231      8.1681      7.6905    
  7.3576      7.3232      7.9149      9.5583      12.371      15.867      19.147      21.398      13.844      13.361    