unknown system                          
   1.00000000000000     
     3.635000    0.000000    0.000000
     0.000000    3.635000    0.000000
     0.000000    0.000000    3.635000
   Cu
     4
Direct
  0.000000  0.000000  0.000000
  0.500000  0.500000  0.000000
  0.500000  0.000000  0.500000
  0.000000  0.500000  0.500000
 
   24   24   24
 0.80364452125E+03 0.72421868035E+03 0.52724862881E+03 0.30547344716E+03 0.13976441529E+03
 0.56707102615E+02 0.29779054750E+02 0.16175566674E+02 0.81352075747E+01 0.68528265148E+01
 0.70050388230E+01 0.53915435633E+01 0.41586473532E+01 0.53915435633E+01 0.70050388230E+01
 0.68528265148E+01 0.81352075747E+01 0.16175566674E+02 0.29779054750E+02 0.56707102615E+02
 0.13976441529E+03 0.30547344716E+03 0.52724862881E+03 0.72421868035E+03 0.72421868035E+03
 0.65204768171E+03 0.47341985693E+03 0.27321932320E+03 0.12498483317E+03 0.51924600174E+02
 0.28314273124E+02 0.15331649420E+02 0.80050105085E+01 0.71042601197E+01 0.75712457024E+01
 0.63921198791E+01 0.53915435633E+01 0.63921198791E+01 0.75712457024E+01 0.71042601197E+01
 0.80050105085E+01 0.15331649420E+02 0.28314273124E+02 0.51924600174E+02 0.12498483317E+03
 0.27321932320E+03 0.47341985693E+03 0.65204768171E+03 0.52724862881E+03 0.47341985693E+03
 0.34105879955E+03 0.19497918201E+03 0.90057263526E+02 0.41026326685E+02 0.24468717354E+02
 0.13230393141E+02 0.76176801162E+01 0.72844388806E+01 0.80514578422E+01 0.75712457024E+01
 0.70050388230E+01 0.75712457024E+01 0.80514578422E+01 0.72844388806E+01 0.76176801162E+01
 0.13230393141E+02 0.24468717354E+02 0.41026326685E+02 0.90057263526E+02 0.19497918201E+03
 0.34105879955E+03 0.47341985693E+03 0.30547344716E+03 0.27321932320E+03 0.19497918201E+03
 0.11134601564E+03 0.54845910458E+02 0.30434878359E+02 0.19190867699E+02 0.10780219944E+02
 0.71004008758E+01 0.68479966214E+01 0.72844388806E+01 0.71042601197E+01 0.68528265148E+01
 0.71042601197E+01 0.72844388806E+01 0.68479966214E+01 0.71004008758E+01 0.10780219944E+02
 0.19190867699E+02 0.30434878359E+02 0.54845910458E+02 0.11134601564E+03 0.19497918201E+03
 0.27321932320E+03 0.13976441529E+03 0.12498483317E+03 0.90057263526E+02 0.54845910458E+02
 0.33031259101E+02 0.22185398592E+02 0.13844416133E+02 0.88161992510E+01 0.70559812019E+01
 0.71004008758E+01 0.76176801162E+01 0.80050105085E+01 0.81352075747E+01 0.80050105085E+01
 0.76176801162E+01 0.71004008758E+01 0.70559812019E+01 0.88161992510E+01 0.13844416133E+02
 0.22185398592E+02 0.33031259101E+02 0.54845910458E+02 0.90057263526E+02 0.12498483317E+03
 0.56707102615E+02 0.51924600174E+02 0.41026326685E+02 0.30434878359E+02 0.22185398592E+02
 0.14773190138E+02 0.98870500785E+01 0.81613275488E+01 0.88161992510E+01 0.10780219944E+02
 0.13230393141E+02 0.15331649420E+02 0.16175566674E+02 0.15331649420E+02 0.13230393141E+02
 0.10780219944E+02 0.88161992510E+01 0.81613275488E+01 0.98870500785E+01 0.14773190138E+02
 0.22185398592E+02 0.30434878359E+02 0.41026326685E+02 0.51924600174E+02 0.29779054750E+02
 0.28314273124E+02 0.24468717354E+02 0.19190867699E+02 0.13844416133E+02 0.98870500785E+01
 0.84293626572E+01 0.98870500785E+01 0.13844416133E+02 0.19190867699E+02 0.24468717354E+02
 0.28314273124E+02 0.29779054750E+02 0.28314273124E+02 0.24468717354E+02 0.19190867699E+02
 0.13844416133E+02 0.98870500785E+01 0.84293626572E+01 0.98870500785E+01 0.13844416133E+02
 0.19190867699E+02 0.24468717354E+02 0.28314273124E+02 0.16175566674E+02 0.15331649420E+02
 0.13230393141E+02 0.10780219944E+02 0.88161992510E+01 0.81613275488E+01 0.98870500785E+01
 0.14773190138E+02 0.22185398592E+02 0.30434878359E+02 0.41026326685E+02 0.51924600174E+02
 0.56707102615E+02 0.51924600174E+02 0.41026326685E+02 0.30434878359E+02 0.22185398592E+02
 0.14773190138E+02 0.98870500785E+01 0.81613275488E+01 0.88161992510E+01 0.10780219944E+02
 0.13230393141E+02 0.15331649420E+02 0.81352075747E+01 0.80050105085E+01 0.76176801162E+01
 0.71004008758E+01 0.70559812019E+01 0.88161992510E+01 0.13844416133E+02 0.22185398592E+02
 0.33031259101E+02 0.54845910458E+02 0.90057263526E+02 0.12498483317E+03 0.13976441529E+03
 0.12498483317E+03 0.90057263526E+02 0.54845910458E+02 0.33031259101E+02 0.22185398592E+02
 0.13844416133E+02 0.88161992510E+01 0.70559812019E+01 0.71004008758E+01 0.76176801162E+01
 0.80050105085E+01 0.68528265148E+01 0.71042601197E+01 0.72844388806E+01 0.68479966214E+01
 0.71004008758E+01 0.10780219944E+02 0.19190867699E+02 0.30434878359E+02 0.54845910458E+02
 0.11134601564E+03 0.19497918201E+03 0.27321932320E+03 0.30547344716E+03 0.27321932320E+03
 0.19497918201E+03 0.11134601564E+03 0.54845910458E+02 0.30434878359E+02 0.19190867699E+02
 0.10780219944E+02 0.71004008758E+01 0.68479966214E+01 0.72844388806E+01 0.71042601197E+01
 0.70050388230E+01 0.75712457024E+01 0.80514578422E+01 0.72844388806E+01 0.76176801162E+01
 0.13230393141E+02 0.24468717354E+02 0.41026326685E+02 0.90057263526E+02 0.19497918201E+03
 0.34105879955E+03 0.47341985693E+03 0.52724862881E+03 0.47341985693E+03 0.34105879955E+03
 0.19497918201E+03 0.90057263526E+02 0.41026326685E+02 0.24468717354E+02 0.13230393141E+02
 0.76176801162E+01 0.72844388806E+01 0.80514578422E+01 0.75712457024E+01 0.53915435633E+01
 0.63921198791E+01 0.75712457024E+01 0.71042601197E+01 0.80050105085E+01 0.15331649420E+02
 0.28314273124E+02 0.51924600174E+02 0.12498483317E+03 0.27321932320E+03 0.47341985693E+03
 0.65204768171E+03 0.72421868035E+03 0.65204768171E+03 0.47341985693E+03 0.27321932320E+03
 0.12498483317E+03 0.51924600174E+02 0.28314273124E+02 0.15331649420E+02 0.80050105085E+01
 0.71042601197E+01 0.75712457024E+01 0.63921198791E+01 0.41586473532E+01 0.53915435633E+01
 0.70050388230E+01 0.68528265148E+01 0.81352075747E+01 0.16175566674E+02 0.29779054750E+02
 0.56707102615E+02 0.13976441529E+03 0.30547344716E+03 0.52724862881E+03 0.72421868035E+03
 0.80364452125E+03 0.72421868035E+03 0.52724862881E+03 0.30547344716E+03 0.13976441529E+03
 0.56707102615E+02 0.29779054750E+02 0.16175566674E+02 0.81352075747E+01 0.68528265148E+01
 0.70050388230E+01 0.53915435633E+01 0.53915435633E+01 0.63921198791E+01 0.75712457024E+01
 0.71042601197E+01 0.80050105085E+01 0.15331649420E+02 0.28314273124E+02 0.51924600174E+02
 0.12498483317E+03 0.27321932320E+03 0.47341985693E+03 0.65204768171E+03 0.72421868035E+03
 0.65204768171E+03 0.47341985693E+03 0.27321932320E+03 0.12498483317E+03 0.51924600174E+02
 0.28314273124E+02 0.15331649420E+02 0.80050105085E+01 0.71042601197E+01 0.75712457024E+01
 0.63921198791E+01 0.70050388230E+01 0.75712457024E+01 0.80514578422E+01 0.72844388806E+01
 0.76176801162E+01 0.13230393141E+02 0.24468717354E+02 0.41026326685E+02 0.90057263526E+02
 0.19497918201E+03 0.34105879955E+03 0.47341985693E+03 0.52724862881E+03 0.47341985693E+03
 0.34105879955E+03 0.19497918201E+03 0.90057263526E+02 0.41026326685E+02 0.24468717354E+02
 0.13230393141E+02 0.76176801162E+01 0.72844388806E+01 0.80514578422E+01 0.75712457024E+01
 0.68528265148E+01 0.71042601197E+01 0.72844388806E+01 0.68479966214E+01 0.71004008758E+01
 0.10780219944E+02 0.19190867699E+02 0.30434878359E+02 0.54845910458E+02 0.11134601564E+03
 0.19497918201E+03 0.27321932320E+03 0.30547344716E+03 0.27321932320E+03 0.19497918201E+03
 0.11134601564E+03 0.54845910458E+02 0.30434878359E+02 0.19190867699E+02 0.10780219944E+02
 0.71004008758E+01 0.68479966214E+01 0.72844388806E+01 0.71042601197E+01 0.81352075747E+01
 0.80050105085E+01 0.76176801162E+01 0.71004008758E+01 0.70559812019E+01 0.88161992510E+01
 0.13844416133E+02 0.22185398592E+02 0.33031259101E+02 0.54845910458E+02 0.90057263526E+02
 0.12498483317E+03 0.13976441529E+03 0.12498483317E+03 0.90057263526E+02 0.54845910458E+02
 0.33031259101E+02 0.22185398592E+02 0.13844416133E+02 0.88161992510E+01 0.70559812019E+01
 0.71004008758E+01 0.76176801162E+01 0.80050105085E+01 0.16175566674E+02 0.15331649420E+02
 0.13230393141E+02 0.10780219944E+02 0.88161992510E+01 0.81613275488E+01 0.98870500785E+01
 0.14773190138E+02 0.22185398592E+02 0.30434878359E+02 0.41026326685E+02 0.51924600174E+02
 0.56707102615E+02 0.51924600174E+02 0.41026326685E+02 0.30434878359E+02 0.22185398592E+02
 0.14773190138E+02 0.98870500785E+01 0.81613275488E+01 0.88161992510E+01 0.10780219944E+02
 0.13230393141E+02 0.15331649420E+02 0.29779054750E+02 0.28314273124E+02 0.24468717354E+02
 0.19190867699E+02 0.13844416133E+02 0.98870500785E+01 0.84293626572E+01 0.98870500785E+01
 0.13844416133E+02 0.19190867699E+02 0.24468717354E+02 0.28314273124E+02 0.29779054750E+02
 0.28314273124E+02 0.24468717354E+02 0.19190867699E+02 0.13844416133E+02 0.98870500785E+01
 0.84293626572E+01 0.98870500785E+01 0.13844416133E+02 0.19190867699E+02 0.24468717354E+02
 0.28314273124E+02 0.56707102615E+02 0.51924600174E+02 0.41026326685E+02 0.30434878359E+02
 0.22185398592E+02 0.14773190138E+02 0.98870500785E+01 0.81613275488E+01 0.88161992510E+01
 0.10780219944E+02 0.13230393141E+02 0.15331649420E+02 0.16175566674E+02 0.15331649420E+02
 0.13230393141E+02 0.10780219944E+02 0.88161992510E+01 0.81613275488E+01 0.98870500785E+01
 0.14773190138E+02 0.22185398592E+02 0.30434878359E+02 0.41026326685E+02 0.51924600174E+02
 0.13976441529E+03 0.12498483317E+03 0.90057263526E+02 0.54845910458E+02 0.33031259101E+02
 0.22185398592E+02 0.13844416133E+02 0.88161992510E+01 0.70559812019E+01 0.71004008758E+01
 0.76176801162E+01 0.80050105085E+01 0.81352075747E+01 0.80050105085E+01 0.76176801162E+01
 0.71004008758E+01 0.70559812019E+01 0.88161992510E+01 0.13844416133E+02 0.22185398592E+02
 0.33031259101E+02 0.54845910458E+02 0.90057263526E+02 0.12498483317E+03 0.30547344716E+03
 0.27321932320E+03 0.19497918201E+03 0.11134601564E+03 0.54845910458E+02 0.30434878359E+02
 0.19190867699E+02 0.10780219944E+02 0.71004008758E+01 0.68479966214E+01 0.72844388806E+01
 0.71042601197E+01 0.68528265148E+01 0.71042601197E+01 0.72844388806E+01 0.68479966214E+01
 0.71004008758E+01 0.10780219944E+02 0.19190867699E+02 0.30434878359E+02 0.54845910458E+02
 0.11134601564E+03 0.19497918201E+03 0.27321932320E+03 0.52724862881E+03 0.47341985693E+03
 0.34105879955E+03 0.19497918201E+03 0.90057263526E+02 0.41026326685E+02 0.24468717354E+02
 0.13230393141E+02 0.76176801162E+01 0.72844388806E+01 0.80514578422E+01 0.75712457024E+01
 0.70050388230E+01 0.75712457024E+01 0.80514578422E+01 0.72844388806E+01 0.76176801162E+01
 0.13230393141E+02 0.24468717354E+02 0.41026326685E+02 0.90057263526E+02 0.19497918201E+03
 0.34105879955E+03 0.47341985693E+03 0.72421868035E+03 0.65204768171E+03 0.47341985693E+03
 0.27321932320E+03 0.12498483317E+03 0.51924600174E+02 0.28314273124E+02 0.15331649420E+02
 0.80050105085E+01 0.71042601197E+01 0.75712457024E+01 0.63921198791E+01 0.53915435633E+01
 0.63921198791E+01 0.75712457024E+01 0.71042601197E+01 0.80050105085E+01 0.15331649420E+02
 0.28314273124E+02 0.51924600174E+02 0.12498483317E+03 0.27321932320E+03 0.47341985693E+03
 0.65204768171E+03 0.72421868035E+03 0.65204768171E+03 0.47341985693E+03 0.27321932320E+03
 0.12498483317E+03 0.51924600174E+02 0.28314273124E+02 0.15331649420E+02 0.80050105085E+01
 0.71042601197E+01 0.75712457024E+01 0.63921198791E+01 0.53915435633E+01 0.63921198791E+01
 0.75712457024E+01 0.71042601197E+01 0.80050105085E+01 0.15331649420E+02 0.28314273124E+02
 0.51924600174E+02 0.12498483317E+03 0.27321932320E+03 0.47341985693E+03 0.65204768171E+03
 0.65204768171E+03 0.58654822829E+03 0.42476114722E+03 0.24429780821E+03 0.11193292172E+03
 0.47794015272E+02 0.26954686945E+02 0.14540731445E+02 0.78602020411E+01 0.72743539210E+01
 0.79942662512E+01 0.71886197246E+01 0.63921198791E+01 0.71886197246E+01 0.79942662512E+01
 0.72743539210E+01 0.78602020411E+01 0.14540731445E+02 0.26954686945E+02 0.47794015272E+02
 0.11193292172E+03 0.24429780821E+03 0.42476114722E+03 0.58654822829E+03 0.47341985693E+03
 0.42476114722E+03 0.30538501841E+03 0.17434433467E+03 0.81212700963E+02 0.38394924212E+02
 0.23305060252E+02 0.12591502512E+02 0.74654469225E+01 0.73171495631E+01 0.82243890734E+01
 0.79942662512E+01 0.75712457024E+01 0.79942662512E+01 0.82243890734E+01 0.73171495631E+01
 0.74654469225E+01 0.12591502512E+02 0.23305060252E+02 0.38394924212E+02 0.81212700963E+02
 0.17434433467E+03 0.30538501841E+03 0.42476114722E+03 0.27321932320E+03 0.24429780821E+03
 0.17434433467E+03 0.10007267529E+03 0.50497705853E+02 0.29152266122E+02 0.18329227662E+02
 0.10363342247E+02 0.69886256778E+01 0.68193063157E+01 0.73171495631E+01 0.72743539210E+01
 0.71042601197E+01 0.72743539210E+01 0.73171495631E+01 0.68193063156E+01 0.69886256778E+01
 0.10363342247E+02 0.18329227662E+02 0.29152266122E+02 0.50497705853E+02 0.10007267529E+03
 0.17434433467E+03 0.24429780821E+03 0.12498483317E+03 0.11193292172E+03 0.81212700963E+02
 0.50497705853E+02 0.31549039998E+02 0.21397503618E+02 0.13361381819E+02 0.86231097800E+01
 0.69738100353E+01 0.69886256778E+01 0.74654469225E+01 0.78602020411E+01 0.80050105085E+01
 0.78602020411E+01 0.74654469225E+01 0.69886256778E+01 0.69738100353E+01 0.86231097800E+01
 0.13361381819E+02 0.21397503618E+02 0.31549039998E+02 0.50497705853E+02 0.81212700963E+02
 0.11193292172E+03 0.51924600174E+02 0.47794015272E+02 0.38394924212E+02 0.29152266122E+02
 0.21397503618E+02 0.14332136827E+02 0.97297296528E+01 0.80868062118E+01 0.86231097800E+01
 0.10363342247E+02 0.12591502512E+02 0.14540731445E+02 0.15331649420E+02 0.14540731445E+02
 0.12591502512E+02 0.10363342247E+02 0.86231097800E+01 0.80868062118E+01 0.97297296528E+01
 0.14332136827E+02 0.21397503618E+02 0.29152266122E+02 0.38394924212E+02 0.47794015272E+02
 0.28314273124E+02 0.26954686945E+02 0.23305060252E+02 0.18329227662E+02 0.13361381819E+02
 0.97297296528E+01 0.84015227234E+01 0.97297296528E+01 0.13361381819E+02 0.18329227662E+02
 0.23305060252E+02 0.26954686945E+02 0.28314273124E+02 0.26954686945E+02 0.23305060252E+02
 0.18329227662E+02 0.13361381819E+02 0.97297296528E+01 0.84015227234E+01 0.97297296528E+01
 0.13361381819E+02 0.18329227662E+02 0.23305060252E+02 0.26954686945E+02 0.15331649420E+02
 0.14540731445E+02 0.12591502512E+02 0.10363342247E+02 0.86231097800E+01 0.80868062118E+01
 0.97297296528E+01 0.14332136827E+02 0.21397503618E+02 0.29152266122E+02 0.38394924212E+02
 0.47794015272E+02 0.51924600174E+02 0.47794015272E+02 0.38394924212E+02 0.29152266122E+02
 0.21397503618E+02 0.14332136827E+02 0.97297296528E+01 0.80868062118E+01 0.86231097800E+01
 0.10363342247E+02 0.12591502512E+02 0.14540731445E+02 0.80050105085E+01 0.78602020411E+01
 0.74654469225E+01 0.69886256778E+01 0.69738100353E+01 0.86231097800E+01 0.13361381819E+02
 0.21397503618E+02 0.31549039998E+02 0.50497705853E+02 0.81212700963E+02 0.11193292172E+03
 0.12498483317E+03 0.11193292172E+03 0.81212700963E+02 0.50497705853E+02 0.31549039998E+02
 0.21397503618E+02 0.13361381819E+02 0.86231097800E+01 0.69738100353E+01 0.69886256778E+01
 0.74654469225E+01 0.78602020411E+01 0.71042601197E+01 0.72743539210E+01 0.73171495631E+01
 0.68193063157E+01 0.69886256778E+01 0.10363342247E+02 0.18329227662E+02 0.29152266122E+02
 0.50497705853E+02 0.10007267529E+03 0.17434433467E+03 0.24429780821E+03 0.27321932320E+03
 0.24429780821E+03 0.17434433467E+03 0.10007267529E+03 0.50497705853E+02 0.29152266122E+02
 0.18329227662E+02 0.10363342247E+02 0.69886256778E+01 0.68193063156E+01 0.73171495631E+01
 0.72743539210E+01 0.75712457024E+01 0.79942662512E+01 0.82243890734E+01 0.73171495631E+01
 0.74654469225E+01 0.12591502512E+02 0.23305060252E+02 0.38394924212E+02 0.81212700963E+02
 0.17434433467E+03 0.30538501841E+03 0.42476114722E+03 0.47341985693E+03 0.42476114722E+03
 0.30538501841E+03 0.17434433467E+03 0.81212700963E+02 0.38394924212E+02 0.23305060252E+02
 0.12591502512E+02 0.74654469225E+01 0.73171495631E+01 0.82243890734E+01 0.79942662512E+01
 0.63921198791E+01 0.71886197246E+01 0.79942662512E+01 0.72743539210E+01 0.78602020411E+01
 0.14540731445E+02 0.26954686945E+02 0.47794015272E+02 0.11193292172E+03 0.24429780821E+03
 0.42476114722E+03 0.58654822829E+03 0.65204768171E+03 0.58654822829E+03 0.42476114722E+03
 0.24429780821E+03 0.11193292172E+03 0.47794015272E+02 0.26954686945E+02 0.14540731445E+02
 0.78602020411E+01 0.72743539210E+01 0.79942662512E+01 0.71886197246E+01 0.53915435633E+01
 0.63921198791E+01 0.75712457024E+01 0.71042601197E+01 0.80050105085E+01 0.15331649420E+02
 0.28314273124E+02 0.51924600174E+02 0.12498483317E+03 0.27321932320E+03 0.47341985693E+03
 0.65204768171E+03 0.72421868035E+03 0.65204768171E+03 0.47341985693E+03 0.27321932320E+03
 0.12498483317E+03 0.51924600174E+02 0.28314273124E+02 0.15331649420E+02 0.80050105085E+01
 0.71042601197E+01 0.75712457024E+01 0.63921198791E+01 0.63921198791E+01 0.71886197246E+01
 0.79942662512E+01 0.72743539210E+01 0.78602020411E+01 0.14540731445E+02 0.26954686945E+02
 0.47794015272E+02 0.11193292172E+03 0.24429780821E+03 0.42476114722E+03 0.58654822829E+03
 0.65204768171E+03 0.58654822829E+03 0.42476114722E+03 0.24429780821E+03 0.11193292172E+03
 0.47794015272E+02 0.26954686945E+02 0.14540731445E+02 0.78602020411E+01 0.72743539210E+01
 0.79942662512E+01 0.71886197246E+01 0.75712457024E+01 0.79942662512E+01 0.82243890734E+01
 0.73171495631E+01 0.74654469225E+01 0.12591502512E+02 0.23305060252E+02 0.38394924212E+02
 0.81212700963E+02 0.17434433467E+03 0.30538501841E+03 0.42476114722E+03 0.47341985693E+03
 0.42476114722E+03 0.30538501841E+03 0.17434433467E+03 0.81212700963E+02 0.38394924212E+02
 0.23305060252E+02 0.12591502512E+02 0.74654469225E+01 0.73171495631E+01 0.82243890734E+01
 0.79942662512E+01 0.71042601197E+01 0.72743539210E+01 0.73171495631E+01 0.68193063157E+01
 0.69886256778E+01 0.10363342247E+02 0.18329227662E+02 0.29152266122E+02 0.50497705853E+02
 0.10007267529E+03 0.17434433467E+03 0.24429780821E+03 0.27321932320E+03 0.24429780821E+03
 0.17434433467E+03 0.10007267529E+03 0.50497705853E+02 0.29152266122E+02 0.18329227662E+02
 0.10363342247E+02 0.69886256778E+01 0.68193063157E+01 0.73171495631E+01 0.72743539210E+01
 0.80050105085E+01 0.78602020411E+01 0.74654469225E+01 0.69886256778E+01 0.69738100353E+01
 0.86231097800E+01 0.13361381819E+02 0.21397503618E+02 0.31549039998E+02 0.50497705853E+02
 0.81212700963E+02 0.11193292172E+03 0.12498483317E+03 0.11193292172E+03 0.81212700963E+02
 0.50497705853E+02 0.31549039998E+02 0.21397503618E+02 0.13361381819E+02 0.86231097800E+01
 0.69738100353E+01 0.69886256778E+01 0.74654469225E+01 0.78602020411E+01 0.15331649420E+02
 0.14540731445E+02 0.12591502512E+02 0.10363342247E+02 0.86231097800E+01 0.80868062118E+01
 0.97297296528E+01 0.14332136827E+02 0.21397503618E+02 0.29152266122E+02 0.38394924212E+02
 0.47794015272E+02 0.51924600174E+02 0.47794015272E+02 0.38394924212E+02 0.29152266122E+02
 0.21397503618E+02 0.14332136827E+02 0.97297296528E+01 0.80868062118E+01 0.86231097800E+01
 0.10363342247E+02 0.12591502512E+02 0.14540731445E+02 0.28314273124E+02 0.26954686945E+02
 0.23305060252E+02 0.18329227662E+02 0.13361381819E+02 0.97297296528E+01 0.84015227234E+01
 0.97297296528E+01 0.13361381819E+02 0.18329227662E+02 0.23305060252E+02 0.26954686945E+02
 0.28314273124E+02 0.26954686945E+02 0.23305060252E+02 0.18329227662E+02 0.13361381819E+02
 0.97297296528E+01 0.84015227234E+01 0.97297296528E+01 0.13361381819E+02 0.18329227662E+02
 0.23305060252E+02 0.26954686945E+02 0.51924600174E+02 0.47794015272E+02 0.38394924212E+02
 0.29152266122E+02 0.21397503618E+02 0.14332136827E+02 0.97297296528E+01 0.80868062118E+01
 0.86231097800E+01 0.10363342247E+02 0.12591502512E+02 0.14540731445E+02 0.15331649420E+02
 0.14540731445E+02 0.12591502512E+02 0.10363342247E+02 0.86231097800E+01 0.80868062118E+01
 0.97297296528E+01 0.14332136827E+02 0.21397503618E+02 0.29152266122E+02 0.38394924212E+02
 0.47794015272E+02 0.12498483317E+03 0.11193292172E+03 0.81212700963E+02 0.50497705853E+02
 0.31549039998E+02 0.21397503618E+02 0.13361381819E+02 0.86231097800E+01 0.69738100353E+01
 0.69886256778E+01 0.74654469225E+01 0.78602020411E+01 0.80050105085E+01 0.78602020411E+01
 0.74654469225E+01 0.69886256778E+01 0.69738100353E+01 0.86231097800E+01 0.13361381819E+02
 0.21397503618E+02 0.31549039998E+02 0.50497705853E+02 0.81212700963E+02 0.11193292172E+03
 0.27321932320E+03 0.24429780821E+03 0.17434433467E+03 0.10007267529E+03 0.50497705853E+02
 0.29152266122E+02 0.18329227662E+02 0.10363342247E+02 0.69886256778E+01 0.68193063156E+01
 0.73171495631E+01 0.72743539210E+01 0.71042601197E+01 0.72743539210E+01 0.73171495631E+01
 0.68193063157E+01 0.69886256778E+01 0.10363342247E+02 0.18329227662E+02 0.29152266122E+02
 0.50497705853E+02 0.10007267529E+03 0.17434433467E+03 0.24429780821E+03 0.47341985693E+03
 0.42476114722E+03 0.30538501841E+03 0.17434433467E+03 0.81212700963E+02 0.38394924212E+02
 0.23305060252E+02 0.12591502512E+02 0.74654469225E+01 0.73171495631E+01 0.82243890734E+01
 0.79942662512E+01 0.75712457024E+01 0.79942662512E+01 0.82243890734E+01 0.73171495631E+01
 0.74654469225E+01 0.12591502512E+02 0.23305060252E+02 0.38394924212E+02 0.81212700963E+02
 0.17434433467E+03 0.30538501841E+03 0.42476114722E+03 0.65204768171E+03 0.58654822829E+03
 0.42476114722E+03 0.24429780821E+03 0.11193292172E+03 0.47794015272E+02 0.26954686945E+02
 0.14540731445E+02 0.78602020411E+01 0.72743539210E+01 0.79942662512E+01 0.71886197246E+01
 0.63921198791E+01 0.71886197246E+01 0.79942662512E+01 0.72743539210E+01 0.78602020411E+01
 0.14540731445E+02 0.26954686945E+02 0.47794015272E+02 0.11193292172E+03 0.24429780821E+03
 0.42476114722E+03 0.58654822829E+03 0.52724862881E+03 0.47341985693E+03 0.34105879955E+03
 0.19497918201E+03 0.90057263526E+02 0.41026326685E+02 0.24468717354E+02 0.13230393141E+02
 0.76176801162E+01 0.72844388806E+01 0.80514578422E+01 0.75712457024E+01 0.70050388230E+01
 0.75712457024E+01 0.80514578422E+01 0.72844388806E+01 0.76176801162E+01 0.13230393141E+02
 0.24468717354E+02 0.41026326685E+02 0.90057263526E+02 0.19497918201E+03 0.34105879955E+03
 0.47341985693E+03 0.47341985693E+03 0.42476114722E+03 0.30538501841E+03 0.17434433467E+03
 0.81212700963E+02 0.38394924212E+02 0.23305060252E+02 0.12591502512E+02 0.74654469225E+01
 0.73171495631E+01 0.82243890734E+01 0.79942662512E+01 0.75712457024E+01 0.79942662512E+01
 0.82243890734E+01 0.73171495631E+01 0.74654469225E+01 0.12591502512E+02 0.23305060252E+02
 0.38394924212E+02 0.81212700963E+02 0.17434433467E+03 0.30538501841E+03 0.42476114722E+03
 0.34105879955E+03 0.30538501841E+03 0.21853817566E+03 0.12492435703E+03 0.60666727402E+02
 0.32361071168E+02 0.20183648834E+02 0.11054905543E+02 0.71096359382E+01 0.71745827890E+01
 0.81043090756E+01 0.82243890734E+01 0.80514578422E+01 0.82243890734E+01 0.81043090756E+01
 0.71745827890E+01 0.71096359382E+01 0.11054905543E+02 0.20183648834E+02 0.32361071168E+02
 0.60666727402E+02 0.12492435703E+03 0.21853817566E+03 0.30538501841E+03 0.19497918201E+03
 0.17434433467E+03 0.12492435703E+03 0.73624353023E+02 0.40597956828E+02 0.25891019263E+02
 0.16056380591E+02 0.93837905218E+01 0.67697605737E+01 0.66929869008E+01 0.71745827890E+01
 0.73171495631E+01 0.72844388806E+01 0.73171495631E+01 0.71745827890E+01 0.66929869008E+01
 0.67697605737E+01 0.93837905218E+01 0.16056380591E+02 0.25891019263E+02 0.40597956828E+02
 0.73624353023E+02 0.12492435703E+03 0.17434433467E+03 0.90057263526E+02 0.81212700963E+02
 0.60666727402E+02 0.40597956828E+02 0.27985370488E+02 0.19146548502E+02 0.12086912623E+02
 0.81681046291E+01 0.68282469074E+01 0.67697605737E+01 0.71096359382E+01 0.74654469225E+01
 0.76176801162E+01 0.74654469225E+01 0.71096359382E+01 0.67697605737E+01 0.68282469074E+01
 0.81681046291E+01 0.12086912623E+02 0.19146548502E+02 0.27985370488E+02 0.40597956828E+02
 0.60666727402E+02 0.81212700963E+02 0.41026326685E+02 0.38394924212E+02 0.32361071168E+02
 0.25891019263E+02 0.19146548502E+02 0.13099866385E+02 0.92811017573E+01 0.78854447078E+01
 0.81681046291E+01 0.93837905218E+01 0.11054905543E+02 0.12591502512E+02 0.13230393141E+02
 0.12591502512E+02 0.11054905543E+02 0.93837905218E+01 0.81681046291E+01 0.78854447078E+01
 0.92811017573E+01 0.13099866385E+02 0.19146548502E+02 0.25891019263E+02 0.32361071168E+02
 0.38394924212E+02 0.24468717354E+02 0.23305060252E+02 0.20183648834E+02 0.16056380591E+02
 0.12086912623E+02 0.92811017573E+01 0.82752449306E+01 0.92811017573E+01 0.12086912623E+02
 0.16056380591E+02 0.20183648834E+02 0.23305060252E+02 0.24468717354E+02 0.23305060252E+02
 0.20183648834E+02 0.16056380591E+02 0.12086912623E+02 0.92811017573E+01 0.82752449306E+01
 0.92811017573E+01 0.12086912623E+02 0.16056380591E+02 0.20183648834E+02 0.23305060252E+02
 0.13230393141E+02 0.12591502512E+02 0.11054905543E+02 0.93837905218E+01 0.81681046291E+01
 0.78854447078E+01 0.92811017573E+01 0.13099866385E+02 0.19146548502E+02 0.25891019263E+02
 0.32361071168E+02 0.38394924212E+02 0.41026326685E+02 0.38394924212E+02 0.32361071168E+02
 0.25891019263E+02 0.19146548502E+02 0.13099866385E+02 0.92811017573E+01 0.78854447078E+01
 0.81681046291E+01 0.93837905218E+01 0.11054905543E+02 0.12591502512E+02 0.76176801162E+01
 0.74654469225E+01 0.71096359382E+01 0.67697605737E+01 0.68282469074E+01 0.81681046291E+01
 0.12086912623E+02 0.19146548502E+02 0.27985370488E+02 0.40597956828E+02 0.60666727402E+02
 0.81212700963E+02 0.90057263526E+02 0.81212700963E+02 0.60666727402E+02 0.40597956828E+02
 0.27985370488E+02 0.19146548502E+02 0.12086912623E+02 0.81681046291E+01 0.68282469074E+01
 0.67697605737E+01 0.71096359382E+01 0.74654469225E+01 0.72844388806E+01 0.73171495631E+01
 0.71745827890E+01 0.66929869008E+01 0.67697605737E+01 0.93837905218E+01 0.16056380591E+02
 0.25891019263E+02 0.40597956828E+02 0.73624353023E+02 0.12492435703E+03 0.17434433467E+03
 0.19497918201E+03 0.17434433467E+03 0.12492435703E+03 0.73624353023E+02 0.40597956828E+02
 0.25891019263E+02 0.16056380591E+02 0.93837905218E+01 0.67697605737E+01 0.66929869008E+01
 0.71745827890E+01 0.73171495631E+01 0.80514578422E+01 0.82243890734E+01 0.81043090756E+01
 0.71745827890E+01 0.71096359382E+01 0.11054905543E+02 0.20183648834E+02 0.32361071168E+02
 0.60666727402E+02 0.12492435703E+03 0.21853817566E+03 0.30538501841E+03 0.34105879955E+03
 0.30538501841E+03 0.21853817566E+03 0.12492435703E+03 0.60666727402E+02 0.32361071168E+02
 0.20183648834E+02 0.11054905543E+02 0.71096359382E+01 0.71745827890E+01 0.81043090756E+01
 0.82243890734E+01 0.75712457024E+01 0.79942662512E+01 0.82243890734E+01 0.73171495631E+01
 0.74654469225E+01 0.12591502512E+02 0.23305060252E+02 0.38394924212E+02 0.81212700963E+02
 0.17434433467E+03 0.30538501841E+03 0.42476114722E+03 0.47341985693E+03 0.42476114722E+03
 0.30538501841E+03 0.17434433467E+03 0.81212700963E+02 0.38394924212E+02 0.23305060252E+02
 0.12591502512E+02 0.74654469225E+01 0.73171495631E+01 0.82243890734E+01 0.79942662512E+01
 0.70050388230E+01 0.75712457024E+01 0.80514578422E+01 0.72844388806E+01 0.76176801162E+01
 0.13230393141E+02 0.24468717354E+02 0.41026326685E+02 0.90057263526E+02 0.19497918201E+03
 0.34105879955E+03 0.47341985693E+03 0.52724862881E+03 0.47341985693E+03 0.34105879955E+03
 0.19497918201E+03 0.90057263526E+02 0.41026326685E+02 0.24468717354E+02 0.13230393141E+02
 0.76176801162E+01 0.72844388806E+01 0.80514578422E+01 0.75712457024E+01 0.75712457024E+01
 0.79942662512E+01 0.82243890734E+01 0.73171495631E+01 0.74654469225E+01 0.12591502512E+02
 0.23305060252E+02 0.38394924212E+02 0.81212700963E+02 0.17434433467E+03 0.30538501841E+03
 0.42476114722E+03 0.47341985693E+03 0.42476114722E+03 0.30538501841E+03 0.17434433467E+03
 0.81212700963E+02 0.38394924212E+02 0.23305060252E+02 0.12591502512E+02 0.74654469225E+01
 0.73171495631E+01 0.82243890734E+01 0.79942662512E+01 0.80514578422E+01 0.82243890734E+01
 0.81043090756E+01 0.71745827890E+01 0.71096359382E+01 0.11054905543E+02 0.20183648834E+02
 0.32361071168E+02 0.60666727402E+02 0.12492435703E+03 0.21853817566E+03 0.30538501841E+03
 0.34105879955E+03 0.30538501841E+03 0.21853817566E+03 0.12492435703E+03 0.60666727402E+02
 0.32361071168E+02 0.20183648834E+02 0.11054905543E+02 0.71096359382E+01 0.71745827890E+01
 0.81043090756E+01 0.82243890734E+01 0.72844388806E+01 0.73171495631E+01 0.71745827890E+01
 0.66929869008E+01 0.67697605737E+01 0.93837905218E+01 0.16056380591E+02 0.25891019263E+02
 0.40597956828E+02 0.73624353023E+02 0.12492435703E+03 0.17434433467E+03 0.19497918201E+03
 0.17434433467E+03 0.12492435703E+03 0.73624353023E+02 0.40597956828E+02 0.25891019263E+02
 0.16056380591E+02 0.93837905218E+01 0.67697605737E+01 0.66929869008E+01 0.71745827890E+01
 0.73171495631E+01 0.76176801162E+01 0.74654469225E+01 0.71096359382E+01 0.67697605737E+01
 0.68282469074E+01 0.81681046291E+01 0.12086912623E+02 0.19146548502E+02 0.27985370488E+02
 0.40597956828E+02 0.60666727402E+02 0.81212700963E+02 0.90057263526E+02 0.81212700963E+02
 0.60666727402E+02 0.40597956828E+02 0.27985370488E+02 0.19146548502E+02 0.12086912623E+02
 0.81681046291E+01 0.68282469074E+01 0.67697605737E+01 0.71096359382E+01 0.74654469225E+01
 0.13230393141E+02 0.12591502512E+02 0.11054905543E+02 0.93837905218E+01 0.81681046291E+01
 0.78854447078E+01 0.92811017573E+01 0.13099866385E+02 0.19146548502E+02 0.25891019263E+02
 0.32361071168E+02 0.38394924212E+02 0.41026326685E+02 0.38394924212E+02 0.32361071168E+02
 0.25891019263E+02 0.19146548502E+02 0.13099866385E+02 0.92811017573E+01 0.78854447078E+01
 0.81681046291E+01 0.93837905218E+01 0.11054905543E+02 0.12591502512E+02 0.24468717354E+02
 0.23305060252E+02 0.20183648834E+02 0.16056380591E+02 0.12086912623E+02 0.92811017573E+01
 0.82752449306E+01 0.92811017573E+01 0.12086912623E+02 0.16056380591E+02 0.20183648834E+02
 0.23305060252E+02 0.24468717354E+02 0.23305060252E+02 0.20183648834E+02 0.16056380591E+02
 0.12086912623E+02 0.92811017573E+01 0.82752449306E+01 0.92811017573E+01 0.12086912623E+02
 0.16056380591E+02 0.20183648834E+02 0.23305060252E+02 0.41026326685E+02 0.38394924212E+02
 0.32361071168E+02 0.25891019263E+02 0.19146548502E+02 0.13099866385E+02 0.92811017573E+01
 0.78854447078E+01 0.81681046291E+01 0.93837905218E+01 0.11054905543E+02 0.12591502512E+02
 0.13230393141E+02 0.12591502512E+02 0.11054905543E+02 0.93837905218E+01 0.81681046291E+01