    4    4    1    1
  0.1200752E+02  0.3635000E-09  0.3635000E-09  0.3635000E-09  0.5000000E-15
  1.000000000000000E-004
  CAR 
 unknown system                          
     44     10     30
 
  0.0000000E+00  0.0000000E+00  0.0000000E+00  0.8000000E-02
    1       -1.664189   1.000000
    2        1.701960   1.000000
    3        1.701960   1.000000
    4        1.701960   1.000000
    5        2.079647   1.000000
    6        2.079647   1.000000
    7        2.079647   1.000000
    8        2.403347   1.000000
    9        2.403347   1.000000
   10        2.403347   1.000000
   11        3.189461   1.000000
   12        3.189461   1.000000
   13        3.189461   1.000000
   14        3.189461   1.000000
   15        3.189461   1.000000
   16        3.189461   1.000000
   17        3.449712   1.000000
   18        3.449712   1.000000
   19        3.449712   1.000000
   20        3.752246   1.000000
   21        3.752246   1.000000
   22        9.087250  -0.000000
   23        9.087250  -0.000000
   24        9.087250  -0.000000
   25       13.519100   0.000000
   26       13.519100   0.000000
   27       13.519100   0.000000
   28       20.355454   0.000000
   29       20.355454   0.000000
   30       20.355454   0.000000
 
  0.2000000E+00  0.0000000E+00  0.0000000E+00  0.4800000E-01
    1       -1.190466   1.000000
    2        2.306100   1.000000
    3        2.306100   1.000000
    4        2.340207   1.000000
    5        2.530972   1.000000
    6        2.530972   1.000000
    7        2.538170   1.000000
    8        2.817266   1.000000
    9        2.817266   1.000000
   10        3.304804   1.000000
   11        3.700543   1.000000
   12        3.826030   1.000000
   13        4.129430   1.000000
   14        4.129430   1.000000
   15        4.596832   1.000000
   16        4.596832   1.000000
   17        4.776661   1.000000
   18        4.776661   1.000000
   19        4.784294   1.000000
   20        5.861275   1.000000
   21        5.861275   1.000000
   22        6.863605   1.001905
   23        9.934983  -0.000000
   24        9.934983  -0.000000
   25       13.785465   0.000000
   26       13.785465   0.000000
   27       17.020860   0.000000
   28       17.864558   0.000000
   29       17.864558   0.000000
   30       18.623014   0.000000
 
  0.4000000E+00  0.0000000E+00  0.0000000E+00  0.4800000E-01
    1        0.118665   1.000000
    2        2.166963   1.000000
    3        2.186221   1.000000
    4        2.723337   1.000000
    5        2.862289   1.000000
    6        2.881156   1.000000
    7        2.881156   1.000000
    8        2.896826   1.000000
    9        2.896826   1.000000
   10        3.320977   1.000000
   11        3.320977   1.000000
   12        3.543111   1.000000
   13        3.543111   1.000000
   14        4.038577   1.000000
   15        4.064618   1.000000
   16        4.064618   1.000000
   17        4.367035   1.000000
   18        4.496083   1.000000
   19        4.496083   1.000000
   20        5.215379   1.000000
   21        5.541073   1.000000
   22        5.541073   1.000000
   23       11.986885  -0.000000
   24       11.986885  -0.000000
   25       14.633331   0.000000
   26       14.633331   0.000000
   27       14.667827   0.000000
   28       14.667827   0.000000
   29       16.317222   0.000000
   30       16.317222   0.000000
 
  0.2000000E+00  0.2000000E+00  0.0000000E+00  0.9600000E-01
    1       -0.733177   1.000000
    2        2.357885   1.000000
    3        2.455894   1.000000
    4        2.587926   1.000000
    5        2.646649   1.000000
    6        2.675243   1.000000
    7        2.675243   1.000000
    8        2.735529   1.000000
    9        2.834176   1.000000
   10        2.834176   1.000000
   11        3.717301   1.000000
   12        3.850302   1.000000
   13        4.011712   1.000000
   14        4.215435   1.000000
   15        4.594241   1.000000
   16        4.594241   1.000000
   17        4.928192   1.000000
   18        5.396700   1.000000
   19        5.396700   1.000000
   20        5.861874   1.000000
   21        5.861874   1.000000
   22        7.384319   0.319966
   23        7.384319   0.319966
   24       10.682261  -0.000000
   25       13.932519   0.000000
   26       14.557009   0.000000
   27       17.396413   0.000000
   28       17.396413   0.000000
   29       18.450261   0.000000
   30       18.450261   0.000000
 
  0.4000000E+00  0.2000000E+00  0.0000000E+00  0.1920000E+00
    1        0.547825   1.000000
    2        2.528043   1.000000
    3        2.551455   1.000000
    4        2.650755   1.000000
    5        2.733532   1.000000
    6        2.735193   1.000000
    7        2.767529   1.000000
    8        3.107009   1.000000
    9        3.452495   1.000000
   10        3.591995   1.000000
   11        3.631928   1.000000
   12        3.896451   1.000000
   13        3.983307   1.000000
   14        3.998301   1.000000
   15        4.128966   1.000000
   16        4.208494   1.000000
   17        4.303778   1.000000
   18        4.420515   1.000000
   19        4.536892   1.000000
   20        5.067571   1.000000
   21        6.029271   1.000000
   22        7.382733   0.326179
   23        8.964183  -0.000000
   24       11.313589  -0.000000
   25       12.627233  -0.000000
   26       15.037693   0.000000
   27       15.345708   0.000000
   28       16.732219   0.000000
   29       18.575197   0.000000
   30       20.006653   0.000000
 
  0.4000000E+00  0.4000000E+00  0.0000000E+00  0.9600000E-01
    1        1.903771   1.000000
    2        2.390508   1.000000
    3        2.666054   1.000000
    4        2.666054   1.000000
    5        2.876787   1.000000
    6        2.991833   1.000000
    7        2.991833   1.000000
    8        3.183682   1.000000
    9        3.461193   1.000000
   10        3.461193   1.000000
   11        3.516080   1.000000
   12        3.786732   1.000000
   13        3.874372   1.000000
   14        4.213488   1.000000
   15        4.213488   1.000000
   16        4.380921   1.000000
   17        4.668290   1.000000
   18        4.668290   1.000000
   19        5.308809   1.000000
   20        5.405081   1.000000
   21        6.512070   1.000000
   22        6.512070   1.000000
   23        6.984885   1.015261
   24        8.108674  -0.000000
   25       14.518592   0.000000
   26       16.129702   0.000000
   27       16.826341   0.000000
   28       16.826341   0.000000
   29       17.960185   0.000000
   30       17.960185   0.000000
 
  0.2000000E+00  0.2000000E+00  0.2000000E+00  0.6400000E-01
    1       -0.284835   1.000000
    2        2.568101   1.000000
    3        2.568101   1.000000
    4        2.568101   1.000000
    5        2.680024   1.000000
    6        2.680024   1.000000
    7        3.169553   1.000000
    8        3.220212   1.000000
    9        3.220212   1.000000
   10        3.220212   1.000000
   11        3.809755   1.000000
   12        3.809755   1.000000
   13        4.750881   1.000000
   14        4.750881   1.000000
   15        4.750881   1.000000
   16        5.465631   1.000000
   17        5.465631   1.000000
   18        5.465631   1.000000
   19        6.757184   1.000147
   20        6.757184   1.000147
   21        6.757184   1.000147
   22        7.966684  -0.000044
   23        7.966684  -0.000044
   24        7.966684  -0.000044
   25       14.994655   0.000000
   26       14.994655   0.000000
   27       14.994655   0.000000
   28       17.788788   0.000000
   29       17.788788   0.000000
   30       17.788788   0.000000
 
  0.4000000E+00  0.2000000E+00  0.2000000E+00  0.1920000E+00
    1        0.994495   1.000000
    2        2.571188   1.000000
    3        2.571188   1.000000
    4        2.614136   1.000000
    5        2.766301   1.000000
    6        2.838504   1.000000
    7        2.961494   1.000000
    8        3.086482   1.000000
    9        3.109081   1.000000
   10        3.109081   1.000000
   11        3.550443   1.000000
   12        3.550443   1.000000
   13        4.055892   1.000000
   14        4.118619   1.000000
   15        4.118619   1.000000
   16        4.379114   1.000000
   17        4.550833   1.000000
   18        4.627351   1.000000
   19        4.627351   1.000000
   20        5.031538   1.000000
   21        6.432216   1.000000
   22        6.553377   1.000000
   23        9.318106  -0.000000
   24        9.318106  -0.000000
   25       12.025242  -0.000000
   26       12.025242  -0.000000
   27       16.599761   0.000000
   28       18.782298   0.000000
   29       18.903903   0.000000
   30       18.903903   0.000000
 
  0.4000000E+00  0.4000000E+00  0.2000000E+00  0.1920000E+00
    1        2.194489   1.000000
    2        2.211818   1.000000
    3        2.595508   1.000000
    4        2.595508   1.000000
    5        2.971399   1.000000
    6        3.000654   1.000000
    7        3.000654   1.000000
    8        3.021676   1.000000
    9        3.066480   1.000000
   10        3.104359   1.000000
   11        3.468306   1.000000
   12        3.468306   1.000000
   13        3.512171   1.000000
   14        3.863907   1.000000
   15        3.999901   1.000000
   16        3.999901   1.000000
   17        4.516047   1.000000
   18        4.855596   1.000000
   19        5.457402   1.000000
   20        5.457402   1.000000
   21        6.662261   1.000009
   22        6.662261   1.000009
   23        7.064681   1.032485
   24        8.269979  -0.000000
   25       11.252145  -0.000000
   26       13.429288   0.000000
   27       13.429288   0.000000
   28       15.805863   0.000000
   29       20.140529   0.000000
   30       22.183072   0.000000
 
  0.4000000E+00  0.4000000E+00  0.4000000E+00  0.6400000E-01
    1        1.837500   1.000000
    2        2.069620   1.000000
    3        2.069620   1.000000
    4        2.069620   1.000000
    5        2.645659   1.000000
    6        2.645659   1.000000
    7        2.927134   1.000000
    8        2.927134   1.000000
    9        2.927134   1.000000
   10        3.111633   1.000000
   11        3.111633   1.000000
   12        3.111633   1.000000
   13        4.306667   1.000000
   14        4.306667   1.000000
   15        4.306667   1.000000
   16        4.879342   1.000000
   17        4.895353   1.000000
   18        4.895353   1.000000
   19        7.045604   1.028743
   20        7.045604   1.028743
   21        7.045604   1.028743
   22        7.746465  -0.007268
   23        7.746465  -0.007268
   24        7.746465  -0.007268
   25       10.640817  -0.000000
   26       10.640817  -0.000000
   27       10.640817  -0.000000
   28       12.619154  -0.000000
   29       25.592976   0.000000
   30       25.592976   0.000000
