 vasp.6.2.0 18Jan21 (build Mar 17 2021 09:06:54) complex                        
  
 executed on             LinuxIFC date 2021.08.03  10:15:00
 serial version


--------------------------------------------------------------------------------------------------------


 INCAR:
   ENCUT = 160.000000
   SIGMA = 0.200000
   EDIFF = 1.00e-06
   GGA = PE
   PREC = normal
   IBRION = -1
   ICHARG = 1
   ISMEAR = 1
   KPAR = 1
   NBANDS = 30
   NSW = 0
   NCORE = 1
   LCHARG = .TRUE.

 POTCAR:    PAW_PBE Cu 22Jun2005                  
 POTCAR:    PAW_PBE Cu 22Jun2005                  
   SHA256 =  0e71e558f37a4e8407882b4609ceaae59938afaad9ced71dfe8490308a0ab630 Cu/POTCAR             
   COPYR  = (c) Copyright 22Jun2005 Georg Kresse                                                    
   COPYR  = This file is part of the software VASP. Any use, copying, and all other rights are regul
   COPYR  = If you do not have a valid VASP license, you may not use, copy or distribute this file. 
   VRHFIN =Cu: d10 p1                                                                               
   LEXCH  = PE                                                                                      
   EATOM  =  1390.9808 eV,  102.2342 Ry                                                             
                                                                                                    
   TITEL  = PAW_PBE Cu 22Jun2005                                                                    
   LULTRA =        F    use ultrasoft PP ?                                                          
   IUNSCR =        1    unscreen: 0-lin 1-nonlin 2-no                                               
   RPACOR =    2.000    partial core radius                                                         
   POMASS =   63.546; ZVAL   =   11.000    mass and valenz                                          
   RCORE  =    2.300    outmost cutoff radius                                                       
   RWIGS  =    2.200; RWIGS  =    1.164    wigner-seitz radius (au A)                               
   ENMAX  =  295.446; ENMIN  =  221.585 eV                                                          
   ICORE  =        3    local potential                                                             
   LCOR   =        T    correct aug charges                                                         
   LPAW   =        T    paw PP                                                                      
   EAUG   =  586.980                                                                                
   DEXC   =    0.000                                                                                
   RMAX   =    2.344    core radius for proj-oper                                                   
   RAUG   =    1.300    factor for augmentation sphere                                              
   RDEP   =    2.302    radius for radial grids                                                     
   RDEPT  =    1.771    core radius for aug-charge                                                  
                                                                                                    
   Atomic configuration                                                                             
    9 entries                                                                                       
     n  l   j            E        occ.                                                              
     1  0  0.50     -8850.2468   2.0000                                                             
     2  0  0.50     -1062.3498   2.0000                                                             
     2  1  1.50      -916.8226   6.0000                                                             
     3  0  0.50      -114.6929   2.0000                                                             
     3  1  1.50       -72.1325   6.0000                                                             
     3  2  2.50        -5.0394  10.0000                                                             
     4  0  0.50        -4.6097   1.0000                                                             
     4  1  0.50        -4.0817   0.0000                                                             
     4  3  2.50        -1.3606   0.0000                                                             
   Description                                                                                      
     l       E           TYP  RCUT    TYP  RCUT                                                     
     2     -5.0393973     23  2.200                                                                 
     2     10.8846608     23  2.200                                                                 
     0     -4.6097109     23  2.200                                                                 
     0      8.2520465     23  2.200                                                                 
     1     -2.7211652     23  2.200                                                                 
     1     21.7055443     23  2.200                                                                 
     3      2.7211652     23  2.300                                                                 
  local pseudopotential read in
  partial core-charges read in
  partial kinetic energy density read in
  atomic valenz-charges read in
  non local Contribution for L=           2  read in
    real space projection operators read in
  non local Contribution for L=           2  read in
    real space projection operators read in
  non local Contribution for L=           0  read in
    real space projection operators read in
  non local Contribution for L=           0  read in
    real space projection operators read in
  non local Contribution for L=           1  read in
    real space projection operators read in
  non local Contribution for L=           1  read in
    real space projection operators read in
    PAW grid and wavefunctions read in
 
   number of l-projection  operators is LMAX  =           6
   number of lm-projection operators is LMMAX =          18
 
  PAW_PBE Cu 22Jun2005                  :
 energy of atom  1       EATOM=-1390.9808
 kinetic energy error for atom=    7.3387 (will be added to EATOM!!)
 
 
 POSCAR: Cu
  positions in cartesian coordinates
  No initial velocities read in
 exchange correlation table for  LEXCH =        8
   RHO(1)=    0.500       N(1)  =     2000
   RHO(2)=  100.500       N(2)  =     4000
 


--------------------------------------------------------------------------------------------------------


 ion  position               nearest neighbor table
   1  0.000  0.000  0.000-   2 2.57   3 2.57   4 2.57   3 2.57   4 2.57   2 2.57   4 2.57   4 2.57
                             2 2.57   3 2.57   3 2.57   2 2.57
   2  0.500  0.500  0.000-   1 2.57   3 2.57   4 2.57   3 2.57   4 2.57   1 2.57   3 2.57   3 2.57
                             1 2.57   4 2.57   4 2.57   1 2.57
   3  0.500  0.000  0.500-   1 2.57   2 2.57   4 2.57   1 2.57   2 2.57   2 2.57   4 2.57   2 2.57
                             1 2.57   4 2.57   1 2.57   4 2.57
   4  0.000  0.500  0.500-   1 2.57   2 2.57   3 2.57   1 2.57   2 2.57   1 2.57   3 2.57   1 2.57
                             2 2.57   3 2.57   2 2.57   3 2.57
 
  LATTYP: Found a simple cubic cell.
 ALAT       =     3.6350000000
  
  Lattice vectors:
  
 A1 = (   3.6350000000,   0.0000000000,   0.0000000000)
 A2 = (   0.0000000000,   3.6350000000,   0.0000000000)
 A3 = (   0.0000000000,   0.0000000000,   3.6350000000)


Analysis of symmetry for initial positions (statically):
=====================================================================
 Subroutine PRICEL returns following result:
 
  LATTYP: Found a face centered cubic cell.
 ALAT       =     3.6350000000
  
  Lattice vectors:
  
 A1 = (   1.8175000000,  -1.8175000000,   0.0000000000)
 A2 = (   1.8175000000,   0.0000000000,   1.8175000000)
 A3 = (   0.0000000000,  -1.8175000000,   1.8175000000)
 
   4 primitive cells build up your supercell.
 

 Routine SETGRP: Setting up the symmetry group for a 
 simple cubic supercell.


 Subroutine GETGRP returns: Found 48 space group operations
 (whereof 48 operations were pure point group operations)
 out of a pool of 48 trial point group operations.


The static configuration has the point symmetry O_h .


Analysis of symmetry for dynamics (positions and initial velocities):
=====================================================================
 Subroutine PRICEL returns following result:
 
  LATTYP: Found a face centered cubic cell.
 ALAT       =     3.6350000000
  
  Lattice vectors:
  
 A1 = (   1.8175000000,  -1.8175000000,   0.0000000000)
 A2 = (   1.8175000000,   0.0000000000,   1.8175000000)
 A3 = (   0.0000000000,  -1.8175000000,   1.8175000000)
 
   4 primitive cells build up your supercell.
 

 Routine SETGRP: Setting up the symmetry group for a 
 simple cubic supercell.


 Subroutine GETGRP returns: Found 48 space group operations
 (whereof 48 operations were pure point group operations)
 out of a pool of 48 trial point group operations.


The dynamic configuration has the point symmetry O_h .


 Subroutine INISYM returns: Found 48 space group operations
 (whereof 48 operations are pure point group operations),
 and found     4 'primitive' translations


----------------------------------------------------------------------------------------

                                     Primitive cell                                     

  volume of cell :      12.0075

  direct lattice vectors                    reciprocal lattice vectors
     1.817500000 -1.817500000  0.000000000     0.275103164 -0.275103164 -0.275103164
     1.817500000  0.000000000  1.817500000     0.275103164  0.275103164  0.275103164
     0.000000000 -1.817500000  1.817500000    -0.275103164 -0.275103164  0.275103164

  length of vectors
     2.570333150  2.570333150  2.570333150     0.476492657  0.476492657  0.476492657

  position of ions in fractional coordinates (direct lattice)
     0.000000000  0.000000000  0.000000000

  ion indices of the primitive-cell ions
   primitive index   ion index
                 1           1

----------------------------------------------------------------------------------------

 
 
 KPOINTS: KPOINTS created by Atomic Simulation Env

Automatic generation of k-mesh.
 Grid dimensions read from file:
 generate k-points for:    5    5    5

 Generating k-lattice:

  Cartesian coordinates                     Fractional coordinates (reciprocal lattice)
     0.055020633  0.000000000  0.000000000     0.200000000  0.000000000  0.000000000
     0.000000000  0.055020633  0.000000000     0.000000000  0.200000000  0.000000000
     0.000000000  0.000000000  0.055020633     0.000000000  0.000000000  0.200000000

  Length of vectors
     0.055020633  0.055020633  0.055020633

  Shift w.r.t. Gamma in fractional coordinates (k-lattice)
     0.000000000  0.000000000  0.000000000

 
 Subroutine IBZKPT returns following result:
 ===========================================
 
 Found     10 irreducible k-points:
 
 Following reciprocal coordinates:
            Coordinates               Weight
  0.000000  0.000000  0.000000      1.000000
  0.200000  0.000000  0.000000      6.000000
  0.400000  0.000000  0.000000      6.000000
  0.200000  0.200000  0.000000     12.000000
  0.400000  0.200000  0.000000     24.000000
  0.400000  0.400000  0.000000     12.000000
  0.200000  0.200000  0.200000      8.000000
  0.400000  0.200000  0.200000     24.000000
  0.400000  0.400000  0.200000     24.000000
  0.400000  0.400000  0.400000      8.000000
 
 Following cartesian coordinates:
            Coordinates               Weight
  0.000000  0.000000  0.000000      1.000000
  0.055021  0.000000  0.000000      6.000000
  0.110041  0.000000  0.000000      6.000000
  0.055021  0.055021  0.000000     12.000000
  0.110041  0.055021  0.000000     24.000000
  0.110041  0.110041  0.000000     12.000000
  0.055021  0.055021  0.055021      8.000000
  0.110041  0.055021  0.055021     24.000000
  0.110041  0.110041  0.055021     24.000000
  0.110041  0.110041  0.110041      8.000000
 


--------------------------------------------------------------------------------------------------------




 Dimension of arrays:
   k-points           NKPTS =     10   k-points in BZ     NKDIM =     10   number of bands    NBANDS=     30
   number of dos      NEDOS =    301   number of ions     NIONS =      4
   non local maximal  LDIM  =      6   non local SUM 2l+1 LMDIM =     18
   total plane-waves  NPLWV =   1728
   max r-space proj   IRMAX =      1   max aug-charges    IRDMAX=   1241
   dimension x,y,z NGX =    12 NGY =   12 NGZ =   12
   dimension x,y,z NGXF=    24 NGYF=   24 NGZF=   24
   support grid    NGXF=    24 NGYF=   24 NGZF=   24
   ions per type =               4
   NGX,Y,Z   is equivalent  to a cutoff of   5.49,  5.49,  5.49 a.u.
   NGXF,Y,Z  is equivalent  to a cutoff of  10.98, 10.98, 10.98 a.u.

 SYSTEM =  unknown system                          
 POSCAR =  Cu                                      

 Startparameter for this run:
   NWRITE =      2    write-flag & timer
   PREC   = normal    normal or accurate (medium, high low for compatibility)
   ISTART =      1    job   : 0-new  1-cont  2-samecut
   ICHARG =      1    charge: 1-file 2-atom 10-const
   ISPIN  =      1    spin polarized calculation?
   LNONCOLLINEAR =      F non collinear calculations
   LSORBIT =      F    spin-orbit coupling
   INIWAV =      1    electr: 0-lowe 1-rand  2-diag
   LASPH  =      F    aspherical Exc in radial PAW
   METAGGA=      F    non-selfconsistent MetaGGA calc.

 Electronic Relaxation 1
   ENCUT  =  160.0 eV  11.76 Ry    3.43 a.u.   3.75  3.75  3.75*2*pi/ulx,y,z
   ENINI  =  160.0     initial cutoff
   ENAUG  =  587.0 eV  augmentation charge cutoff
   NELM   =     60;   NELMIN=  2; NELMDL=  0     # of ELM steps 
   EDIFF  = 0.1E-05   stopping-criterion for ELM
   LREAL  =      F    real-space projection
   NLSPLINE    = F    spline interpolate recip. space projectors
   LCOMPAT=      F    compatible to vasp.4.4
   GGA_COMPAT  = T    GGA compatible to vasp.4.4-vasp.4.6
   LMAXPAW     = -100 max onsite density
   LMAXMIX     =    2 max onsite mixed and CHGCAR
   VOSKOWN=      0    Vosko Wilk Nusair interpolation
   ROPT   =    0.00000
 Ionic relaxation
   EDIFFG = 0.1E-04   stopping-criterion for IOM
   NSW    =      0    number of steps for IOM
   NBLOCK =      1;   KBLOCK =      1    inner block; outer block 
   IBRION =     -1    ionic relax: 0-MD 1-quasi-New 2-CG
   NFREE  =      0    steps in history (QN), initial steepest desc. (CG)
   ISIF   =      2    stress and relaxation
   IWAVPR =      0    prediction:  0-non 1-charg 2-wave 3-comb
   ISYM   =      2    0-nonsym 1-usesym 2-fastsym
   LCORR  =      T    Harris-Foulkes like correction to forces

   POTIM  = 0.5000    time-step for ionic-motion
   TEIN   =    0.0    initial temperature
   TEBEG  =    0.0;   TEEND  =   0.0 temperature during run
   SMASS  =  -3.00    Nose mass-parameter (am)
   estimated Nose-frequenzy (Omega)   =  0.10E-29 period in steps = 0.13E+47 mass=  -0.302E-27a.u.
   SCALEE = 1.0000    scale energy and forces
   NPACO  =    256;   APACO  = 16.0  distance and # of slots for P.C.
   PSTRESS=    0.0 pullay stress

  Mass of Ions in am
   POMASS =  63.55
  Ionic Valenz
   ZVAL   =  11.00
  Atomic Wigner-Seitz radii
   RWIGS  =  -1.00
  virtual crystal weights 
   VCA    =   1.00
   NELECT =      44.0000    total number of electrons
   NUPDOWN=      -1.0000    fix difference up-down

 DOS related values:
   EMIN   =  10.00;   EMAX   =-10.00  energy-range for DOS
   EFERMI =   0.00
   ISMEAR =     1;   SIGMA  =   0.20  broadening in eV -4-tet -1-fermi 0-gaus

 Electronic relaxation 2 (details)
   IALGO  =     38    algorithm
   LDIAG  =      T    sub-space diagonalisation (order eigenvalues)
   LSUBROT=      F    optimize rotation matrix (better conditioning)
   TURBO    =      0    0=normal 1=particle mesh
   IRESTART =      0    0=no restart 2=restart with 2 vectors
   NREBOOT  =      0    no. of reboots
   NMIN     =      0    reboot dimension
   EREF     =   0.00    reference energy to select bands
   IMIX   =      4    mixing-type and parameters
     AMIX     =   0.40;   BMIX     =  1.00
     AMIX_MAG =   1.60;   BMIX_MAG =  1.00
     AMIN     =   0.10
     WC   =   100.;   INIMIX=   1;  MIXPRE=   1;  MAXMIX= -45

 Intra band minimization:
   WEIMIN = 0.0000     energy-eigenvalue tresh-hold
   EBREAK =  0.83E-08  absolut break condition
   DEPER  =   0.30     relativ break condition  

   TIME   =   0.40     timestep for ELM

  volume/ion in A,a.u.               =      12.01        81.03
  Fermi-wavevector in a.u.,A,eV,Ry     =   1.589967  3.004601 34.395439  2.527993
  Thomas-Fermi vector in A             =   2.688734
 
 Write flags
   LWAVE        =      T    write WAVECAR
   LDOWNSAMPLE  =      F    k-point downsampling of WAVECAR
   LCHARG       =      T    write CHGCAR
   LVTOT        =      F    write LOCPOT, total local potential
   LVHAR        =      F    write LOCPOT, Hartree potential only
   LELF         =      F    write electronic localiz. function (ELF)
   LORBIT       =      0    0 simple, 1 ext, 2 COOP (PROOUT), +10 PAW based schemes


 Dipole corrections
   LMONO  =      F    monopole corrections only (constant potential shift)
   LDIPOL =      F    correct potential (dipole corrections)
   IDIPOL =      0    1-x, 2-y, 3-z, 4-all directions 
   EPSILON=  1.0000000 bulk dielectric constant

 Exchange correlation treatment:
   GGA     =    PE    GGA type
   LEXCH   =     8    internal setting for exchange type
   VOSKOWN=      0    Vosko Wilk Nusair interpolation
   LHFCALC =     F    Hartree Fock is set to
   LHFONE  =     F    Hartree Fock one center treatment
   AEXX    =    0.0000 exact exchange contribution

 Linear response parameters
   LEPSILON=     F    determine dielectric tensor
   LRPA    =     F    only Hartree local field effects (RPA)
   LNABLA  =     F    use nabla operator in PAW spheres
   LVEL    =     F    velocity operator in full k-point grid
   LINTERFAST=   F  fast interpolation
   KINTER  =     0    interpolate to denser k-point grid
   CSHIFT  =0.1000    complex shift for real part using Kramers Kronig
   OMEGAMAX=  -1.0    maximum frequency
   DEG_THRESHOLD= 0.2000000E-02 threshold for treating states as degnerate
   RTIME   =   -0.100 relaxation time in fs
  (WPLASMAI=    0.000 imaginary part of plasma frequency in eV, 0.658/RTIME)
   DFIELD  = 0.0000000 0.0000000 0.0000000 field for delta impulse in time
 
 Orbital magnetization related:
   ORBITALMAG=     F  switch on orbital magnetization
   LCHIMAG   =     F  perturbation theory with respect to B field
   DQ        =  0.001000  dq finite difference perturbation B field
   LLRAUG    =     F  two centre corrections for induced B field



--------------------------------------------------------------------------------------------------------


 Static calculation
 charge density and potential will be updated during run
 non-spin polarized calculation
 Variant of blocked Davidson
 Davidson routine will perform the subspace rotation
 perform sub-space diagonalisation
    after iterative eigenvector-optimisation
 modified Broyden-mixing scheme, WC =      100.0
 initial mixing is a Kerker type mixing with AMIX =  0.4000 and BMIX =      1.0000
 Hartree-type preconditioning will be used
 using additional bands            8
 reciprocal scheme for non local part
 use partial core corrections
 calculate Harris-corrections to forces 
   (improved forces if not selfconsistent)
 use gradient corrections 
 use of overlap-Matrix (Vanderbilt PP)
 Methfessel and Paxton  Order N= 1 SIGMA  =   0.20


--------------------------------------------------------------------------------------------------------


  energy-cutoff  :      160.00
  volume of cell :       48.03
      direct lattice vectors                 reciprocal lattice vectors
     3.635000000  0.000000000  0.000000000     0.275103164  0.000000000  0.000000000
     0.000000000  3.635000000  0.000000000     0.000000000  0.275103164  0.000000000
     0.000000000  0.000000000  3.635000000     0.000000000  0.000000000  0.275103164

  length of vectors
     3.635000000  3.635000000  3.635000000     0.275103164  0.275103164  0.275103164


 
 old parameters found on file WAVECAR:
  energy-cutoff  :      160.00
  volume of cell :       48.03
      direct lattice vectors                 reciprocal lattice vectors
     3.635000000  0.000000000  0.000000000     0.275103164  0.000000000  0.000000000
     0.000000000  3.635000000  0.000000000     0.000000000  0.275103164  0.000000000
     0.000000000  0.000000000  3.635000000     0.000000000  0.000000000  0.275103164

  length of vectors

 
 k-points in units of 2pi/SCALE and weight: KPOINTS created by Atomic Simulation Env
   0.00000000  0.00000000  0.00000000       0.008
   0.05502063  0.00000000  0.00000000       0.048
   0.11004127  0.00000000  0.00000000       0.048
   0.05502063  0.05502063  0.00000000       0.096
   0.11004127  0.05502063  0.00000000       0.192
   0.11004127  0.11004127  0.00000000       0.096
   0.05502063  0.05502063  0.05502063       0.064
   0.11004127  0.05502063  0.05502063       0.192
   0.11004127  0.11004127  0.05502063       0.192
   0.11004127  0.11004127  0.11004127       0.064
 
 k-points in reciprocal lattice and weights: KPOINTS created by Atomic Simulation Env
   0.00000000  0.00000000  0.00000000       0.008
   0.20000000  0.00000000  0.00000000       0.048
   0.40000000  0.00000000  0.00000000       0.048
   0.20000000  0.20000000  0.00000000       0.096
   0.40000000  0.20000000  0.00000000       0.192
   0.40000000  0.40000000  0.00000000       0.096
   0.20000000  0.20000000  0.20000000       0.064
   0.40000000  0.20000000  0.20000000       0.192
   0.40000000  0.40000000  0.20000000       0.192
   0.40000000  0.40000000  0.40000000       0.064
 
 position of ions in fractional coordinates (direct lattice) 
   0.00000000  0.00000000  0.00000000
   0.50000000  0.50000000  0.00000000
   0.50000000  0.00000000  0.50000000
   0.00000000  0.50000000  0.50000000
 
 position of ions in cartesian coordinates  (Angst):
   0.00000000  0.00000000  0.00000000
   1.81750000  1.81750000  0.00000000
   1.81750000  0.00000000  1.81750000
   0.00000000  1.81750000  1.81750000
 


--------------------------------------------------------------------------------------------------------


 k-point   1 :   0.0000 0.0000 0.0000  plane waves:     251
 k-point   2 :   0.2000 0.0000 0.0000  plane waves:     223
 k-point   3 :   0.4000 0.0000 0.0000  plane waves:     224
 k-point   4 :   0.2000 0.2000 0.0000  plane waves:     221
 k-point   5 :   0.4000 0.2000 0.0000  plane waves:     220
 k-point   6 :   0.4000 0.4000 0.0000  plane waves:     218
 k-point   7 :   0.2000 0.2000 0.2000  plane waves:     214
 k-point   8 :   0.4000 0.2000 0.2000  plane waves:     221
 k-point   9 :   0.4000 0.4000 0.2000  plane waves:     222
 k-point  10 :   0.4000 0.4000 0.4000  plane waves:     223

 maximum number of plane-waves:       251
 maximum index in each direction: 
   IXMAX=    3   IYMAX=    3   IZMAX=    3
   IXMIN=   -4   IYMIN=   -4   IZMIN=   -4


 total amount of memory used by VASP MPI-rank0    32760. kBytes
=======================================================================

   base      :      30000. kBytes
   nonl-proj :        377. kBytes
   grid      :        771. kBytes
   one-center:         62. kBytes
   wavefun   :       1550. kBytes
 
     INWAV:  cpu time    0.0017: real time    0.0023
 Broyden mixing: mesh for mixing (old mesh)
   NGX =  7   NGY =  7   NGZ =  7
  (NGX  = 24   NGY  = 24   NGZ  = 24)
  gives a total of    343 points

 initial charge density was supplied:
 number of electron      44.0004215 magnetization 
 keeping initial charge density in first step


--------------------------------------------------------------------------------------------------------


 Maximum index for augmentation-charges         1021 (set IRDMAX)


--------------------------------------------------------------------------------------------------------


 First call to EWALD:  gamma=   0.488
 Maximum number of real-space cells 3x 3x 3
 Maximum number of reciprocal cells 3x 3x 3

    FEWALD:  cpu time    0.0008: real time    0.0008


--------------------------------------- Iteration      1(   1)  ---------------------------------------


    POTLOK:  cpu time    0.0032: real time    0.0032
    SETDIJ:  cpu time    0.0034: real time    0.0034
     EDDAV:  cpu time    0.0817: real time    0.0831
       DOS:  cpu time    0.0008: real time    0.0008
    CHARGE:  cpu time    0.0050: real time    0.0050
    MIXING:  cpu time    0.0001: real time    0.0001
    --------------------------------------------
      LOOP:  cpu time    0.0943: real time    0.0958

 eigenvalue-minimisations  :   642
 total energy-change (2. order) : 0.4506534E+02  (-0.1847970E-04)
 number of electron      44.0004221 magnetization 
 augmentation part       26.7494456 magnetization 

 Broyden mixing:
  rms(total) = 0.20262E-02    rms(broyden)= 0.18698E-02
  rms(prec ) = 0.43066E-02
  weight for this iteration     100.00

 Free energy of the ion-electron system (eV)
  ---------------------------------------------------
  alpha Z        PSCENC =       243.62337785
  Ewald energy   TEWEN  =     -4395.34838493
  -Hartree energ DENC   =     -1316.96923406
  -exchange      EXHF   =         0.00000000
  -V(xc)+E(xc)   XCENC  =       175.04519216
  PAW double counting   =      6200.74527245    -6563.05439335
  entropy T*S    EENTRO =        -0.00769698
  eigenvalues    EBANDS =       166.46298236
  atomic energy  EATOM  =      5534.56822939
  Solvation  Ediel_sol  =         0.00000000
  ---------------------------------------------------
  free energy    TOTEN  =        45.06534488 eV

  energy without entropy =       45.07304186  energy(sigma->0) =       45.06791054


--------------------------------------------------------------------------------------------------------




--------------------------------------- Iteration      1(   2)  ---------------------------------------


    POTLOK:  cpu time    0.0031: real time    0.0031
    SETDIJ:  cpu time    0.0035: real time    0.0035
     EDDAV:  cpu time    0.0548: real time    0.0548
       DOS:  cpu time    0.0009: real time    0.0009
    CHARGE:  cpu time    0.0050: real time    0.0050
    MIXING:  cpu time    0.0002: real time    0.0002
    --------------------------------------------
      LOOP:  cpu time    0.0674: real time    0.0674

 eigenvalue-minimisations  :   636
 total energy-change (2. order) : 0.2515601E-02  (-0.2225008E-04)
 number of electron      44.0004215 magnetization 
 augmentation part       26.7565906 magnetization 

 Broyden mixing:
  rms(total) = 0.26713E-02    rms(broyden)= 0.25612E-02
  rms(prec ) = 0.58798E-02
  weight for this iteration     100.00

 eigenvalues of (default mixing * dielectric matrix)
  average eigenvalue GAMMA=   0.4215
  0.4215

 Free energy of the ion-electron system (eV)
  ---------------------------------------------------
  alpha Z        PSCENC =       243.62337785
  Ewald energy   TEWEN  =     -4395.34838493
  -Hartree energ DENC   =     -1316.84153811
  -exchange      EXHF   =         0.00000000
  -V(xc)+E(xc)   XCENC  =       175.03877298
  PAW double counting   =      6200.48395974    -6562.77920278
  entropy T*S    EENTRO =        -0.00747035
  eigenvalues    EBANDS =       166.33011670
  atomic energy  EATOM  =      5534.56822939
  Solvation  Ediel_sol  =         0.00000000
  ---------------------------------------------------
  free energy    TOTEN  =        45.06786048 eV

  energy without entropy =       45.07533083  energy(sigma->0) =       45.07035060


--------------------------------------------------------------------------------------------------------




--------------------------------------- Iteration      1(   3)  ---------------------------------------


    POTLOK:  cpu time    0.0031: real time    0.0031
    SETDIJ:  cpu time    0.0035: real time    0.0035
     EDDAV:  cpu time    0.0502: real time    0.0502
       DOS:  cpu time    0.0008: real time    0.0008
    CHARGE:  cpu time    0.0048: real time    0.0048
    MIXING:  cpu time    0.0001: real time    0.0001
    --------------------------------------------
      LOOP:  cpu time    0.0625: real time    0.0626

 eigenvalue-minimisations  :   576
 total energy-change (2. order) : 0.1193482E-04  (-0.1136236E-05)
 number of electron      44.0004215 magnetization 
 augmentation part       26.7545064 magnetization 

 Broyden mixing:
  rms(total) = 0.10834E-02    rms(broyden)= 0.10800E-02
  rms(prec ) = 0.24844E-02
  weight for this iteration     100.00

 eigenvalues of (default mixing * dielectric matrix)
  average eigenvalue GAMMA=   0.6214
  0.6214  0.6214

 Free energy of the ion-electron system (eV)
  ---------------------------------------------------
  alpha Z        PSCENC =       243.62337785
  Ewald energy   TEWEN  =     -4395.34838493
  -Hartree energ DENC   =     -1316.91696520
  -exchange      EXHF   =         0.00000000
  -V(xc)+E(xc)   XCENC  =       175.04264119
  PAW double counting   =      6200.58098286    -6562.89265322
  entropy T*S    EENTRO =        -0.00748909
  eigenvalues    EBANDS =       166.41813357
  atomic energy  EATOM  =      5534.56822939
  Solvation  Ediel_sol  =         0.00000000
  ---------------------------------------------------
  free energy    TOTEN  =        45.06787242 eV

  energy without entropy =       45.07536151  energy(sigma->0) =       45.07036878


--------------------------------------------------------------------------------------------------------




--------------------------------------- Iteration      1(   4)  ---------------------------------------


    POTLOK:  cpu time    0.0029: real time    0.0029
    SETDIJ:  cpu time    0.0034: real time    0.0034
     EDDAV:  cpu time    0.0327: real time    0.0327
       DOS:  cpu time    0.0008: real time    0.0008
    CHARGE:  cpu time    0.0048: real time    0.0048
    MIXING:  cpu time    0.0002: real time    0.0002
    --------------------------------------------
      LOOP:  cpu time    0.0448: real time    0.0448

 eigenvalue-minimisations  :   300
 total energy-change (2. order) : 0.1491227E-05  (-0.1318134E-06)
 number of electron      44.0004215 magnetization 
 augmentation part       26.7538275 magnetization 

 Broyden mixing:
  rms(total) = 0.57855E-03    rms(broyden)= 0.57653E-03
  rms(prec ) = 0.13284E-02
  weight for this iteration     100.00

 eigenvalues of (default mixing * dielectric matrix)
  average eigenvalue GAMMA=   0.7009
  0.7936  0.7936  0.5154

 Free energy of the ion-electron system (eV)
  ---------------------------------------------------
  alpha Z        PSCENC =       243.62337785
  Ewald energy   TEWEN  =     -4395.34838493
  -Hartree energ DENC   =     -1316.94556039
  -exchange      EXHF   =         0.00000000
  -V(xc)+E(xc)   XCENC  =       175.04404714
  PAW double counting   =      6200.65185161    -6562.96679005
  entropy T*S    EENTRO =        -0.00749231
  eigenvalues    EBANDS =       166.44859561
  atomic energy  EATOM  =      5534.56822939
  Solvation  Ediel_sol  =         0.00000000
  ---------------------------------------------------
  free energy    TOTEN  =        45.06787391 eV

  energy without entropy =       45.07536622  energy(sigma->0) =       45.07037135


--------------------------------------------------------------------------------------------------------




--------------------------------------- Iteration      1(   5)  ---------------------------------------


    POTLOK:  cpu time    0.0030: real time    0.0030
    SETDIJ:  cpu time    0.0034: real time    0.0034
     EDDAV:  cpu time    0.0327: real time    0.0327
       DOS:  cpu time    0.0008: real time    0.0008
    --------------------------------------------
      LOOP:  cpu time    0.0399: real time    0.0399

 eigenvalue-minimisations  :   300
 total energy-change (2. order) : 0.1613025E-06  (-0.8353521E-08)
 number of electron      44.0004215 magnetization 
 augmentation part       26.7538275 magnetization 

 Free energy of the ion-electron system (eV)
  ---------------------------------------------------
  alpha Z        PSCENC =       243.62337785
  Ewald energy   TEWEN  =     -4395.34838493
  -Hartree energ DENC   =     -1316.95324727
  -exchange      EXHF   =         0.00000000
  -V(xc)+E(xc)   XCENC  =       175.04441047
  PAW double counting   =      6200.68511536    -6562.99895473
  entropy T*S    EENTRO =        -0.00749295
  eigenvalues    EBANDS =       166.45482090
  atomic energy  EATOM  =      5534.56822939
  Solvation  Ediel_sol  =         0.00000000
  ---------------------------------------------------
  free energy    TOTEN  =        45.06787407 eV

  energy without entropy =       45.07536702  energy(sigma->0) =       45.07037172


--------------------------------------------------------------------------------------------------------




 average (electrostatic) potential at core
  the test charge radii are     0.9430
  (the norm of the test charge is              1.0000)
       1 -67.1796       2 -67.1796       3 -67.1796       4 -67.1796
 
 
 
 E-fermi :   7.3406     XC(G=0): -12.3528     alpha+bet :-13.2037

 Fermi energy:         7.3406376365

 k-point     1 :       0.0000    0.0000    0.0000
  band No.  band energies     occupation 
      1      -1.6642      2.00000
      2       1.7020      2.00000
      3       1.7020      2.00000
      4       1.7020      2.00000
      5       2.0796      2.00000
      6       2.0796      2.00000
      7       2.0796      2.00000
      8       2.4033      2.00000
      9       2.4033      2.00000
     10       2.4033      2.00000
     11       3.1895      2.00000
     12       3.1895      2.00000
     13       3.1895      2.00000
     14       3.1895      2.00000
     15       3.1895      2.00000
     16       3.1895      2.00000
     17       3.4497      2.00000
     18       3.4497      2.00000
     19       3.4497      2.00000
     20       3.7522      2.00000
     21       3.7522      2.00000
     22       9.0873     -0.00000
     23       9.0873     -0.00000
     24       9.0873     -0.00000
     25      13.5191      0.00000
     26      13.5191      0.00000
     27      13.5191      0.00000
     28      20.3555      0.00000
     29      20.3555      0.00000
     30      20.3555      0.00000

 k-point     2 :       0.2000    0.0000    0.0000
  band No.  band energies     occupation 
      1      -1.1905      2.00000
      2       2.3061      2.00000
      3       2.3061      2.00000
      4       2.3402      2.00000
      5       2.5310      2.00000
      6       2.5310      2.00000
      7       2.5382      2.00000
      8       2.8173      2.00000
      9       2.8173      2.00000
     10       3.3048      2.00000
     11       3.7005      2.00000
     12       3.8260      2.00000
     13       4.1294      2.00000
     14       4.1294      2.00000
     15       4.5968      2.00000
     16       4.5968      2.00000
     17       4.7767      2.00000
     18       4.7767      2.00000
     19       4.7843      2.00000
     20       5.8613      2.00000
     21       5.8613      2.00000
     22       6.8636      2.00381
     23       9.9350     -0.00000
     24       9.9350     -0.00000
     25      13.7855      0.00000
     26      13.7855      0.00000
     27      17.0209      0.00000
     28      17.8646      0.00000
     29      17.8646      0.00000
     30      18.6230      0.00000

 k-point     3 :       0.4000    0.0000    0.0000
  band No.  band energies     occupation 
      1       0.1187      2.00000
      2       2.1670      2.00000
      3       2.1862      2.00000
      4       2.7233      2.00000
      5       2.8623      2.00000
      6       2.8812      2.00000
      7       2.8812      2.00000
      8       2.8968      2.00000
      9       2.8968      2.00000
     10       3.3210      2.00000
     11       3.3210      2.00000
     12       3.5431      2.00000
     13       3.5431      2.00000
     14       4.0386      2.00000
     15       4.0646      2.00000
     16       4.0646      2.00000
     17       4.3670      2.00000
     18       4.4961      2.00000
     19       4.4961      2.00000
     20       5.2154      2.00000
     21       5.5411      2.00000
     22       5.5411      2.00000
     23      11.9869     -0.00000
     24      11.9869     -0.00000
     25      14.6333      0.00000
     26      14.6333      0.00000
     27      14.6678      0.00000
     28      14.6678      0.00000
     29      16.3172      0.00000
     30      16.3172      0.00000

 k-point     4 :       0.2000    0.2000    0.0000
  band No.  band energies     occupation 
      1      -0.7332      2.00000
      2       2.3579      2.00000
      3       2.4559      2.00000
      4       2.5879      2.00000
      5       2.6466      2.00000
      6       2.6752      2.00000
      7       2.6752      2.00000
      8       2.7355      2.00000
      9       2.8342      2.00000
     10       2.8342      2.00000
     11       3.7173      2.00000
     12       3.8503      2.00000
     13       4.0117      2.00000
     14       4.2154      2.00000
     15       4.5942      2.00000
     16       4.5942      2.00000
     17       4.9282      2.00000
     18       5.3967      2.00000
     19       5.3967      2.00000
     20       5.8619      2.00000
     21       5.8619      2.00000
     22       7.3843      0.63993
     23       7.3843      0.63993
     24      10.6823     -0.00000
     25      13.9325      0.00000
     26      14.5570      0.00000
     27      17.3964      0.00000
     28      17.3964      0.00000
     29      18.4503      0.00000
     30      18.4503      0.00000

 k-point     5 :       0.4000    0.2000    0.0000
  band No.  band energies     occupation 
      1       0.5478      2.00000
      2       2.5280      2.00000
      3       2.5515      2.00000
      4       2.6508      2.00000
      5       2.7335      2.00000
      6       2.7352      2.00000
      7       2.7675      2.00000
      8       3.1070      2.00000
      9       3.4525      2.00000
     10       3.5920      2.00000
     11       3.6319      2.00000
     12       3.8965      2.00000
     13       3.9833      2.00000
     14       3.9983      2.00000
     15       4.1290      2.00000
     16       4.2085      2.00000
     17       4.3038      2.00000
     18       4.4205      2.00000
     19       4.5369      2.00000
     20       5.0676      2.00000
     21       6.0293      2.00000
     22       7.3827      0.65236
     23       8.9642     -0.00000
     24      11.3136     -0.00000
     25      12.6272     -0.00000
     26      15.0377      0.00000
     27      15.3457      0.00000
     28      16.7322      0.00000
     29      18.5752      0.00000
     30      20.0067      0.00000

 k-point     6 :       0.4000    0.4000    0.0000
  band No.  band energies     occupation 
      1       1.9038      2.00000
      2       2.3905      2.00000
      3       2.6661      2.00000
      4       2.6661      2.00000
      5       2.8768      2.00000
      6       2.9918      2.00000
      7       2.9918      2.00000
      8       3.1837      2.00000
      9       3.4612      2.00000
     10       3.4612      2.00000
     11       3.5161      2.00000
     12       3.7867      2.00000
     13       3.8744      2.00000
     14       4.2135      2.00000
     15       4.2135      2.00000
     16       4.3809      2.00000
     17       4.6683      2.00000
     18       4.6683      2.00000
     19       5.3088      2.00000
     20       5.4051      2.00000
     21       6.5121      2.00000
     22       6.5121      2.00000
     23       6.9849      2.03052
     24       8.1087     -0.00000
     25      14.5186      0.00000
     26      16.1297      0.00000
     27      16.8263      0.00000
     28      16.8263      0.00000
     29      17.9602      0.00000
     30      17.9602      0.00000

 k-point     7 :       0.2000    0.2000    0.2000
  band No.  band energies     occupation 
      1      -0.2848      2.00000
      2       2.5681      2.00000
      3       2.5681      2.00000
      4       2.5681      2.00000
      5       2.6800      2.00000
      6       2.6800      2.00000
      7       3.1696      2.00000
      8       3.2202      2.00000
      9       3.2202      2.00000
     10       3.2202      2.00000
     11       3.8098      2.00000
     12       3.8098      2.00000
     13       4.7509      2.00000
     14       4.7509      2.00000
     15       4.7509      2.00000
     16       5.4656      2.00000
     17       5.4656      2.00000
     18       5.4656      2.00000
     19       6.7572      2.00029
     20       6.7572      2.00029
     21       6.7572      2.00029
     22       7.9667     -0.00009
     23       7.9667     -0.00009
     24       7.9667     -0.00009
     25      14.9947      0.00000
     26      14.9947      0.00000
     27      14.9947      0.00000
     28      17.7888      0.00000
     29      17.7888      0.00000
     30      17.7888      0.00000

 k-point     8 :       0.4000    0.2000    0.2000
  band No.  band energies     occupation 
      1       0.9945      2.00000
      2       2.5712      2.00000
      3       2.5712      2.00000
      4       2.6141      2.00000
      5       2.7663      2.00000
      6       2.8385      2.00000
      7       2.9615      2.00000
      8       3.0865      2.00000
      9       3.1091      2.00000
     10       3.1091      2.00000
     11       3.5504      2.00000
     12       3.5504      2.00000
     13       4.0559      2.00000
     14       4.1186      2.00000
     15       4.1186      2.00000
     16       4.3791      2.00000
     17       4.5508      2.00000
     18       4.6274      2.00000
     19       4.6274      2.00000
     20       5.0315      2.00000
     21       6.4322      2.00000
     22       6.5534      2.00000
     23       9.3181     -0.00000
     24       9.3181     -0.00000
     25      12.0252     -0.00000
     26      12.0252     -0.00000
     27      16.5998      0.00000
     28      18.7823      0.00000
     29      18.9039      0.00000
     30      18.9039      0.00000

 k-point     9 :       0.4000    0.4000    0.2000
  band No.  band energies     occupation 
      1       2.1945      2.00000
      2       2.2118      2.00000
      3       2.5955      2.00000
      4       2.5955      2.00000
      5       2.9714      2.00000
      6       3.0007      2.00000
      7       3.0007      2.00000
      8       3.0217      2.00000
      9       3.0665      2.00000
     10       3.1044      2.00000
     11       3.4683      2.00000
     12       3.4683      2.00000
     13       3.5122      2.00000
     14       3.8639      2.00000
     15       3.9999      2.00000
     16       3.9999      2.00000
     17       4.5160      2.00000
     18       4.8556      2.00000
     19       5.4574      2.00000
     20       5.4574      2.00000
     21       6.6623      2.00002
     22       6.6623      2.00002
     23       7.0647      2.06497
     24       8.2700     -0.00000
     25      11.2521     -0.00000
     26      13.4293      0.00000
     27      13.4293      0.00000
     28      15.8059      0.00000
     29      20.1405      0.00000
     30      22.1831      0.00000

 k-point    10 :       0.4000    0.4000    0.4000
  band No.  band energies     occupation 
      1       1.8375      2.00000
      2       2.0696      2.00000
      3       2.0696      2.00000
      4       2.0696      2.00000
      5       2.6457      2.00000
      6       2.6457      2.00000
      7       2.9271      2.00000
      8       2.9271      2.00000
      9       2.9271      2.00000
     10       3.1116      2.00000
     11       3.1116      2.00000
     12       3.1116      2.00000
     13       4.3067      2.00000
     14       4.3067      2.00000
     15       4.3067      2.00000
     16       4.8793      2.00000
     17       4.8954      2.00000
     18       4.8954      2.00000
     19       7.0456      2.05749
     20       7.0456      2.05749
     21       7.0456      2.05749
     22       7.7465     -0.01454
     23       7.7465     -0.01454
     24       7.7465     -0.01454
     25      10.6408     -0.00000
     26      10.6408     -0.00000
     27      10.6408     -0.00000
     28      12.6192     -0.00000
     29      25.5930      0.00000
     30      25.5930      0.00000


--------------------------------------------------------------------------------------------------------


 soft charge-density along one line, spin component           1
         0         1         2         3         4         5         6         7         8         9
x    17.2466    0.0000   -0.0000    0.0000    1.3469    0.0000   -0.0000   -0.0000   -0.5646    0.0000
x     0.0000    0.0000    0.0000    0.0000
y    17.2466    0.0000   -0.0000    0.0000    1.3469    0.0000   -0.0000   -0.0000   -0.5646    0.0000
y     0.0000    0.0000    0.0000    0.0000
z    17.2466    0.0000   -0.0000    0.0000    1.3469    0.0000   -0.0000   -0.0000   -0.5646    0.0000
z     0.0000    0.0000    0.0000    0.0000
 total charge-density along one line
x    44.0004    0.0000   -0.0000   -0.0000   18.6217   -0.0000    0.0000    0.0000    3.2486   -0.0000
x    -0.0000   -0.0000   -0.0503    0.0000   -0.0000   -0.0000    0.0248   -0.0000   -0.0000    0.0000
x    -0.0084    0.0000   -0.0000   -0.0000    0.0058    0.0000
y    44.0004    0.0000   -0.0000   -0.0000   18.6217    0.0000   -0.0000    0.0000    3.2486   -0.0000
y    -0.0000    0.0000   -0.0503   -0.0000    0.0000    0.0000    0.0248   -0.0000    0.0000    0.0000
y    -0.0084   -0.0000   -0.0000    0.0000    0.0058    0.0000
z    44.0004    0.0000    0.0000    0.0000   18.6217    0.0000   -0.0000    0.0000    3.2486    0.0000
z     0.0000    0.0000   -0.0503   -0.0000   -0.0000    0.0000    0.0248    0.0000    0.0000    0.0000
z    -0.0084   -0.0000   -0.0000    0.0000    0.0058    0.0000
 
 pseudopotential strength for first ion, spin component:           1
 -6.031   0.000  -0.000   0.000   0.000  -2.203  -0.000   0.000
  0.000  -6.031  -0.000  -0.000   0.000  -0.000  -2.203   0.000
 -0.000  -0.000  -6.007   0.000  -0.000   0.000   0.000  -2.220
  0.000  -0.000   0.000  -6.031   0.000  -0.000   0.000  -0.000
  0.000   0.000  -0.000   0.000  -6.007  -0.000  -0.000   0.000
 -2.203  -0.000   0.000  -0.000  -0.000   8.255   0.000  -0.000
 -0.000  -2.203   0.000   0.000  -0.000   0.000   8.255  -0.000
  0.000   0.000  -2.220  -0.000   0.000  -0.000  -0.000   8.266
 -0.000   0.000  -0.000  -2.203  -0.000  -0.000  -0.000   0.000
 -0.000  -0.000   0.000  -0.000  -2.220   0.000   0.000  -0.000
  0.000   0.000   0.000  -0.000  -0.000   0.000   0.000  -0.000
  0.000   0.000   0.000  -0.000  -0.000   0.000   0.000   0.000
  0.000   0.000  -0.000   0.000  -0.000  -0.000  -0.000   0.000
  0.000   0.000   0.000   0.000   0.000   0.000  -0.000   0.000
  0.000   0.000  -0.000   0.000   0.000  -0.000   0.000  -0.000
  0.000   0.000  -0.000  -0.000  -0.000  -0.000  -0.000  -0.000
 -0.000   0.000   0.000   0.000  -0.000   0.000   0.000   0.000
  0.000  -0.000  -0.000   0.000   0.000   0.000   0.000  -0.000
 total augmentation occupancy for first ion, spin component:           1
  2.244  -0.000   0.000  -0.000   0.000   0.280  -0.000   0.000   0.000  -0.000  -0.000  -0.000   0.000  -0.000   0.000   0.000
  0.000   2.244  -0.000  -0.000  -0.000  -0.000   0.280   0.000  -0.000   0.000  -0.000  -0.000  -0.000  -0.000   0.000   0.000
 -0.000   0.000   2.298  -0.000   0.000  -0.000   0.000   0.280  -0.000   0.000  -0.000  -0.000  -0.000   0.000   0.000  -0.000
 -0.000  -0.000  -0.000   2.244  -0.000  -0.000  -0.000  -0.000   0.280   0.000  -0.000   0.000  -0.000   0.000   0.000   0.000
 -0.000  -0.000  -0.000   0.000   2.298  -0.000  -0.000  -0.000  -0.000   0.280  -0.000   0.000   0.000  -0.000   0.000  -0.000
  0.280  -0.000  -0.000   0.000   0.000   0.053   0.000  -0.000  -0.000   0.000  -0.000   0.000   0.000   0.000   0.000  -0.000
  0.000   0.280   0.000   0.000   0.000  -0.000   0.053  -0.000   0.000   0.000  -0.000   0.000  -0.000  -0.000  -0.000  -0.000
  0.000   0.000   0.280   0.000   0.000   0.000  -0.000   0.053   0.000   0.000   0.000   0.000  -0.000   0.000   0.000   0.000
 -0.000   0.000  -0.000   0.280  -0.000   0.000  -0.000   0.000   0.053  -0.000  -0.000  -0.000  -0.000  -0.000  -0.000  -0.000
  0.000  -0.000  -0.000   0.000   0.280   0.000   0.000   0.000  -0.000   0.053   0.000  -0.000  -0.000   0.000   0.000  -0.000
 -0.000   0.000  -0.000   0.000  -0.000  -0.000  -0.000   0.000  -0.000  -0.000   2.681  -0.678  -0.000   0.000   0.000   0.000
 -0.000  -0.000  -0.000  -0.000   0.000   0.000   0.000  -0.000  -0.000   0.000  -0.678   0.328  -0.000   0.000  -0.000  -0.000
  0.000  -0.000  -0.000   0.000   0.000   0.000  -0.000  -0.000   0.000  -0.000  -0.000  -0.000   0.664  -0.000  -0.000  -0.256
  0.000  -0.000   0.000   0.000   0.000   0.000  -0.000  -0.000  -0.000   0.000   0.000   0.000  -0.000   0.664   0.000  -0.000
  0.000  -0.000   0.000   0.000   0.000   0.000  -0.000   0.000  -0.000   0.000   0.000  -0.000  -0.000  -0.000   0.664   0.000
  0.000   0.000   0.000  -0.000   0.000  -0.000  -0.000   0.000   0.000   0.000   0.000  -0.000  -0.256  -0.000   0.000   0.129
  0.000   0.000  -0.000   0.000   0.000  -0.000   0.000   0.000  -0.000   0.000   0.000  -0.000   0.000  -0.256   0.000   0.000
  0.000   0.000   0.000  -0.000  -0.000   0.000  -0.000  -0.000   0.000   0.000  -0.000   0.000  -0.000  -0.000  -0.256   0.000


------------------------ aborting loop because EDIFF is reached ----------------------------------------


    CHARGE:  cpu time    0.0048: real time    0.0048
    FORLOC:  cpu time    0.0003: real time    0.0002
    FORNL :  cpu time    0.0167: real time    0.0167
    STRESS:  cpu time    0.0244: real time    0.0244
    FORCOR:  cpu time    0.0031: real time    0.0031
    FORHAR:  cpu time    0.0007: real time    0.0007
    MIXING:  cpu time    0.0001: real time    0.0001

  FORCE on cell =-STRESS in cart. coord.  units (eV):
  Direction    XX          YY          ZZ          XY          YZ          ZX
  --------------------------------------------------------------------------------------
  Alpha Z   243.62338   243.62338   243.62338
  Ewald   -1465.11677 -1465.11677 -1465.11677     0.00000     0.00000     0.00000
  Hartree   439.01317   439.01318   439.01318    -0.00000    -0.00000    -0.00000
  E(xc)    -255.76418  -255.76418  -255.76418    -0.00000     0.00000     0.00000
  Local     314.79805   314.79805   314.79805    -0.00000    -0.00000     0.00000
  n-local  -583.56015  -587.49241  -593.77674    -5.47636     0.49650     0.65095
  augment   389.31810   389.31810   389.31810    -0.00000     0.00000    -0.00000
  Kinetic   512.64744   501.81229   495.42235    -4.13960     2.29820     2.16246
  Fock        0.00000     0.00000     0.00000     0.00000     0.00000     0.00000
  -------------------------------------------------------------------------------------
  Total    -419.11067  -419.11067  -419.11067     0.00000     0.00000    -0.00000
  in kB  -13980.60778-13980.60778-13980.60778     0.00000     0.00000    -0.00000
  external pressure =   -13980.61 kB  Pullay stress =        0.00 kB


 VOLUME and BASIS-vectors are now :
 -----------------------------------------------------------------------------
  energy-cutoff  :      160.00
  volume of cell :       48.03
      direct lattice vectors                 reciprocal lattice vectors
     3.635000000  0.000000000  0.000000000     0.275103164  0.000000000  0.000000000
     0.000000000  3.635000000  0.000000000     0.000000000  0.275103164  0.000000000
     0.000000000  0.000000000  3.635000000     0.000000000  0.000000000  0.275103164

  length of vectors
     3.635000000  3.635000000  3.635000000     0.275103164  0.275103164  0.275103164


 FORCES acting on ions
    electron-ion (+dipol)            ewald-force                    non-local-force                 convergence-correction
 -----------------------------------------------------------------------------------------------
   -.316E-12 0.105E-13 0.339E-13   0.103E-13 0.597E-14 -.166E-13   -.104E-24 0.647E-25 0.808E-25   0.155E-12 -.355E-13 -.106E-12
   0.374E-12 0.686E-12 0.320E-13   0.175E-13 0.141E-13 -.168E-13   -.386E-24 0.247E-24 -.121E-24   -.499E-12 -.262E-12 -.182E-12
   0.386E-12 0.311E-14 0.714E-12   -.529E-14 -.138E-13 0.159E-13   0.166E-28 -.167E-24 0.867E-25   -.389E-12 -.331E-13 -.131E-12
   -.317E-12 0.681E-12 0.713E-12   -.204E-13 -.566E-14 0.157E-13   0.637E-25 0.349E-25 0.849E-25   -.759E-13 -.154E-12 -.120E-12
 -----------------------------------------------------------------------------------------------
   0.128E-12 0.138E-11 0.149E-11   0.207E-14 0.619E-15 -.180E-14   -.426E-24 0.180E-24 0.131E-24   -.809E-12 -.484E-12 -.539E-12
 
 
 POSITION                                       TOTAL-FORCE (eV/Angst)
 -----------------------------------------------------------------------------------
      0.00000      0.00000      0.00000         0.000000      0.000000      0.000000
      1.81750      1.81750      0.00000        -0.000000      0.000000     -0.000000
      1.81750      0.00000      1.81750        -0.000000     -0.000000      0.000000
      0.00000      1.81750      1.81750        -0.000000     -0.000000      0.000000
 -----------------------------------------------------------------------------------
    total drift:                               -0.000000      0.000000      0.000000


--------------------------------------------------------------------------------------------------------



  FREE ENERGIE OF THE ION-ELECTRON SYSTEM (eV)
  ---------------------------------------------------
  free  energy   TOTEN  =        45.06787407 eV

  energy  without entropy=       45.07536702  energy(sigma->0) =       45.07037172
 


--------------------------------------------------------------------------------------------------------


    POTLOK:  cpu time    0.0065: real time    0.0065


--------------------------------------------------------------------------------------------------------


 writing wavefunctions
     LOOP+:  cpu time    0.3796: real time    0.3811
    4ORBIT:  cpu time    0.0000: real time    0.0000

 total amount of memory used by VASP MPI-rank0    32760. kBytes
=======================================================================

   base      :      30000. kBytes
   nonl-proj :        377. kBytes
   grid      :        771. kBytes
   one-center:         62. kBytes
   wavefun   :       1550. kBytes
 
  
  
 General timing and accounting informations for this job:
 ========================================================
  
                  Total CPU time used (sec):        0.496
                            User time (sec):        0.472
                          System time (sec):        0.024
                         Elapsed time (sec):        0.487
  
                   Maximum memory used (kb):       37488.
                   Average memory used (kb):          N/A
  
                          Minor page faults:         2808
                          Major page faults:            0
                 Voluntary context switches:           26
