unknown system                          
   1.00000000000000     
     2.330000    0.000000    0.000000
    -1.165000    2.017839    0.000000
     0.000000    0.000000    4.100000
   Fe
     2
Direct
  0.000000  0.000000  0.000000
  0.333333  0.666667  0.500000
 
   20   20   32
  162.01      153.52      130.69      99.981      68.696      42.439      24.097      13.904      9.8971      8.7890    
  8.4442      8.7891      9.8972      13.904      24.097      42.439      68.696      99.981      130.69      153.52    
  153.53      153.52      137.90      111.31      80.714      52.548      30.969      17.460      11.084      9.0955    
  8.4413      8.4409      9.0951      11.084      17.459      30.967      52.546      80.718      111.32      137.92    
  130.70      137.88      130.69      111.31      85.161      58.480      36.167      20.797      12.516      9.4133    
  8.4624      8.1388      8.4616      9.4132      12.516      20.796      36.163      58.477      85.164      111.32    
  99.977      111.25      111.25      99.982      80.714      58.479      38.104      22.819      13.706      9.7603    
  8.4975      7.9207      7.9203      8.4972      9.7612      13.708      22.819      38.101      58.473      80.708    
  68.683      80.620      85.037      80.630      68.695      52.548      36.167      22.819      14.169      10.001    
  8.5300      7.7927      7.5378      7.7926      8.5301      10.002      14.172      22.823      36.167      52.540    
  42.437      52.472      58.347      58.351      52.478      42.439      30.969      20.797      13.706      10.001    
  8.5433      7.7375      7.3229      7.3231      7.7372      8.5418      10.000      13.710      20.805      30.975    
  24.106      30.947      36.096      38.009      36.092      30.939      24.097      17.460      12.516      9.7604    
  8.5301      7.7375      7.2552      7.0989      7.2559      7.7363      8.5261      9.7564      12.516      17.466    
  13.904      17.475      20.803      22.806      22.802      20.794      17.469      13.904      11.084      9.4134    
  8.4975      7.7927      7.3228      7.0988      7.0997      7.3244      7.7924      8.4932      9.4059      11.078    
  9.8875      11.105      12.560      13.758      14.221      13.756      12.560      11.112      9.8973      9.0955    
  8.4622      7.9206      7.5377      7.3230      7.2559      7.3244      7.5411      7.9245      8.4622      9.0889    
  8.7888      9.1206      9.4650      9.8344      10.087      10.089      9.8393      9.4724      9.1267      8.7889    
  8.4410      8.1386      7.9203      7.7925      7.7372      7.7363      7.7923      7.9245      8.1467      8.4474    
  8.4533      8.4796      8.5241      8.5792      8.6277      8.6488      8.6316      8.5831      8.5235      8.4730    
  8.4439      8.4407      8.4616      8.4973      8.5301      8.5418      8.5261      8.4933      8.4624      8.4475    
  8.7887      8.4795      8.2096      8.0145      7.9026      7.8576      7.8584      7.9028      8.0103      8.2017    
  8.4733      8.7890      9.0952      9.4135      9.7613      10.002      10.000      9.7564      9.4060      9.0890    
  9.8874      9.1205      8.5241      8.0144      7.6548      7.4544      7.3918      7.4532      7.6515      8.0106    
  8.5241      9.1270      9.8973      11.084      12.517      13.708      14.173      13.710      12.516      11.078    
  13.904      11.105      9.4649      8.5791      7.9025      7.4544      7.2413      7.2404      7.4530      7.9029    
  8.5833      9.4722      11.112      13.904      17.460      20.796      22.819      22.823      20.805      17.466    
  24.107      17.475      12.560      9.8344      8.6277      7.8577      7.3920      7.2404      7.3912      7.8587    
  8.6316      9.8383      12.560      17.469      24.097      30.967      36.163      38.100      36.167      30.975    
  42.438      30.947      20.803      13.758      10.087      8.6489      7.8585      7.4532      7.4529      7.8587    
  8.6503      10.088      13.754      20.795      30.941      42.439      52.546      58.477      58.474      52.540    
  68.683      52.472      36.096      22.807      14.221      10.089      8.6316      7.9028      7.6515      7.9029    
  8.6316      10.088      14.217      22.803      36.096      52.479      68.695      80.718      85.165      80.708    
  99.977      80.620      58.347      38.009      22.802      13.756      9.8391      8.5830      8.0103      8.0107    
  8.5833      9.8382      13.754      22.802      38.012      58.353      80.626      99.982      111.32      111.32    
  130.70      111.25      85.036      58.351      36.092      20.794      12.560      9.4722      8.5235      8.2018    
  8.5241      9.4721      12.559      20.795      36.096      58.353      85.033      111.24      130.69      137.92    
  153.53      137.88      111.25      80.630      52.478      30.939      17.469      11.112      9.1266      8.4731    
  8.4735      9.1270      11.112      17.469      30.941      52.480      80.626      111.24      137.87      153.52    
  151.72      143.80      122.46      93.698      64.359      39.756      22.657      13.271      9.6561      8.6233    
  8.2886      8.6235      9.6562      13.271      22.657      39.756      64.359      93.698      122.46      143.80    
  143.81      143.80      129.20      104.31      75.621      49.206      29.030      16.510      10.703      8.9105    
  8.2748      8.2745      8.9101      10.703      16.510      29.028      49.205      75.625      104.32      129.21    
  122.47      129.19      122.46      104.31      79.788      54.757      33.867      19.573      11.979      9.1903    
  8.2893      7.9767      8.2884      9.1902      11.980      19.572      33.863      54.754      79.791      104.32    
  93.695      104.26      104.26      93.699      75.621      54.757      35.672      21.436      13.050      9.4886    
  8.3206      7.7644      7.7641      8.3203      9.4894      13.051      21.436      35.668      54.751      75.615    
  64.347      75.555      79.702      75.565      64.359      49.206      33.867      21.436      13.468      9.6960    
  8.3511      7.6408      7.3970      7.6407      8.3512      9.6970      13.471      21.439      33.867      49.199    
  39.754      49.163      54.679      54.682      49.169      39.755      29.030      19.573      13.050      9.6960    
  8.3638      7.5877      7.1920      7.1923      7.5875      8.3624      9.6957      13.054      19.580      29.035    
  22.666      29.040      33.855      35.646      33.851      29.033      22.657      16.510      11.980      9.4887    
  8.3512      7.5877      7.1277      6.9792      7.1283      7.5867      8.3476      9.4851      11.980      16.516    
  13.271      16.555      19.636      21.497      21.493      19.628      16.549      13.271      10.703      9.1904    
  8.3206      7.6407      7.1919      6.9791      6.9800      7.1934      7.6405      8.3167      9.1834      10.697    
  9.6471      10.752      12.078      13.175      13.600      13.173      12.078      10.759      9.6563      8.9105    
  8.2891      7.7643      7.3969      7.1921      7.1283      7.1934      7.4000      7.7679      8.2891      8.9044    
  8.6231      8.9626      9.2944      9.6357      9.8674      9.8688      9.6401      9.3012      8.9682      8.6232    
  8.2745      7.9765      7.7640      7.6406      7.5876      7.5867      7.6404      7.7679      7.9840      8.2805    
  8.2970      8.3390      8.4026      8.4763      8.5382      8.5641      8.5418      8.4798      8.4019      8.3328    
  8.2883      8.2742      8.2885      8.3204      8.3512      8.3625      8.3475      8.3167      8.2893      8.2805    
  8.6230      8.3389      8.0985      7.9323      7.8433      7.8108      7.8116      7.8435      7.9285      8.0911    
  8.3331      8.6233      8.9102      9.1904      9.4896      9.6971      9.6957      9.4851      9.1836      8.9045    
  9.6471      8.9625      8.4026      7.9323      7.6076      7.4308      7.3766      7.4298      7.6046      7.9288    
  8.4025      8.9686      9.6563      10.703      11.980      13.051      13.471      13.054      11.980      10.697    
  13.271      10.752      9.2943      8.4762      7.8433      7.4309      7.2373      7.2365      7.4295      7.8436    
  8.4800      9.3011      10.758      13.271      16.510      19.572      21.436      21.439      19.580      16.516    
  22.666      16.555      12.078      9.6356      8.5381      7.8109      7.3767      7.2365      7.3760      7.8118    
  8.5418      9.6393      12.077      16.550      22.657      29.028      33.863      35.668      33.867      29.035    
  39.754      29.041      19.636      13.175      9.8674      8.5641      7.8117      7.4298      7.4295      7.8118    
  8.5654      9.8678      13.172      19.629      29.035      39.755      49.204      54.754      54.751      49.199    
  64.347      49.163      33.855      21.497      13.600      9.8687      8.5417      7.8435      7.6047      7.8436    
  8.5417      9.8677      13.597      21.493      33.855      49.170      64.359      75.625      79.791      75.616    
  93.695      75.555      54.679      35.646      21.493      13.173      9.6399      8.4797      7.9285      7.9289    
  8.4800      9.6391      13.171      21.493      35.649      54.684      75.561      93.699      104.32      104.32    
  122.47      104.26      79.701      54.682      33.852      19.628      12.078      9.3010      8.4020      8.0913    
  8.4026      9.3009      12.077      19.629      33.855      54.684      79.698      104.25      122.46      129.21    
  143.81      129.19      104.26      75.565      49.169      29.034      16.549      10.758      8.9682      8.3330    
  8.3334      8.9686      10.758      16.549      29.035      49.170      75.561      104.25      129.17      143.80    
  124.59      118.12      100.66      77.025      52.860      32.695      18.939      11.688      9.0520      8.1775    
  7.8732      8.1776      9.0521      11.688      18.939      32.695      52.860      77.025      100.66      118.12    
  118.13      118.12      106.18      85.734      62.102      40.373      23.974      14.097      9.7603      8.4129    
  7.8316      7.8312      8.4125      9.7606      14.097      23.972      40.372      62.105      85.742      106.19    
  100.67      106.18      100.66      85.734      65.522      44.900      27.837      16.430      10.643      8.6186    
  7.8251      7.5452      7.8243      8.6184      10.644      16.430      27.835      44.898      65.524      85.741    
  77.022      85.737      85.738      77.025      62.102      44.900      29.285      17.867      11.402      8.8056    
  7.8417      7.3456      7.3452      7.8413      8.8061      11.403      17.867      29.283      44.896      62.097    
  52.851      62.113      65.542      62.120      52.860      40.372      27.837      17.868      11.703      8.9339    
  7.8631      7.2305      7.0178      7.2305      7.8631      8.9346      11.705      17.870      27.837      40.367    
  32.694      40.420      44.968      44.970      40.424      32.694      23.973      16.430      11.403      8.9340    
  7.8726      7.1813      6.8375      6.8378      7.1813      7.8716      8.9336      11.405      16.436      23.978    
  18.946      24.070      27.983      29.445      27.980      24.064      18.939      14.097      10.643      8.8059    
  7.8632      7.1813      6.7813      6.6538      6.7819      7.1806      7.8604      8.8030      10.644      14.102    
  11.687      14.219      16.641      18.121      18.118      16.635      14.215      11.688      9.7607      8.6188    
  7.8418      7.2305      6.8374      6.6538      6.6544      6.8385      7.2302      7.8386      8.6133      9.7559    
  9.0449      9.8804      10.877      11.711      12.037      11.710      10.877      9.8854      9.0523      8.4130    
  7.8250      7.3454      7.0176      6.8376      6.7819      6.8385      7.0199      7.3481      7.8249      8.4081    
  8.1773      8.5305      8.8492      9.1277      9.3076      9.3086      9.1311      8.8545      8.5349      8.1773    
  7.8312      7.5449      7.3451      7.2305      7.1813      7.1806      7.2302      7.3482      7.5509      7.8360    
  7.8797      7.9565      8.0587      8.1673      8.2533      8.2873      8.2560      8.1700      8.0580      7.9515    
  7.8727      7.8309      7.8244      7.8415      7.8632      7.8717      7.8604      7.8387      7.8251      7.8360    
  8.1772      7.9565      7.7839      7.6789      7.6351      7.6259      7.6266      7.6353      7.6759      7.7780    
  7.9518      8.1774      8.4127      8.6188      8.8064      8.9347      8.9337      8.8030      8.6135      8.4082    
  9.0449      8.5304      8.0586      7.6789      7.4291      7.3002      7.2624      7.2996      7.4270      7.6762    
  8.0586      8.5352      9.0523      9.7610      10.644      11.403      11.705      11.405      10.644      9.7559    
  11.687      9.8804      8.8491      8.1672      7.6350      7.3003      7.1475      7.1470      7.2993      7.6353    
  8.1702      8.8544      9.8851      11.688      14.097      16.430      17.867      17.870      16.436      14.102    
  18.946      14.219      10.877      9.1277      8.2532      7.6260      7.2625      7.1470      7.2618      7.6266    
  8.2560      9.1306      10.876      14.215      18.939      23.972      27.834      29.283      27.837      23.978    
  32.694      24.070      16.641      11.711      9.3076      8.2874      7.6267      7.2996      7.2993      7.6266    
  8.2883      9.3080      11.709      16.636      24.065      32.694      40.371      44.898      44.896      40.367    
  52.851      40.420      27.983      18.121      12.037      9.3085      8.2559      7.6353      7.4270      7.6353    
  8.2559      9.3079      12.035      18.118      27.982      40.425      52.860      62.105      65.525      62.098    
  77.022      62.113      44.968      29.445      18.118      11.709      9.1308      8.1699      7.6760      7.6763    
  8.1702      9.1303      11.708      18.118      29.448      44.972      62.118      77.025      85.743      85.741    
  100.67      85.737      65.541      44.970      27.980      16.635      10.877      8.8542      8.0581      7.7782    
  8.0587      8.8542      10.876      16.636      27.983      44.973      65.539      85.730      100.66      106.19    
  118.13      106.18      85.738      62.120      40.424      24.065      14.214      9.8851      8.5348      7.9518    
  7.9522      8.5352      9.8848      14.214      24.066      40.425      62.118      85.730      106.17      118.12    
  89.591      84.962      72.413      55.381      38.015      23.762      14.435      9.8881      8.3153      7.5801    
  7.3249      7.5802      8.3154      9.8881      14.435      23.762      38.015      55.381      72.413      84.962    
  84.964      84.962      76.370      61.627      44.587      29.075      17.709      11.272      8.6918      7.7376    
  7.2473      7.2470      7.7373      8.6921      11.272      17.709      29.074      44.588      61.632      76.375    
  72.417      76.397      72.414      61.628      47.026      32.239      20.280      12.672      9.1286      7.8770    
  7.2056      6.9761      7.2049      7.8768      9.1291      12.672      20.279      32.237      47.027      61.631    
  55.379      61.695      61.696      55.381      44.587      32.238      21.254      13.557      9.5162      7.9760    
  7.1918      6.7870      6.7867      7.1913      7.9762      9.5168      13.557      21.252      32.235      44.584    
  38.009      44.701      47.185      44.705      38.015      29.074      20.280      13.557      9.6733      8.0299    
  7.1921      6.6760      6.5072      6.6760      7.1921      8.0302      9.6745      13.559      20.280      29.072    
  23.762      29.240      32.497      32.499      29.242      23.762      17.709      12.672      9.5164      8.0300    
  7.1940      6.6271      6.3550      6.3553      6.6274      7.1935      8.0297      9.5181      12.676      17.712    
  14.440      17.915      20.627      21.651      20.626      17.912      14.435      11.272      9.1290      7.9763    
  7.1922      6.6271      6.3077      6.2077      6.3082      6.6268      7.1905      7.9744      9.1291      11.275    
  9.8878      11.489      13.068      14.051      14.049      13.064      11.486      9.8884      8.6923      7.8773    
  7.1918      6.6759      6.3548      6.2076      6.2080      6.3555      6.6757      7.1898      7.8737      8.6890    
  8.3106      8.8966      9.5249      10.046      10.250      10.045      9.5253      8.9001      8.3156      7.7377    
  7.2054      6.7868      6.5070      6.3551      6.3082      6.3555      6.5083      6.7885      7.2054      7.7345    
  7.5799      7.9312      8.2538      8.4988      8.6343      8.6349      8.5009      8.2572      7.9340      7.5799    
  7.2468      6.9758      6.7865      6.6760      6.6274      6.6268      6.6757      6.7886      6.9798      7.2500    
  7.3291      7.4403      7.5718      7.7014      7.7987      7.8358      7.8004      7.7030      7.5712      7.4369    
  7.3244      7.2466      7.2049      7.1915      7.1922      7.1935      7.1905      7.1899      7.2056      7.2501    
  7.5798      7.4402      7.3411      7.2919      7.2822      7.2880      7.2885      7.2824      7.2899      7.3371    
  7.4371      7.5799      7.7374      7.8772      7.9765      8.0303      8.0297      7.9744      7.8738      7.7346    
  8.3106      7.9311      7.5718      7.2918      7.1137      7.0249      6.9996      7.0247      7.1125      7.2901    
  7.5717      7.9343      8.3156      8.6926      9.1295      9.5169      9.6744      9.5180      9.1290      8.6890    
  9.8878      8.8966      8.2538      7.7013      7.2821      7.0249      6.9095      6.9092      7.0244      7.2823    
  7.7033      8.2572      8.8998      9.8885      11.272      12.672      13.557      13.558      12.676      11.275    
  14.440      11.489      9.5249      8.4988      7.7987      7.2881      6.9998      6.9092      6.9991      7.2882    
  7.8004      8.5007      9.5247      11.486      14.435      17.709      20.278      21.252      20.280      17.712    
  23.762      17.915      13.068      10.046      8.6343      7.8358      7.2886      7.0248      7.0244      7.2882    
  7.8363      8.6347      10.045      13.064      17.912      23.762      29.074      32.237      32.236      29.072    
  38.009      29.240      20.627      14.051      10.250      8.6348      7.8003      7.2824      7.1126      7.2824    
  7.8003      8.6345      10.249      14.049      20.627      29.242      38.015      44.589      47.027      44.584    
  55.379      44.700      32.497      21.651      14.049      10.045      8.5006      7.7028      7.2901      7.2903    
  7.7032      8.5004      10.044      14.049      21.653      32.500      44.703      55.381      61.633      61.632    
  72.417      61.694      47.184      32.499      20.626      13.064      9.5249      8.2568      7.5713      7.3375    
  7.5718      8.2570      9.5244      13.064      20.627      32.500      47.183      61.690      72.414      76.376    
  84.964      76.397      61.695      44.705      29.242      17.912      11.486      8.8997      7.9339      7.4372    
  7.4375      7.9343      8.8994      11.486      17.912      29.243      44.703      61.690      76.391      84.962    
  56.311      53.401      45.517      34.871      24.205      15.803      10.725      8.5090      7.5608      6.9783    
  6.7845      6.9784      7.5608      8.5090      10.725      15.803      24.205      34.872      45.517      53.401    
  53.402      53.401      47.985      38.721      28.138      18.788      12.344      9.0579      7.7787      7.0415    
  6.6671      6.6669      7.0413      7.7790      9.0584      12.344      18.787      28.139      38.723      47.988    
  45.519      48.035      45.518      38.722      29.610      20.602      13.672      9.6407      7.9374      7.0983    
  6.5804      6.4102      6.5798      7.0981      7.9378      9.6411      13.671      20.601      29.610      38.723    
  34.871      38.848      38.848      34.872      28.138      20.602      14.185      10.025      8.0531      7.1373    
  6.5236      6.2240      6.2237      6.5232      7.1373      8.0534      10.025      14.184      20.600      28.136    
  24.202      28.344      29.895      28.346      24.204      18.787      13.672      10.025      8.0995      7.1561    
  6.4926      6.1080      5.9860      6.1081      6.4926      7.1560      8.0998      10.026      13.672      18.786    
  15.803      19.057      21.031      21.032      19.058      15.802      12.344      9.6409      8.0534      7.1562    
  6.4829      6.0537      5.8552      5.8555      6.0541      6.4828      7.1559      8.0541      9.6428      12.346    
  10.727      12.648      14.199      14.794      14.198      12.646      10.725      9.0581      7.9378      7.1376    
  6.4927      6.0537      5.8140      5.7402      5.8145      6.0537      6.4919      7.1366      7.9378      9.0596    
  8.5087      9.3620      10.203      10.735      10.735      10.201      9.3610      8.5093      7.7792      7.0986    
  6.5237      6.1079      5.8550      5.7402      5.7403      5.8553      6.1078      6.5227      7.0968      7.7773    
  7.5584      8.0637      8.4860      8.7885      8.9020      8.7880      8.4864      8.0657      7.5611      7.0416    
  6.5802      6.2238      5.9858      5.8553      5.8144      5.8553      5.9863      6.2246      6.5802      7.0399    
  6.9782      7.3093      7.6174      7.8549      7.9838      7.9841      7.8558      7.6190      7.3107      6.9781    
  6.6667      6.4098      6.2236      6.1080      6.0541      6.0537      6.1078      6.2246      6.4120      6.6684    
  6.7865      6.9278      7.0785      7.2166      7.3152      7.3515      7.3160      7.2172      7.0780      6.9260    
  6.7840      6.6665      6.5798      6.5234      6.4927      6.4828      6.4919      6.5227      6.5804      6.6685    
  6.9781      6.9278      6.9019      6.9029      6.9204      6.9365      6.9368      6.9205      6.9018      6.8998    
  6.9261      6.9781      7.0415      7.0985      7.1376      7.1562      7.1559      7.1367      7.0969      7.0400    
  7.5583      7.3093      7.0785      6.9028      6.7941      6.7417      6.7272      6.7417      6.7936      6.9020    
  7.0784      7.3109      7.5611      7.7794      7.9382      8.0535      8.0998      8.0540      7.9378      7.7773    
  8.5087      8.0637      7.6174      7.2165      6.9203      6.7417      6.6623      6.6622      6.7415      6.9204    
  7.2174      7.6191      8.0654      8.5093      9.0586      9.6410      10.025      10.026      9.6426      9.0595    
  10.727      9.3621      8.4861      7.8549      7.3152      6.9365      6.7274      6.6623      6.7269      6.9364    
  7.3160      7.8558      8.4860      9.3605      10.725      12.344      13.671      14.184      13.672      12.346    
  15.803      12.648      10.203      8.7886      7.9838      7.3515      6.9369      6.7418      6.7415      6.9365    
  7.3517      7.9841      8.7879      10.201      12.646      15.802      18.787      20.601      20.601      18.786    
  24.202      19.057      14.199      10.736      8.9021      7.9839      7.3158      6.9206      6.7938      6.9205    
  7.3159      7.9840      8.9018      10.735      14.198      19.058      24.204      28.139      29.611      28.137    
  34.871      28.343      21.031      14.794      10.735      8.7879      7.8555      7.2170      6.9020      6.9022    
  7.2174      7.8555      8.7877      10.735      14.795      21.033      28.345      34.872      38.724      38.724    
  45.519      38.847      29.894      21.032      14.198      10.201      8.4861      7.6187      7.0781      6.9001    
  7.0785      7.6188      8.4856      10.201      14.199      21.033      29.894      38.846      45.518      47.988    
  53.402      48.034      38.847      28.345      19.058      12.646      9.3609      8.0653      7.3106      6.9263    
  6.9265      7.3109      8.0651      9.3603      12.646      19.058      28.345      38.845      48.032      53.401    
  31.127      29.563      25.366      19.822      14.513      10.658      8.5839      7.5910      6.8940      6.4820    
  6.3498      6.4820      6.8940      7.5910      8.5838      10.658      14.513      19.822      25.366      29.563    
  29.564      29.564      26.656      21.760      16.354      11.874      9.0954      7.7798      6.9852      6.4481    
  6.1907      6.1906      6.4480      6.9854      7.7803      9.0958      11.874      16.354      21.760      26.656    
  25.367      26.717      25.366      21.760      17.056      12.645      9.5415      7.9152      7.0459      6.4187    
  6.0575      5.9429      6.0571      6.4186      7.0462      7.9157      9.5415      12.644      17.055      21.760    
  19.822      21.918      21.918      19.822      16.354      12.645      9.7202      7.9996      7.0752      6.3938    
  5.9564      5.7531      5.7530      5.9562      6.3936      7.0752      7.9996      9.7199      12.644      16.353    
  14.512      16.611      17.411      16.612      14.513      11.874      9.5413      7.9996      7.0831      6.3787    
  5.8930      5.6264      5.5440      5.6265      5.8930      6.3784      7.0829      7.9997      9.5416      11.874    
  10.658      12.205      13.173      13.173      12.205      10.658      9.0952      7.9153      7.0754      6.3787    
  5.8713      5.5633      5.4245      5.4247      5.5637      5.8714      6.3785      7.0755      7.9160      9.0961    
  8.5844      9.4609      10.179      10.459      10.179      9.4604      8.5837      7.7800      7.0462      6.3940    
  5.8931      5.5633      5.3859      5.3314      5.3862      5.5635      5.8929      6.3937      7.0462      7.7805    
  7.5908      8.1482      8.5957      8.8603      8.8601      8.5954      8.1482      7.5912      6.9855      6.4189    
  5.9565      5.6264      5.4244      5.3313      5.3313      5.4244      5.6263      5.9562      6.4183      6.9848    
  6.8932      7.3408      7.7238      7.9810      8.0713      7.9809      7.7241      7.3416      6.8943      6.4482    
  6.0574      5.7530      5.5438      5.4246      5.3862      5.4244      5.5438      5.7531      6.0574      6.4476    
  6.4819      6.7902      7.0782      7.3028      7.4259      7.4260      7.3029      7.0786      6.7906      6.4819    
  6.1904      5.9426      5.7529      5.6265      5.5637      5.5635      5.6263      5.7532      5.9434      6.1911    
  6.3504      6.5257      6.7015      6.8556      6.9624      7.0008      6.9625      6.8556      6.7012      6.5250    
  6.3495      6.1903      6.0571      5.9563      5.8931      5.8714      5.8929      5.9563      6.0575      6.1911    
  6.4819      6.5257      6.5816      6.6449      6.7027      6.7378      6.7379      6.7028      6.6446      6.5808    
  6.5251      6.4819      6.4481      6.4188      6.3938      6.3785      6.3786      6.3937      6.4184      6.4476    
  6.8932      6.7901      6.7015      6.6449      6.6216      6.6190      6.6206      6.6192      6.6217      6.6447    
  6.7014      6.7907      6.8943      6.9857      7.0465      7.0753      7.0829      7.0754      7.0462      6.9848    
  7.5908      7.3408      7.0782      6.8555      6.7026      6.6190      6.5857      6.5857      6.6190      6.7027    
  6.8558      7.0787      7.3414      7.5912      7.7804      7.9156      7.9994      7.9996      7.9158      7.7804    
  8.5845      8.1483      7.7239      7.3028      6.9623      6.7378      6.6207      6.5857      6.6204      6.7376    
  6.9625      7.3031      7.7239      8.1478      8.5837      9.0955      9.5413      9.7198      9.5415      9.0961    
  10.658      9.4609      8.5958      7.9811      7.4259      7.0008      6.7379      6.6193      6.6191      6.7376    
  7.0007      7.4261      7.9810      8.5951      9.4600      10.658      11.874      12.644      12.644      11.874    
  14.512      12.204      10.180      8.8605      8.0714      7.4258      6.9624      6.7028      6.6219      6.7028    
  6.9625      7.4260      8.0715      8.8603      10.179      12.204      14.513      16.354      17.056      16.354    
  19.822      16.611      13.173      10.460      8.8603      7.9808      7.3027      6.8555      6.6447      6.6449    
  6.8558      7.3028      7.9808      8.8603      10.460      13.173      16.611      19.822      21.760      21.760    
  25.367      21.918      17.411      13.173      10.179      8.5954      7.7239      7.0784      6.7012      6.5810    
  6.7015      7.0785      7.7236      8.5950      10.179      13.173      17.411      21.918      25.366      26.657    
  29.564      26.717      21.918      16.611      12.205      9.4606      8.1482      7.3414      6.7905      6.5252    
  6.5253      6.7907      7.3411      8.1476      9.4603      12.205      16.612      21.918      26.716      29.564    
  16.082      15.426      13.704      11.539      9.6278      8.3585      7.5450      6.8782      6.4084      6.1466    
  6.0649      6.1466      6.4084      6.8782      7.5450      8.3585      9.6278      11.539      13.704      15.426    
  15.426      15.426      14.209      12.230      10.183      8.6342      7.6754      6.9412      6.3782      6.0249    
  5.8623      5.8622      6.0248      6.3783      6.9416      7.6757      8.6342      10.183      12.230      14.209    
  13.704      14.270      13.704      12.230      10.403      8.8167      7.7494      6.9774      6.3504      5.9220    