unknown system                          
   1.00000000000000     
     2.330000    0.000000    0.000000
    -1.165000    2.017839    0.000000
     0.000000    0.000000    4.100000
   Fe
     2
Direct
  0.000000  0.000000  0.000000
  0.333333  0.666667  0.500000
 
   20   20   32
 0.16200677308E+03 0.15352451327E+03 0.13069292907E+03 0.99981289448E+02 0.68695694782E+02
 0.42439024216E+02 0.24097474046E+02 0.13904199434E+02 0.98971006114E+01 0.87890006530E+01
 0.84442084893E+01 0.87891385481E+01 0.98972132256E+01 0.13904163276E+02 0.24097350318E+02
 0.42438968190E+02 0.68695761008E+02 0.99981385961E+02 0.13069295844E+03 0.15352449175E+03
 0.15353065406E+03 0.15352461850E+03 0.13790275133E+03 0.11130993706E+03 0.80714463439E+02
 0.52548093679E+02 0.30969151158E+02 0.17459730335E+02 0.11083845231E+02 0.90954740783E+01
 0.84412661011E+01 0.84409147105E+01 0.90951033432E+01 0.11084060414E+02 0.17459381644E+02
 0.30967074362E+02 0.52546489192E+02 0.80718308585E+02 0.11132125074E+03 0.13791614451E+03
 0.13070206595E+03 0.13788367669E+03 0.13069327390E+03 0.11131005012E+03 0.85160836790E+02
 0.58479647320E+02 0.36167124167E+02 0.20797061027E+02 0.12515747377E+02 0.94132875278E+01
 0.84623695984E+01 0.81387818036E+01 0.84615537200E+01 0.94132322346E+01 0.12516422064E+02
 0.20795996620E+02 0.36163294526E+02 0.58476787971E+02 0.85164308638E+02 0.11131983935E+03
 0.99977220916E+02 0.11124785890E+03 0.11124932670E+03 0.99981525379E+02 0.80714257658E+02
 0.58479433132E+02 0.38103980828E+02 0.22819085829E+02 0.13705972798E+02 0.97602931159E+01
 0.84974970333E+01 0.79207202856E+01 0.79203497443E+01 0.84971862268E+01 0.97611951102E+01
 0.13707540246E+02 0.22819051861E+02 0.38100607617E+02 0.58473379319E+02 0.80707981239E+02
 0.68682691968E+02 0.80620195384E+02 0.85036643154E+02 0.80630296367E+02 0.68695402304E+02
 0.52547596441E+02 0.36166982440E+02 0.22819160395E+02 0.14169157454E+02 0.10000585732E+02
 0.85300272705E+01 0.77926618814E+01 0.75378362850E+01 0.77925929747E+01 0.85300579943E+01
 0.10001741904E+02 0.14172480787E+02 0.22823216905E+02 0.36167256058E+02 0.52540326889E+02
 0.42437474483E+02 0.52471943761E+02 0.58347398443E+02 0.58350646705E+02 0.52477717224E+02
 0.42438556125E+02 0.30968953361E+02 0.20797248895E+02 0.13706122975E+02 0.10000628489E+02
 0.85432872559E+01 0.77374889137E+01 0.73228847170E+01 0.73231076376E+01 0.77372042743E+01
 0.85417924706E+01 0.10000248197E+02 0.13710211583E+02 0.20805064023E+02 0.30974730372E+02
 0.24106457826E+02 0.30946909767E+02 0.36096173756E+02 0.38008830444E+02 0.36092133071E+02
 0.30939168238E+02 0.24097354089E+02 0.17459955482E+02 0.12516009265E+02 0.97603944367E+01
 0.85301037860E+01 0.77374987922E+01 0.72552231458E+01 0.70988555387E+01 0.72558660768E+01
 0.77363378333E+01 0.85260964625E+01 0.97564027996E+01 0.12516422064E+02 0.17466171213E+02
 0.13903944614E+02 0.17475261098E+02 0.20802918978E+02 0.22806377858E+02 0.22802281781E+02
 0.20794018023E+02 0.17468673994E+02 0.13904403876E+02 0.11084130010E+02 0.94133815702E+01
 0.84975279341E+01 0.77926597380E+01 0.73227728872E+01 0.70987990376E+01 0.70997014671E+01
 0.73243826830E+01 0.77923743127E+01 0.84932398445E+01 0.94058772008E+01 0.11077679450E+02
 0.98874568573E+01 0.11105372826E+02 0.12560086807E+02 0.13758237208E+02 0.14220580381E+02
 0.13755716711E+02 0.12560278648E+02 0.11111890663E+02 0.98972967859E+01 0.90954949060E+01
 0.84622431706E+01 0.79206434438E+01 0.75377085577E+01 0.73229915492E+01 0.72558720059E+01
 0.73243784244E+01 0.75411489567E+01 0.79245147886E+01 0.84622025800E+01 0.90889410407E+01
 0.87887945153E+01 0.91205632274E+01 0.94649704665E+01 0.98344403143E+01 0.10087393667E+02
 0.10088909361E+02 0.98392874787E+01 0.94723658556E+01 0.91266672848E+01 0.87889244737E+01
 0.84409981474E+01 0.81386047287E+01 0.79202994111E+01 0.77925343672E+01 0.77372155586E+01
 0.77363392391E+01 0.77923178486E+01 0.79245412971E+01 0.81466995322E+01 0.84474210457E+01
 0.84533159976E+01 0.84795933695E+01 0.85241398228E+01 0.85792231698E+01 0.86277113316E+01
 0.86488412192E+01 0.86316119640E+01 0.85831205157E+01 0.85234606198E+01 0.84729664755E+01
 0.84439228268E+01 0.84406895982E+01 0.84615943105E+01 0.84972737885E+01 0.85301037859E+01
 0.85418290320E+01 0.85260657387E+01 0.84932965055E+01 0.84623695985E+01 0.84474638871E+01
 0.87887010955E+01 0.84795426576E+01 0.82096130593E+01 0.80144707236E+01 0.79025940632E+01
 0.78575648953E+01 0.78584153186E+01 0.79027801396E+01 0.80102779875E+01 0.82016668968E+01
 0.84733015165E+01 0.87889689490E+01 0.90951953486E+01 0.94134624656E+01 0.97613212605E+01
 0.10001822639E+02 0.10000286175E+02 0.97564276291E+01 0.94060133895E+01 0.90890122184E+01
 0.98873846993E+01 0.91204795254E+01 0.85241197866E+01 0.80144378590E+01 0.76547850072E+01
 0.74543704202E+01 0.73918285947E+01 0.74531652177E+01 0.76515165281E+01 0.80105775450E+01
 0.85240690236E+01 0.91270113175E+01 0.98973372421E+01 0.11084348672E+02 0.12516617669E+02
 0.13707616682E+02 0.14172510582E+02 0.13710137842E+02 0.12516355781E+02 0.11077682929E+02
 0.13903986825E+02 0.11105373567E+02 0.94649384383E+01 0.85791417456E+01 0.79025435384E+01
 0.74544199639E+01 0.72412593969E+01 0.72404344122E+01 0.74529526082E+01 0.79028670876E+01
 0.85832976416E+01 0.94722344323E+01 0.11111678054E+02 0.13904409928E+02 0.17459540825E+02
 0.20795967797E+02 0.22818947785E+02 0.22823038263E+02 0.20804847333E+02 0.17466105247E+02
 0.24106581555E+02 0.17475357267E+02 0.12560071783E+02 0.98343669517E+01 0.86276691484E+01
 0.78576723783E+01 0.73919595888E+01 0.72404453202E+01 0.73912201909E+01 0.78587172283E+01
 0.86316119639E+01 0.98383419787E+01 0.12559629788E+02 0.17469056799E+02 0.24097354089E+02
 0.30966858186E+02 0.36163020908E+02 0.38100417251E+02 0.36167124167E+02 0.30974711993E+02
 0.42437569453E+02 0.30946972336E+02 0.20802943741E+02 0.13758250375E+02 0.10087409764E+02
 0.86489101235E+01 0.78585256743E+01 0.74531778102E+01 0.74529156570E+01 0.78587201010E+01
 0.86503314658E+01 0.10087798631E+02 0.13754261947E+02 0.20795254124E+02 0.30941250268E+02
 0.42438595069E+02 0.52546141678E+02 0.58476722851E+02 0.58473528388E+02 0.52540476613E+02
 0.68682698561E+02 0.52471831007E+02 0.36096190935E+02 0.22806506385E+02 0.14220653328E+02
 0.10088864527E+02 0.86315578611E+01 0.79027561479E+01 0.76515046983E+01 0.79028936207E+01
 0.86316000443E+01 0.10087737700E+02 0.14217340528E+02 0.22802500443E+02 0.36096021783E+02
 0.52479210932E+02 0.68695475123E+02 0.80718422702E+02 0.85164725503E+02 0.80708301136E+02
 0.99977177495E+02 0.80619892951E+02 0.58347284358E+02 0.38008989681E+02 0.22802394432E+02
 0.13755593186E+02 0.98390803718E+01 0.85830410890E+01 0.80103259060E+01 0.80106583282E+01
 0.85832996391E+01 0.98382082345E+01 0.13754125256E+02 0.22802484567E+02 0.38012315130E+02
 0.58353264951E+02 0.80626184414E+02 0.99981578471E+02 0.11132173577E+03 0.11132021131E+03
 0.13070203658E+03 0.11124748774E+03 0.85036310500E+02 0.58350684818E+02 0.36092302223E+02
 0.20793976565E+02 0.12560071783E+02 0.94722382418E+01 0.85235113827E+01 0.82018010888E+01
 0.85241398228E+01 0.94721388469E+01 0.12559437947E+02 0.20795187903E+02 0.36096173756E+02
 0.58353417148E+02 0.85032681622E+02 0.11123764924E+03 0.13069327390E+03 0.13791642604E+03
 0.15353065129E+03 0.13788338984E+03 0.11124886213E+03 0.80630142931E+02 0.52477969034E+02
 0.30939379546E+02 0.17468617773E+02 0.11111724203E+02 0.91266175522E+01 0.84731050733E+01
 0.84734908263E+01 0.91270452871E+01 0.11111510853E+02 0.17468904409E+02 0.30941399007E+02
 0.52479575495E+02 0.80626333411E+02 0.11123755583E+03 0.13786996497E+03 0.15352459423E+03
 0.15172196103E+03 0.14380201394E+03 0.12245934365E+03 0.93698336258E+02 0.64359365847E+02
 0.39755683094E+02 0.22657476495E+02 0.13271161019E+02 0.96560720860E+01 0.86233281069E+01
 0.82886185968E+01 0.86234640050E+01 0.96561843024E+01 0.13271126699E+02 0.22657351671E+02
 0.39755618365E+02 0.64359419003E+02 0.93698424205E+02 0.12245937331E+03 0.14380199639E+03
 0.14380767604E+03 0.14380213810E+03 0.12920038083E+03 0.10430710562E+03 0.75621401620E+02
 0.49206127676E+02 0.29030282810E+02 0.16510070981E+02 0.10702766958E+02 0.89104589745E+01
 0.82748250963E+01 0.82744794383E+01 0.89100896159E+01 0.10702995546E+02 0.16509842056E+02
 0.29028453282E+02 0.49204653765E+02 0.75624867702E+02 0.10431742947E+03 0.12921265094E+03
 0.12246777143E+03 0.12918747156E+03 0.12245972948E+03 0.10430722827E+03 0.79787530732E+02
 0.54756998012E+02 0.33866905460E+02 0.19572875736E+02 0.11979491870E+02 0.91902538160E+01
 0.82892570914E+01 0.79767337667E+01 0.82884427901E+01 0.91901613306E+01 0.11980157462E+02
 0.19571990329E+02 0.33863427969E+02 0.54754315562E+02 0.79790615291E+02 0.10431613885E+03
 0.93694602546E+02 0.10426237034E+03 0.10426373255E+03 0.93698594810E+02 0.75621180881E+02
 0.54756764975E+02 0.35671596941E+02 0.21435680873E+02 0.13049698036E+02 0.94886063858E+01
 0.83205933557E+01 0.77644192639E+01 0.77640537419E+01 0.83202542024E+01 0.94893949040E+01
 0.13051130778E+02 0.21435656917E+02 0.35668488792E+02 0.54751166947E+02 0.75615366397E+02
 0.64347408373E+02 0.75555428978E+02 0.79701766289E+02 0.75564700327E+02 0.64359046105E+02
 0.49205582740E+02 0.33866731893E+02 0.21435751682E+02 0.13467861427E+02 0.96959900067E+01
 0.83511432252E+01 0.76407553782E+01 0.73970284510E+01 0.76407102275E+01 0.83511688378E+01
 0.96970090223E+01 0.13470866298E+02 0.21439478577E+02 0.33867040480E+02 0.49198974120E+02
 0.39754276986E+02 0.49163393011E+02 0.54678782905E+02 0.54681753826E+02 0.49168641096E+02
 0.39755159884E+02 0.29030044033E+02 0.19573059648E+02 0.13049871878E+02 0.96960497631E+01
 0.83637768374E+01 0.75877338135E+01 0.71920350309E+01 0.71922789169E+01 0.75875432218E+01
 0.83624273856E+01 0.96956676436E+01 0.13053611059E+02 0.19580301982E+02 0.29035474306E+02
 0.22665749791E+02 0.29040483567E+02 0.33855087594E+02 0.35645963610E+02 0.33851356705E+02
 0.29033329385E+02 0.22657334390E+02 0.16510306913E+02 0.11979793124E+02 0.94887471644E+01
 0.83512339446E+01 0.75877413492E+01 0.71276891492E+01 0.69792047310E+01 0.71283317059E+01
 0.75867250799E+01 0.83475563270E+01 0.94850500077E+01 0.11980157462E+02 0.16516044938E+02
 0.13270888599E+02 0.16555359310E+02 0.19635763965E+02 0.21496869018E+02 0.21493105966E+02
 0.19627601321E+02 0.16549360517E+02 0.13271398874E+02 0.10703094603E+02 0.91903835255E+01
 0.83206353272E+01 0.76407428678E+01 0.71919094610E+01 0.69791402330E+01 0.69799660676E+01
 0.71933821959E+01 0.76404721277E+01 0.83166706427E+01 0.91834291558E+01 0.10697077802E+02
 0.96471478777E+01 0.10752475496E+02 0.12077776313E+02 0.13175131150E+02 0.13599768716E+02
 0.13172818907E+02 0.12078000857E+02 0.10758570831E+02 0.96563029068E+01 0.89104892378E+01
 0.82891181619E+01 0.77643182418E+01 0.73968794917E+01 0.71921475608E+01 0.71283274539E+01
 0.71933764096E+01 0.74000026570E+01 0.77678754014E+01 0.82890810948E+01 0.89044099708E+01
 0.86231312510E+01 0.89626168425E+01 0.92943637743E+01 0.96356915813E+01 0.98673873636E+01
 0.98687703647E+01 0.96401357432E+01 0.93011744965E+01 0.89682477544E+01 0.86232308907E+01
 0.82745151919E+01 0.79765192672E+01 0.77639854878E+01 0.76406482137E+01 0.75875508664E+01
 0.75867251887E+01 0.76404226242E+01 0.77679081694E+01 0.79840367953E+01 0.82804918373E+01
 0.82970167167E+01 0.83389919736E+01 0.84026167416E+01 0.84762667119E+01 0.85381830233E+01
 0.85640734632E+01 0.85417597378E+01 0.84798215267E+01 0.84019344124E+01 0.83328111354E+01
 0.82882772090E+01 0.82742155140E+01 0.82884798572E+01 0.83203641512E+01 0.83512339446E+01
 0.83624685348E+01 0.83475307144E+01 0.83167386202E+01 0.82892570914E+01 0.82805378174E+01
 0.86230369315E+01 0.83389361243E+01 0.80985178835E+01 0.79323342598E+01 0.78433425623E+01
 0.78108019414E+01 0.78116044448E+01 0.78435421770E+01 0.79284606390E+01 0.80911434400E+01
 0.83331353869E+01 0.86232724694E+01 0.89101980625E+01 0.91904366010E+01 0.94895615764E+01
 0.96970999666E+01 0.96956988314E+01 0.94850759016E+01 0.91835747168E+01 0.89044881542E+01
 0.96470740152E+01 0.89625218281E+01 0.84025855732E+01 0.79322981450E+01 0.76075985452E+01
 0.74308123656E+01 0.73765978405E+01 0.74297591837E+01 0.76046417551E+01 0.79287518143E+01
 0.84025343633E+01 0.89685805083E+01 0.96563412606E+01 0.10703332703E+02 0.11980393074E+02
 0.13051213256E+02 0.13470873987E+02 0.13053519695E+02 0.11980091821E+02 0.10697087313E+02
 0.13270929480E+02 0.10752467333E+02 0.92943212483E+01 0.84761804127E+01 0.78432919882E+01
 0.74308629729E+01 0.72372564715E+01 0.72365048061E+01 0.74295276444E+01 0.78436018129E+01
 0.84800199899E+01 0.93010732818E+01 0.10758339291E+02 0.13271405435E+02 0.16510015216E+02
 0.19571949809E+02 0.21435520143E+02 0.21439270993E+02 0.19580077550E+02 0.16515982166E+02
 0.22665874615E+02 0.16555453693E+02 0.12077762222E+02 0.96356212209E+01 0.85381419861E+01
 0.78109095999E+01 0.73767346159E+01 0.72365237670E+01 0.73759978896E+01 0.78118144347E+01
 0.85417597377E+01 0.96393018240E+01 0.12077362552E+02 0.16549623582E+02 0.22657334390E+02
 0.29028201489E+02 0.33863119382E+02 0.35668276447E+02 0.33866905460E+02 0.29035461290E+02
 0.39754376249E+02 0.29040546125E+02 0.19635798075E+02 0.13175159045E+02 0.98674088634E+01
 0.85641368254E+01 0.78117152800E+01 0.74297876671E+01 0.74295055204E+01 0.78118176113E+01
 0.85654133845E+01 0.98677962735E+01 0.13171512062E+02 0.19628670067E+02 0.29035159467E+02
 0.39755194418E+02 0.49204275895E+02 0.54754250161E+02 0.54751334582E+02 0.49199141185E+02
 0.64347420373E+02 0.49163268917E+02 0.33855105630E+02 0.21497016875E+02 0.13599855404E+02
 0.98687157086E+01 0.85416893397E+01 0.78435235275E+01 0.76046511425E+01 0.78436337376E+01
 0.85417303769E+01 0.98677201176E+01 0.13596859668E+02 0.21493344066E+02 0.33854904058E+02
 0.49169982474E+02 0.64359111262E+02 0.75625002540E+02 0.79791078086E+02 0.75615721975E+02
 0.93694562285E+02 0.75555093871E+02 0.54678643989E+02 0.35646133511E+02 0.21493242902E+02
 0.13172691917E+02 0.96398963590E+01 0.84797228463E+01 0.79285241720E+01 0.79288514621E+01
 0.84800076088E+01 0.96391328003E+01 0.13171357177E+02 0.21493333144E+02 0.35649214346E+02
 0.54684186420E+02 0.75560926354E+02 0.93698642496E+02 0.10431797252E+03 0.10431655924E+03
 0.12246774177E+03 0.10426194964E+03 0.79701381417E+02 0.54681785143E+02 0.33851558277E+02
 0.19627576103E+02 0.12077762222E+02 0.93010048358E+01 0.84019856223E+01 0.80913115814E+01
 0.84026167417E+01 0.93009461472E+01 0.12077138008E+02 0.19628610738E+02 0.33855087594E+02
 0.54684356653E+02 0.79698153779E+02 0.10425299576E+03 0.12245972948E+03 0.12921297560E+03
 0.14380767172E+03 0.12918713853E+03 0.10426320698E+03 0.75564525623E+02 0.49168926697E+02
 0.29033581500E+02 0.16549294748E+02 0.10758356652E+02 0.89681796078E+01 0.83329871692E+01
 0.83333672700E+01 0.89686073764E+01 0.10758133276E+02 0.16549463430E+02 0.29035349024E+02
 0.49170392169E+02 0.75561086758E+02 0.10425289090E+03 0.12917484351E+03 0.14380211623E+03
 0.12458613695E+03 0.11812431515E+03 0.10065994375E+03 0.77024615524E+02 0.52860145391E+02
 0.32694778518E+02 0.18939445485E+02 0.11687569653E+02 0.90519534436E+01 0.81774636712E+01
 0.78731583358E+01 0.81775926175E+01 0.90520633305E+01 0.11687541956E+02 0.18939323655E+02
 0.32694699021E+02 0.52860170862E+02 0.77024683414E+02 0.10065997277E+03 0.11812430590E+03
 0.11812872027E+03 0.11812448047E+03 0.10617640915E+03 0.85734123841E+02 0.62102180716E+02
 0.40372648769E+02 0.23973640016E+02 0.14096941536E+02 0.97603018493E+01 0.84129002150E+01
 0.78315633235E+01 0.78312399052E+01 0.84125454310E+01 0.97605619414E+01 0.14097006045E+02
 0.23972439435E+02 0.40371518158E+02 0.62104675034E+02 0.85741880598E+02 0.10618575441E+03
 0.10066651006E+03 0.10618072427E+03 0.10066041792E+03 0.85734266857E+02 0.65522393207E+02
 0.44900373720E+02 0.27837086026E+02 0.16430322036E+02 0.10643092049E+02 0.86185945696E+01
 0.78251362895E+01 0.75451986266E+01 0.78243452354E+01 0.86184191529E+01 0.10643724648E+02
 0.16429880732E+02 0.27834516251E+02 0.44898165488E+02 0.65524491916E+02 0.85740903618E+02
 0.77021757070E+02 0.85737233442E+02 0.85738315335E+02 0.77024922353E+02 0.62101929523E+02
 0.44900101525E+02 0.29285481017E+02 0.17867466780E+02 0.11402298970E+02 0.88056404848E+01
 0.78416934487E+01 0.73455512241E+01 0.73452063474E+01 0.78412960974E+01 0.88061434294E+01
 0.11403378975E+02 0.17867461736E+02 0.29283062157E+02 0.44895700477E+02 0.62097334314E+02
 0.52850925174E+02 0.62113373872E+02 0.65541684634E+02 0.62120477423E+02 0.52859768205E+02
 0.40372003818E+02 0.27836843118E+02 0.17867527981E+02 0.11702862153E+02 0.89339307800E+01
 0.78631037607E+01 0.72305077859E+01 0.70177558497E+01 0.72305205062E+01 0.78631164024E+01
 0.89346000855E+01 0.11705042563E+02 0.17870388081E+02 0.27837224651E+02 0.40367103782E+02
 0.32693747205E+02 0.40419945889E+02 0.44968188690E+02 0.44970437491E+02 0.40423833669E+02
 0.32694137540E+02 0.23973312111E+02 0.16430494256E+02 0.11402523404E+02 0.89340277752E+01
 0.78726004870E+01 0.71812922973E+01 0.68375154042E+01 0.68378032432E+01 0.71813274340E+01
 0.78716229547E+01 0.89336482697E+01 0.11405353504E+02 0.16436223903E+02 0.23977805626E+02
 0.18945860943E+02 0.24069774187E+02 0.27982548097E+02 0.29444970012E+02 0.27979632123E+02
 0.24064165499E+02 0.18939255310E+02 0.14097198675E+02 0.10643477760E+02 0.88058678783E+01
 0.78632245760E+01 0.71812941665E+01 0.67813025365E+01 0.66538418056E+01 0.67819287344E+01
 0.71806410781E+01 0.78604080024E+01 0.88029516248E+01 0.10643724648E+02 0.14101685880E+02
 0.11687262624E+02 0.14219029013E+02 0.16641198821E+02 0.18120820486E+02 0.18117929227E+02
 0.16634964644E+02 0.14214554779E+02 0.11687880185E+02 0.97607221464E+01 0.86188031214E+01
 0.78417593097E+01 0.72304713984E+01 0.68373608589E+01 0.66537607738E+01 0.66543865976E+01
 0.68384757271E+01 0.72302411741E+01 0.78386490848E+01 0.86133071292E+01 0.97558682336E+01
 0.90449256769E+01 0.98804313539E+01 0.10876593436E+02 0.11711272539E+02 0.12036691636E+02
 0.11709507325E+02 0.10876895320E+02 0.98853967208E+01 0.90522598846E+01 0.84129524077E+01
 0.78249716972E+01 0.73453964343E+01 0.70175606351E+01 0.68376401910E+01 0.67819029023E+01
 0.68384672201E+01 0.70198638839E+01 0.73481326921E+01 0.78249456012E+01 0.84081310553E+01
 0.81772929523E+01 0.85305410448E+01 0.88491701871E+01 0.91277472547E+01 0.93075785449E+01
 0.93086184548E+01 0.91311438182E+01 0.88544529326E+01 0.85349334797E+01 0.81773213982E+01
 0.78311649146E+01 0.75449026593E+01 0.73450967691E+01 0.72304510653E+01 0.71813283718E+01
 0.71806401466E+01 0.72302081208E+01 0.73481779036E+01 0.75508896476E+01 0.78359539460E+01
 0.78796956235E+01 0.79565305643E+01 0.80586816425E+01 0.81673264463E+01 0.82532830927E+01
 0.82873478367E+01 0.82560134482E+01 0.81699920524E+01 0.80580087105E+01 0.79515446367E+01
 0.78726981625E+01 0.78308932492E+01 0.78243713314E+01 0.78414519778E+01 0.78632245760E+01
 0.78716766709E+01 0.78603953607E+01 0.78387391041E+01 0.78251362895E+01 0.78360056990E+01
 0.81771996327E+01 0.79564659346E+01 0.77838562607E+01 0.76789420555E+01 0.76350821810E+01
 0.76259175406E+01 0.76265865570E+01 0.76353036351E+01 0.76759031445E+01 0.77779946402E+01
 0.79518366749E+01 0.81773570249E+01 0.84126883693E+01 0.86187878277E+01 0.88063973766E+01
 0.89347155527E+01 0.89336667416E+01 0.88029781785E+01 0.86134672523E+01 0.84082218009E+01
 0.90448505386E+01 0.85304267432E+01 0.80586290064E+01 0.76788991480E+01 0.74291276845E+01
 0.73002347945E+01 0.72623718423E+01 0.72995605271E+01 0.74269668202E+01 0.76761671830E+01
 0.80585743279E+01 0.85352331449E+01 0.90522946331E+01 0.97610014784E+01 0.10644043378E+02
 0.11403475220E+02 0.11705004936E+02 0.11405225314E+02 0.10643657667E+02 0.97558874736E+01
 0.11687299136E+02 0.98804082198E+01 0.88491098178E+01 0.81672307861E+01 0.76350288519E+01
 0.73002846815E+01 0.71475486679E+01 0.71469867399E+01 0.72992900100E+01 0.76352971564E+01
 0.81702345698E+01 0.88544237846E+01 0.98851262037E+01 0.11687889000E+02 0.14097203732E+02
 0.16429812957E+02 0.17867257464E+02 0.17870122608E+02 0.16435983909E+02 0.14101626429E+02
 0.18945982773E+02 0.14219120528E+02 0.10876587123E+02 0.91276861340E+01 0.82532405847E+01
 0.76260180531E+01 0.72625173482E+01 0.71470243553E+01 0.72618062250E+01 0.76265763140E+01
 0.82560134482E+01 0.91305903575E+01 0.10876294955E+02 0.14214529242E+02 0.18939255310E+02
 0.23972106499E+02 0.27834134718E+02 0.29282808468E+02 0.27837086026E+02 0.23977800596E+02
 0.32693849657E+02 0.24069834898E+02 0.16641257608E+02 0.11711336088E+02 0.93076087011E+01
 0.82873909949E+01 0.76266931186E+01 0.72996263376E+01 0.72993059335E+01 0.76265823632E+01
 0.82883046975E+01 0.93079892589E+01 0.11708578464E+02 0.16635614173E+02 0.24065359820E+02
 0.32694160495E+02 0.40371074957E+02 0.44898104042E+02 0.44895911226E+02 0.40367305533E+02
 0.52850945199E+02 0.40419794670E+02 0.27982569615E+02 0.18121013474E+02 0.12036807766E+02
 0.93085375621E+01 0.82559034893E+01 0.76352993691E+01 0.74270303973E+01 0.76353462194E+01
 0.82559459973E+01 0.93078782101E+01 0.12034629097E+02 0.18118208559E+02 0.27982295028E+02
 0.40424785485E+02 0.52859813700E+02 0.62104855868E+02 0.65525056112E+02 0.62097766340E+02
 0.77021723147E+02 0.62112966172E+02 0.44967995341E+02 0.29445164733E+02 0.18118121097E+02
 0.11709372572E+02 0.91308323069E+01 0.81698526464E+01 0.76760067705E+01 0.76763137165E+01
 0.81701908240E+01 0.91303399670E+01 0.11708380162E+02 0.18118207441E+02 0.29447596930E+02
 0.44972378052E+02 0.62117585046E+02 0.77024956321E+02 0.85742550591E+02 0.85741430594E+02
 0.10066648104E+03 0.85736704489E+02 0.65541185656E+02 0.44970454655E+02 0.27979906711E+02
 0.16634977056E+02 0.10876587123E+02 0.88541909921E+01 0.80580633890E+01 0.77782405308E+01
 0.80586816425E+01 0.88542222135E+01 0.10875993070E+02 0.16635567797E+02 0.27982548097E+02
 0.44972588565E+02 0.65538976234E+02 0.85730037298E+02 0.10066041792E+03 0.10618617521E+03
 0.11812871373E+03 0.10618029075E+03 0.85737657604E+02 0.62120257126E+02 0.40424193246E+02
 0.24064507460E+02 0.14214468157E+02 0.98850773131E+01 0.85348253194E+01 0.79518033199E+01
 0.79521599879E+01 0.85352392862E+01 0.98848299301E+01 0.14214351104E+02 0.24065641071E+02
 0.40425296282E+02 0.62117772449E+02 0.85729908521E+02 0.10617093434E+03 0.11812446467E+03
 0.89591323096E+02 0.84961687565E+02 0.72413165299E+02 0.55381126355E+02 0.38015066225E+02
 0.23762474170E+02 0.14435492513E+02 0.98880842309E+01 0.83152546696E+01 0.75800572723E+01
 0.73249356158E+01 0.75801708802E+01 0.83153552708E+01 0.98880671523E+01 0.14435388570E+02
 0.23762396910E+02 0.38015074278E+02 0.55381175594E+02 0.72413190199E+02 0.84961683378E+02
 0.84964499857E+02 0.84961881293E+02 0.76369537950E+02 0.61627431626E+02 0.44587118903E+02
 0.29075186130E+02 0.17709418753E+02 0.11271530420E+02 0.86918116855E+01 0.77375864263E+01
 0.72472502732E+01 0.72469736858E+01 0.77372773942E+01 0.86920981166E+01 0.11271906137E+02
 0.17708957898E+02 0.29074491787E+02 0.44588447661E+02 0.61632024719E+02 0.76375244203E+02
 0.72417373965E+02 0.76397443863E+02 0.72413697151E+02 0.61627586893E+02 0.47025785915E+02
 0.32238547716E+02 0.20280348176E+02 0.12672160537E+02 0.91285531672E+01 0.78770229311E+01
 0.72056273215E+01 0.69761454948E+01 0.72049181198E+01 0.78767825392E+01 0.91291183550E+01
 0.12672210406E+02 0.20278882386E+02 0.32236968331E+02 0.47026722548E+02 0.61631435587E+02
 0.55379366287E+02 0.61694954337E+02 0.61695672364E+02 0.55381463028E+02 0.44586853522E+02
 0.32238254540E+02 0.21253948908E+02 0.13556857792E+02 0.95161601027E+01 0.79760119298E+01
 0.71917655725E+01 0.67869896314E+01 0.67866919830E+01 0.71913404624E+01 0.79761886634E+01
 0.95167972267E+01 0.13556857659E+02 0.21252386264E+02 0.32235372026E+02 0.44583821875E+02
 0.38009293474E+02 0.44700504623E+02 0.47184667132E+02 0.44704891248E+02 0.38014655811E+02
 0.29074484508E+02 0.20280056706E+02 0.13556907400E+02 0.96733078099E+01 0.80299172614E+01
 0.71920937284E+01 0.66759548139E+01 0.65071867256E+01 0.66760287077E+01 0.71920918160E+01
 0.80301732948E+01 0.96744773509E+01 0.13558666965E+02 0.20280479423E+02 0.29071675307E+02
 0.23761909610E+02 0.29239718268E+02 0.32497325704E+02 0.32498677509E+02 0.29241938075E+02
 0.23761759209E+02 0.17709028904E+02 0.12672314009E+02 0.95164168975E+01 0.80300413278E+01
 0.71939953072E+01 0.66270890456E+01 0.63549901953E+01 0.63553027351E+01 0.66273508908E+01
 0.71934618823E+01 0.80296859950E+01 0.95181192331E+01 0.12676103317E+02 0.17712261677E+02
 0.14439572336E+02 0.17915142903E+02 0.20627423055E+02 0.21651120668E+02 0.20625545943E+02
 0.17911504868E+02 0.14435269381E+02 0.11271794381E+02 0.91289936533E+01 0.79763027223E+01
 0.71922333037E+01 0.66270852110E+01 0.63076618766E+01 0.62076801142E+01 0.63082244923E+01
 0.66268456921E+01 0.71904947787E+01 0.79743972562E+01 0.91291183550E+01 0.11274704718E+02
 0.98877634543E+01 0.11488915489E+02 0.13067670193E+02 0.14050532446E+02 0.14048738465E+02
 0.13063851682E+02 0.11486318107E+02 0.98884449681E+01 0.86922940172E+01 0.78772905636E+01
 0.71918478601E+01 0.66758977611E+01 0.63548185041E+01 0.62075901102E+01 0.62079659132E+01
 0.63554863369E+01 0.66757250096E+01 0.71898348543E+01 0.78736806260E+01 0.86889779386E+01
 0.83106488865E+01 0.88966110504E+01 0.95248792112E+01 0.10046129578E+02 0.10250255120E+02
 0.10045054808E+02 0.95252512946E+01 0.89000852535E+01 0.83156141655E+01 0.77376578462E+01
 0.72054497490E+01 0.67867939547E+01 0.65069594941E+01 0.63551222022E+01 0.63081844951E+01
 0.63554774950E+01 0.65082611445E+01 0.67885012891E+01 0.72054407383E+01 0.77344609143E+01
 0.75799239507E+01 0.79312026071E+01 0.82538162653E+01 0.84988400956E+01 0.86342683050E+01
 0.86348859509E+01 0.85009330143E+01 0.82571770889E+01 0.79340331317E+01 0.75798852012E+01
 0.72467983767E+01 0.69757927761E+01 0.67865470251E+01 0.66759545296E+01 0.66273500395E+01
 0.66268486754E+01 0.66757078843E+01 0.67885520080E+01 0.69797980356E+01 0.72500370953E+01
 0.73291193816E+01 0.74402765575E+01 0.75718394842E+01 0.77014278526E+01 0.77987329490E+01
 0.78357865904E+01 0.78004014729E+01 0.77029931350E+01 0.75712249058E+01 0.74368682760E+01
 0.73243994759E+01 0.72465745158E+01 0.72049271305E+01 0.71915210935E+01 0.71922333037E+01
 0.71935310760E+01 0.71904966910E+01 0.71899331978E+01 0.72056273215E+01 0.72500898217E+01
 0.75798403094E+01 0.74402124876E+01 0.73410547626E+01 0.72918881755E+01 0.72822022550E+01
 0.72879845455E+01 0.72884654079E+01 0.72824185239E+01 0.72899027693E+01 0.73371440986E+01
 0.74371083074E+01 0.75799151679E+01 0.77374408833E+01 0.78772038284E+01 0.79765017862E+01
 0.80303116647E+01 0.80297002986E+01 0.79744195865E+01 0.78738342827E+01 0.77345529835E+01
 0.83105801790E+01 0.79310894050E+01 0.75717788253E+01 0.72918413955E+01 0.71136901150E+01
 0.70249078933E+01 0.69996115481E+01 0.70246632949E+01 0.71124835372E+01 0.72901197321E+01
 0.75717156306E+01 0.79342800612E+01 0.83156460592E+01 0.86925977152E+01 0.91294843780E+01
 0.95169041972E+01 0.96744141225E+01 0.95179694089E+01 0.91290438919E+01 0.86889952056E+01
 0.98877924638E+01 0.88965887781E+01 0.82537565003E+01 0.77013294527E+01 0.72821403182E+01
 0.70249487013E+01 0.69095047510E+01 0.69091765248E+01 0.70243715279E+01 0.72823437197E+01
 0.77032618335E+01 0.82572219264E+01 0.88997934864E+01 0.98884568990E+01 0.11272104047E+02
 0.12672118477E+02 0.13556615633E+02 0.13558375332E+02 0.12675857915E+02 0.11274638667E+02
 0.14439676279E+02 0.11489006570E+02 0.95248937575E+01 0.84987934225E+01 0.77986791881E+01
 0.72880588322E+01 0.69997518476E+01 0.69092304443E+01 0.69991208234E+01 0.72882309848E+01
 0.78004014730E+01 0.85007035450E+01 0.95247286761E+01 0.11485996949E+02 0.14435269381E+02
 0.17708559065E+02 0.20278459668E+02 0.21252122141E+02 0.20280348176E+02 0.17712252693E+02
 0.23761996794E+02 0.17915196664E+02 0.13067757929E+02 0.10046228183E+02 0.86342963118E+01
 0.78357928658E+01 0.72885536681E+01 0.70247630929E+01 0.70244305178E+01 0.72882449582E+01
 0.78362870345E+01 0.86346555049E+01 0.10044577432E+02 0.13064025360E+02 0.17911964345E+02
 0.23761769133E+02 0.29074007133E+02 0.32236922609E+02 0.32235619480E+02 0.29071892275E+02
 0.38009309074E+02 0.29239542028E+02 0.20627451233E+02 0.14050764806E+02 0.10250390583E+02
 0.86347736873E+01 0.78002525734E+01 0.72824320853E+01 0.71126074543E+01 0.72824192178E+01
 0.78003063344E+01 0.86345152346E+01 0.10249204353E+02 0.14049042163E+02 0.20627119328E+02
 0.29242425375E+02 0.38014679463E+02 0.44588662828E+02 0.47027359300E+02 0.44584302423E+02
 0.55379335871E+02 0.44700043725E+02 0.32497093389E+02 0.21651336039E+02 0.14048974322E+02
 0.10044915075E+02 0.85005664457E+01 0.77028281691E+01 0.72900509120E+01 0.72903146549E+01
 0.77031952676E+01 0.85003836496E+01 0.10044339095E+02 0.14049045660E+02 0.21652929051E+02
 0.32499980693E+02 0.44703100765E+02 0.55381481851E+02 0.61632782987E+02 0.61632038589E+02
 0.72417349065E+02 0.61694350125E+02 0.47184088253E+02 0.32498685887E+02 0.20625877848E+02
 0.13063897573E+02 0.95248937575E+01 0.82568477144E+01 0.75712881005E+01 0.73374548185E+01
 0.75718394843E+01 0.82569523170E+01 0.95243565927E+01 0.13063983514E+02 0.20627423055E+02
 0.32500221386E+02 0.47183070094E+02 0.61690480077E+02 0.72413697152E+02 0.76375737411E+02
 0.84964494908E+02 0.76396941040E+02 0.61694925763E+02 0.44704641551E+02 0.29242349371E+02
 0.17911911946E+02 0.11486216688E+02 0.88996878878E+01 0.79338967475E+01 0.74371881823E+01
 0.74374922836E+01 0.79342568792E+01 0.88994183929E+01 0.11485804449E+02 0.17912317661E+02
 0.29243012910E+02 0.44703311965E+02 0.61690337689E+02 0.76391230909E+02 0.84961872156E+02
 0.56311228366E+02 0.53400933063E+02 0.45517197567E+02 0.34871472970E+02 0.24204630144E+02
 0.15802927592E+02 0.10724964800E+02 0.85089655455E+01 0.75607517801E+01 0.69782825148E+01
 0.67844522795E+01 0.69783681167E+01 0.75608279918E+01 0.85089552925E+01 0.10724893646E+02
 0.15802880813E+02 0.24204647373E+02 0.34871515417E+02 0.45517214853E+02 0.53400926433E+02
 0.53402299698E+02 0.53401114491E+02 0.47985186997E+02 0.38721470794E+02 0.28138297499E+02
 0.18787796691E+02 0.12344311189E+02 0.90578666135E+01 0.77787190248E+01 0.70415452746E+01