   2   2   0   0
  0.9638209E+01  0.2330000E-09  0.2330000E-09  0.4100000E-09  0.5000000E-15
  1.000000000000000E-004
  CAR 
 unknown system                          
     74.32496175     -5.29397683  301      7.66230109      1.00000000
     -5.294  0.0000E+00  0.0000E+00
     -5.029  0.0000E+00  0.0000E+00
     -4.763  0.0000E+00  0.0000E+00
     -4.498  0.0000E+00  0.0000E+00
     -4.232  0.0000E+00  0.0000E+00
     -3.967  0.0000E+00  0.0000E+00
     -3.702  0.0000E+00  0.0000E+00
     -3.436 -0.3127E-34 -0.8300E-35
     -3.171 -0.6452E-25 -0.1712E-25
     -2.905 -0.3810E-17 -0.1011E-17
     -2.640 -0.6070E-11 -0.1611E-11
     -2.375 -0.2652E-06 -0.7039E-07
     -2.109 -0.2662E-03 -0.7073E-04
     -1.844  0.2055E-03 -0.1620E-04
     -1.578  0.4865E-01  0.1289E-01
     -1.313  0.5455E-01  0.2737E-01
     -1.048  0.8187E-01  0.4910E-01
     -0.782 -0.3999E-02  0.4804E-01
     -0.517 -0.4648E-02  0.4681E-01
     -0.251  0.3739E-01  0.5673E-01
      0.014  0.3958E+00  0.1618E+00
      0.279  0.5567E+00  0.3095E+00
      0.545  0.2383E+00  0.3728E+00
      0.810 -0.3159E-01  0.3644E+00
      1.076  0.1586E+00  0.4065E+00
      1.341  0.7022E+00  0.5929E+00
      1.606 -0.1264E-03  0.5928E+00
      1.872 -0.1375E-01  0.5892E+00
      2.137  0.4256E-01  0.6005E+00
      2.403  0.2294E+01  0.1209E+01
      2.668  0.2077E+01  0.1760E+01
      2.933  0.1574E+01  0.2178E+01
      3.199  0.3333E+01  0.3063E+01
      3.464  0.2310E+01  0.3676E+01
      3.730  0.2522E+01  0.4345E+01
      3.995  0.8574E+00  0.4573E+01
      4.260  0.3657E+01  0.5544E+01
      4.526  0.4226E+01  0.6665E+01
      4.791  0.2183E+01  0.7244E+01
      5.056  0.1571E+01  0.7661E+01
      5.322  0.3660E+01  0.8633E+01
      5.587  0.3925E+01  0.9674E+01
      5.853  0.2780E+01  0.1041E+02
      6.118  0.3468E+01  0.1133E+02
      6.383  0.2521E+01  0.1200E+02
      6.649  0.3439E+01  0.1291E+02
      6.914  0.4465E+01  0.1410E+02
      7.180  0.4088E+01  0.1518E+02
      7.445  0.2029E+01  0.1572E+02
      7.710  0.1464E+01  0.1611E+02
      7.976  0.2783E+01  0.1685E+02
      8.241  0.3811E+01  0.1786E+02
      8.507  0.4346E+01  0.1901E+02
      8.772  0.6651E+01  0.2078E+02
      9.037  0.1863E+01  0.2127E+02
      9.303  0.9543E+00  0.2153E+02
      9.568  0.9683E+00  0.2178E+02
      9.834  0.3525E-01  0.2179E+02
     10.099 -0.1671E-01  0.2179E+02
     10.364  0.1652E-01  0.2179E+02
     10.630  0.1730E+01  0.2225E+02
     10.895  0.4721E+00  0.2238E+02
     11.161 -0.3845E-01  0.2237E+02
     11.426 -0.1632E-02  0.2237E+02
     11.691 -0.1267E-02  0.2237E+02
     11.957  0.3067E+00  0.2245E+02
     12.222  0.4604E-01  0.2246E+02
     12.488  0.2042E+00  0.2252E+02
     12.753  0.7895E+00  0.2272E+02
     13.018  0.1537E+01  0.2313E+02
     13.284  0.7802E+00  0.2334E+02
     13.549  0.1197E+00  0.2337E+02
     13.815  0.5613E+00  0.2352E+02
     14.080  0.1591E+00  0.2356E+02
     14.345  0.8002E+00  0.2377E+02
     14.611  0.1328E+00  0.2381E+02
     14.876  0.2672E-01  0.2382E+02
     15.142  0.3137E+00  0.2390E+02
     15.407  0.5547E-01  0.2392E+02
     15.672  0.6100E+00  0.2408E+02
     15.938  0.1430E+00  0.2412E+02
     16.203 -0.2460E-01  0.2411E+02
     16.469  0.2082E+00  0.2416E+02
     16.734  0.2580E+00  0.2423E+02
     16.999  0.3041E+00  0.2431E+02
     17.265  0.8891E-01  0.2434E+02
     17.530 -0.3674E-01  0.2433E+02
     17.796  0.5005E+00  0.2446E+02
     18.061  0.1930E+01  0.2497E+02
     18.326  0.5361E+00  0.2511E+02
     18.592 -0.4762E-01  0.2510E+02
     18.857  0.8602E+00  0.2533E+02
     19.122  0.6394E+00  0.2550E+02
     19.388  0.8880E+00  0.2574E+02
     19.653  0.7755E+00  0.2594E+02
     19.919  0.7596E+00  0.2614E+02
     20.184  0.1101E+01  0.2644E+02
     20.449  0.4154E+00  0.2655E+02
     20.715  0.3666E+00  0.2664E+02
     20.980  0.8217E+00  0.2686E+02
     21.246  0.3272E-02  0.2686E+02
     21.511  0.1946E+00  0.2691E+02
     21.776  0.1016E+01  0.2718E+02
     22.042  0.1334E+01  0.2754E+02
     22.307  0.1317E+00  0.2757E+02
     22.573  0.5793E+00  0.2773E+02
     22.838  0.1202E+01  0.2804E+02
     23.103  0.6177E+00  0.2821E+02
     23.369  0.1117E+01  0.2851E+02
     23.634  0.1165E+01  0.2881E+02
     23.900  0.4615E+00  0.2894E+02
     24.165  0.1567E+00  0.2898E+02
     24.430 -0.1468E-01  0.2897E+02
     24.696  0.6000E+00  0.2913E+02
     24.961  0.2455E+00  0.2920E+02
     25.227  0.1101E+01  0.2949E+02
     25.492  0.1409E+01  0.2986E+02
     25.757  0.9095E+00  0.3011E+02
     26.023  0.7641E+00  0.3031E+02
     26.288  0.1566E+01  0.3072E+02
     26.554  0.9011E+00  0.3096E+02
     26.819  0.7931E+00  0.3117E+02
     27.084  0.1238E+01  0.3150E+02
     27.350  0.6289E+00  0.3167E+02
     27.615  0.1368E+01  0.3203E+02
     27.881  0.2924E+00  0.3211E+02
     28.146  0.1305E+01  0.3246E+02
     28.411  0.6935E+00  0.3264E+02
     28.677  0.5441E+00  0.3279E+02
     28.942  0.1220E+01  0.3311E+02
     29.208  0.3984E+00  0.3322E+02
     29.473  0.6815E+00  0.3340E+02
     29.738  0.5822E+00  0.3355E+02
     30.004  0.2169E+00  0.3361E+02
     30.269  0.1616E+00  0.3365E+02
     30.535 -0.3784E-01  0.3364E+02
     30.800  0.3548E+00  0.3374E+02
     31.065  0.9279E+00  0.3398E+02
     31.331  0.1101E+01  0.3427E+02
     31.596  0.1431E+01  0.3465E+02
     31.862  0.2171E+01  0.3523E+02
     32.127  0.8897E+00  0.3547E+02
     32.392  0.4701E+00  0.3559E+02
     32.658  0.1490E+01  0.3599E+02
     32.923  0.1780E+01  0.3646E+02
     33.189  0.3603E+00  0.3655E+02
     33.454  0.5914E+00  0.3671E+02
     33.719  0.1516E+00  0.3675E+02
     33.985  0.4794E+00  0.3688E+02
     34.250  0.1693E+01  0.3733E+02
     34.515  0.1264E+01  0.3766E+02
     34.781  0.9404E+00  0.3791E+02
     35.046  0.5487E+00  0.3806E+02
     35.312 -0.6250E-01  0.3804E+02
     35.577  0.2786E+00  0.3812E+02
     35.842  0.1185E+01  0.3843E+02
     36.108  0.3096E+00  0.3851E+02
     36.373  0.4924E+00  0.3864E+02
     36.639  0.5924E+00  0.3880E+02
     36.904  0.7082E+00  0.3899E+02
     37.169  0.1038E+01  0.3926E+02
     37.435  0.1401E+01  0.3964E+02
     37.700  0.1366E+00  0.3967E+02
     37.966  0.1306E+01  0.4002E+02
     38.231  0.1526E+01  0.4042E+02
     38.496  0.7025E+00  0.4061E+02
     38.762  0.2537E+00  0.4068E+02
     39.027  0.1042E+00  0.4070E+02
     39.293  0.9106E+00  0.4095E+02
     39.558  0.9958E+00  0.4121E+02
     39.823  0.2211E+01  0.4180E+02
     40.089  0.1638E+00  0.4184E+02
     40.354  0.4850E+00  0.4197E+02
     40.620  0.8258E+00  0.4219E+02
     40.885  0.1455E+01  0.4258E+02
     41.150  0.5501E+00  0.4272E+02
     41.416  0.6793E+00  0.4290E+02
     41.681  0.8662E+00  0.4313E+02
     41.947  0.1800E+01  0.4361E+02
     42.212  0.6879E+00  0.4379E+02
     42.477  0.6438E+00  0.4396E+02
     42.743  0.6356E+00  0.4413E+02
     43.008  0.3947E+00  0.4424E+02
     43.274  0.1461E+01  0.4462E+02
     43.539  0.6927E+00  0.4481E+02
     43.804  0.1683E+01  0.4525E+02
     44.070  0.8980E+00  0.4549E+02
     44.335  0.9426E+00  0.4574E+02
     44.601  0.8456E+00  0.4597E+02
     44.866  0.1789E+01  0.4644E+02
     45.131  0.5188E+00  0.4658E+02
     45.397  0.8755E+00  0.4681E+02
     45.662  0.1878E+01  0.4731E+02
     45.928  0.8809E+00  0.4754E+02
     46.193  0.5264E+00  0.4768E+02
     46.458  0.8793E+00  0.4792E+02
     46.724  0.1367E+01  0.4828E+02
     46.989  0.9655E+00  0.4854E+02
     47.255  0.1646E+01  0.4897E+02
     47.520  0.4438E+00  0.4909E+02
     47.785  0.1194E+01  0.4941E+02
     48.051  0.2027E+00  0.4946E+02
     48.316  0.7436E+00  0.4966E+02
     48.582  0.7191E+00  0.4985E+02
     48.847  0.4240E-01  0.4986E+02
     49.112  0.6915E+00  0.5004E+02
     49.378  0.1922E+01  0.5055E+02
     49.643  0.9003E+00  0.5079E+02
     49.908  0.9443E+00  0.5104E+02
     50.174  0.1220E+01  0.5137E+02
     50.439  0.1708E+01  0.5182E+02
     50.705  0.2182E+01  0.5240E+02
     50.970  0.5203E+00  0.5254E+02
     51.235  0.6081E+00  0.5270E+02
     51.501  0.4273E+00  0.5281E+02
     51.766  0.3125E+00  0.5290E+02
     52.032  0.4052E+00  0.5300E+02
     52.297  0.5929E+00  0.5316E+02
     52.562  0.1038E+01  0.5344E+02
     52.828  0.1177E+01  0.5375E+02
     53.093  0.5235E+00  0.5389E+02
     53.359  0.1316E+01  0.5424E+02
     53.624  0.4035E+00  0.5434E+02
     53.889  0.9203E+00  0.5459E+02
     54.155  0.2022E+01  0.5513E+02
     54.420  0.2145E+01  0.5569E+02
     54.686  0.1601E+01  0.5612E+02
     54.951  0.1100E+01  0.5641E+02
     55.216  0.9428E+00  0.5666E+02
     55.482  0.9052E+00  0.5690E+02
     55.747  0.1127E+01  0.5720E+02
     56.013  0.3864E+00  0.5730E+02
     56.278  0.1161E+01  0.5761E+02
     56.543  0.1589E+01  0.5803E+02
     56.809  0.1198E+01  0.5835E+02
     57.074  0.2008E+01  0.5888E+02
     57.340  0.1831E+01  0.5937E+02
     57.605  0.2195E+01  0.5995E+02
     57.870  0.1884E+01  0.6045E+02
     58.136  0.1707E+01  0.6091E+02
     58.401  0.2191E+01  0.6149E+02
     58.667  0.1078E+01  0.6177E+02
     58.932  0.2397E+01  0.6241E+02
     59.197  0.1655E+01  0.6285E+02
     59.463  0.1169E+01  0.6316E+02
     59.728  0.2184E+01  0.6374E+02
     59.994  0.1212E+01  0.6406E+02
     60.259  0.3413E+00  0.6415E+02
     60.524  0.1120E+01  0.6445E+02
     60.790  0.2058E+01  0.6499E+02
     61.055  0.4440E+00  0.6511E+02
     61.321  0.6972E+00  0.6530E+02
     61.586  0.3090E+01  0.6612E+02
     61.851  0.2252E+01  0.6672E+02
     62.117  0.2356E+01  0.6734E+02
     62.382  0.1384E+01  0.6771E+02
     62.648  0.2552E+01  0.6839E+02
     62.913  0.1520E+01  0.6879E+02
     63.178  0.3946E+00  0.6889E+02
     63.444  0.1314E+01  0.6924E+02
     63.709  0.3162E+01  0.7008E+02
     63.974  0.1617E+01  0.7051E+02
     64.240  0.1553E+01  0.7092E+02
     64.505  0.3615E+00  0.7102E+02
     64.771  0.1511E+01  0.7142E+02
     65.036  0.2258E+01  0.7202E+02
     65.301  0.2737E+01  0.7275E+02
     65.567  0.1284E+01  0.7309E+02
     65.832  0.2082E+01  0.7364E+02
     66.098  0.1291E+01  0.7398E+02
     66.363  0.9795E+00  0.7424E+02
     66.628  0.1023E+01  0.7451E+02
     66.894  0.1326E+01  0.7486E+02
     67.159  0.3274E+01  0.7573E+02
     67.425  0.7484E+00  0.7593E+02
     67.690  0.8131E+00  0.7615E+02
     67.955  0.6341E+00  0.7632E+02
     68.221  0.2262E+01  0.7692E+02
     68.486  0.2384E+01  0.7755E+02
     68.752  0.6023E+00  0.7771E+02
     69.017  0.1362E+01  0.7807E+02
     69.282  0.1642E+01  0.7851E+02
     69.548  0.1949E+01  0.7902E+02
     69.813  0.1020E+01  0.7929E+02
     70.079  0.6029E+00  0.7945E+02
     70.344  0.2925E+00  0.7953E+02
     70.609  0.1070E+01  0.7982E+02
     70.875  0.7030E+00  0.8000E+02
     71.140 -0.7033E-02  0.8000E+02
     71.406 -0.3214E-02  0.8000E+02
     71.671 -0.3183E-05  0.8000E+02
     71.936 -0.7284E-10  0.8000E+02
     72.202  0.0000E+00  0.8000E+02
     72.467  0.0000E+00  0.8000E+02
     72.733  0.0000E+00  0.8000E+02
     72.998  0.0000E+00  0.8000E+02
     73.263  0.0000E+00  0.8000E+02
     73.529  0.0000E+00  0.8000E+02
     73.794  0.0000E+00  0.8000E+02
     74.060  0.0000E+00  0.8000E+02
     74.325  0.0000E+00  0.8000E+02
