    2    2    1    1
  0.9638209E+01  0.2330000E-09  0.2330000E-09  0.4100000E-09  0.5000000E-15
  1.000000000000000E-004
  CAR 
 unknown system                          
     16     15     40
 
  0.0000000E+00  0.0000000E+00  0.0000000E+00  0.8000000E-02
    1       -1.674934   1.000000
    2        2.234347   1.000000
    3        5.194696   1.000000
    4        5.878252   1.000000
    5        5.878334   1.000000
    6        6.215139   1.000000
    7        6.215238   1.000000
    8        6.803311   1.000000
    9        7.232628   1.004808
   10        7.232647   1.004810
   11        8.390808  -0.000002
   12        8.390829  -0.000002
   13       15.394038   0.000000
   14       31.431405   0.000000
   15       31.643797   0.000000
   16       34.558394   0.000000
   17       37.246884   0.000000
   18       37.246942   0.000000
   19       38.023436   0.000000
   20       38.023613   0.000000
   21       38.834241   0.000000
   22       40.697964   0.000000
   23       40.697987   0.000000
   24       41.740941   0.000000
   25       44.575404   0.000000
   26       44.575422   0.000000
   27       45.508122   0.000000
   28       48.650770   0.000000
   29       48.651178   0.000000
   30       50.584250   0.000000
   31       50.584399   0.000000
   32       53.187185   0.000000
   33       60.969666   0.000000
   34       63.002235   0.000000
   35       63.003124   0.000000
   36       63.067409   0.000000
   37       64.178899   0.000000
   38       65.619834   0.000000
   39       65.620918   0.000000
   40       67.182973   0.000000
 
  0.2000000E+00 -0.1306388E-16  0.0000000E+00  0.4800000E-01
    1       -0.101735   1.000000
    2        3.218074   1.000000
    3        4.586951   1.000000
    4        4.965071   1.000000
    5        5.554647   1.000000
    6        6.343256   1.000000
    7        6.595098   1.000000
    8        6.760018   1.000000
    9        6.816954   1.000000
   10        7.082720   1.000163
   11        8.496939  -0.000000
   12       11.867001  -0.000000
   13       15.540362   0.000000
   14       25.743183   0.000000
   15       30.908001   0.000000
   16       31.346110   0.000000
   17       31.502748   0.000000
   18       33.056303   0.000000
   19       36.981397   0.000000
   20       38.370341   0.000000
   21       38.528888   0.000000
   22       39.142540   0.000000
   23       41.718436   0.000000
   24       43.095124   0.000000
   25       46.538059   0.000000
   26       47.803418   0.000000
   27       49.085708   0.000000
   28       51.655511   0.000000
   29       52.956555   0.000000
   30       55.876516   0.000000
   31       56.280282   0.000000
   32       58.322836   0.000000
   33       59.055352   0.000000
   34       59.372254   0.000000
   35       60.003904   0.000000
   36       61.402184   0.000000
   37       63.915477   0.000000
   38       67.043804   0.000000
   39       67.607078   0.000000
   40       68.285235   0.000000
 
  0.4000000E+00  0.1037082E-16  0.0000000E+00  0.4800000E-01
    1        2.478254   1.000000
    2        2.986560   1.000000
    3        3.162108   1.000000
    4        5.362800   1.000000
    5        5.654121   1.000000
    6        6.009425   1.000000
    7        6.150463   1.000000
    8        8.526139  -0.000000
    9        8.582634  -0.000000
   10        8.700765  -0.000000
   11        9.013673  -0.000000
   12       14.988848   0.000000
   13       16.802407   0.000000
   14       19.283988   0.000000
   15       23.892606   0.000000
   16       26.084505   0.000000
   17       26.464774   0.000000
   18       31.754830   0.000000
   19       34.183003   0.000000
   20       37.006031   0.000000
   21       38.110868   0.000000
   22       40.425977   0.000000
   23       41.749879   0.000000
   24       43.403930   0.000000
   25       49.690797   0.000000
   26       52.664267   0.000000
   27       53.871021   0.000000
   28       57.237736   0.000000
   29       57.793027   0.000000
   30       58.011389   0.000000
   31       58.684005   0.000000
   32       61.149179   0.000000
   33       61.553603   0.000000
   34       61.825446   0.000000
   35       63.585489   0.000000
   36       65.249407   0.000000
   37       66.343634   0.000000
   38       67.431015   0.000000
   39       67.711049   0.000000
   40       68.430965   0.000000
 
  0.2000000E+00  0.2000000E+00  0.0000000E+00  0.4800000E-01
    1        2.370895   1.000000
    2        3.587856   1.000000
    3        4.075484   1.000000
    4        4.118344   1.000000
    5        5.567090   1.000000
    6        5.699873   1.000000
    7        6.404485   1.000000
    8        6.797526   1.000000
    9        8.274664  -0.000066
   10        8.343490  -0.000008
   11        9.187245  -0.000000
   12       15.626864   0.000000
   13       16.454240   0.000000
   14       21.479990   0.000000
   15       22.358807   0.000000
   16       27.485512   0.000000
   17       28.888221   0.000000
   18       31.052453   0.000000
   19       31.736770   0.000000
   20       38.243181   0.000000
   21       39.679579   0.000000
   22       43.668872   0.000000
   23       43.927671   0.000000
   24       46.390874   0.000000
   25       47.018792   0.000000
   26       49.245754   0.000000
   27       49.507855   0.000000
   28       54.035928   0.000000
   29       56.110593   0.000000
   30       56.892715   0.000000
   31       56.965829   0.000000
   32       61.412595   0.000000
   33       61.473477   0.000000
   34       62.586584   0.000000
   35       64.080161   0.000000
   36       65.485536   0.000000
   37       65.646164   0.000000
   38       66.705704   0.000000
   39       67.435901   0.000000
   40       70.479225   0.000000
 
  0.4000000E+00  0.2000000E+00  0.0000000E+00  0.4800000E-01
    1        3.286712   1.000000
    2        3.478597   1.000000
    3        3.656501   1.000000
    4        4.991627   1.000000
    5        5.454174   1.000000
    6        5.546284   1.000000
    7        6.258229   1.000000
    8        8.105547  -0.003740
    9        8.111576  -0.003333
   10        8.464858  -0.000000
   11       12.500613  -0.000000
   12       14.319964   0.000000
   13       19.681245   0.000000
   14       20.140380   0.000000
   15       20.874858   0.000000
   16       22.425484   0.000000
   17       25.072205   0.000000
   18       26.927903   0.000000
   19       29.985717   0.000000
   20       40.261849   0.000000
   21       42.459442   0.000000
   22       43.918103   0.000000
   23       45.104509   0.000000
   24       46.059341   0.000000
   25       50.002557   0.000000
   26       50.232521   0.000000
   27       51.374938   0.000000
   28       53.397443   0.000000
   29       55.407690   0.000000
   30       57.706714   0.000000
   31       58.521310   0.000000
   32       59.698101   0.000000
   33       61.688068   0.000000
   34       61.958864   0.000000
   35       66.619727   0.000000
   36       67.125206   0.000000
   37       68.906049   0.000000
   38       69.378633   0.000000
   39       69.772150   0.000000
   40       70.142943   0.000000
 
  0.0000000E+00  0.0000000E+00  0.2000000E+00  0.1600000E-01
    1       -1.276515   1.000000
    2        2.065509   1.000000
    3        5.093167   1.000000
    4        5.846433   1.000000
    5        5.846506   1.000000
    6        5.927158   1.000000
    7        6.137221   1.000000
    8        6.137296   1.000000
    9        7.417956   1.035456
   10        7.417978   1.035456
   11        8.341979  -0.000008
   12        8.342002  -0.000008
   13       17.072488   0.000000
   14       29.072834   0.000000
   15       31.801633   0.000000
   16       33.836486   0.000000
   17       37.478667   0.000000
   18       37.478678   0.000000
   19       38.086617   0.000000
   20       38.086735   0.000000
   21       40.471426   0.000000
   22       40.471476   0.000000
   23       40.728391   0.000000
   24       42.887323   0.000000
   25       43.312701   0.000000
   26       43.312734   0.000000
   27       46.678508   0.000000
   28       49.925143   0.000000
   29       49.925373   0.000000
   30       52.244790   0.000000
   31       52.244891   0.000000
   32       52.482267   0.000000
   33       58.418812   0.000000
   34       62.009189   0.000000
   35       62.009342   0.000000
   36       62.130956   0.000000
   37       62.131446   0.000000
   38       62.881666   0.000000
   39       63.878296   0.000000
   40       67.290444   0.000000
 
  0.2000000E+00 -0.1306388E-16  0.2000000E+00  0.9600000E-01
    1        0.233186   1.000000
    2        3.134824   1.000000
    3        4.319126   1.000000
    4        5.061684   1.000000
    5        5.355054   1.000000
    6        6.028477   1.000000
    7        6.603486   1.000000
    8        6.934314   1.000002
    9        7.100496   1.000261
   10        7.216027   1.003530
   11        8.394144  -0.000001
   12       10.490544  -0.000000
   13       17.763950   0.000000
   14       26.031927   0.000000
   15       29.562686   0.000000
   16       30.819124   0.000000
   17       31.382026   0.000000
   18       32.686621   0.000000
   19       35.672933   0.000000
   20       37.281811   0.000000
   21       39.165792   0.000000
   22       40.751492   0.000000
   23       43.212214   0.000000
   24       45.417959   0.000000
   25       47.534140   0.000000
   26       47.607919   0.000000
   27       48.201291   0.000000
   28       50.683575   0.000000
   29       52.635876   0.000000
   30       55.541797   0.000000
   31       56.586747   0.000000
   32       57.455538   0.000000
   33       57.686836   0.000000
   34       58.082849   0.000000
   35       61.541222   0.000000
   36       62.795918   0.000000
   37       64.078806   0.000000
   38       64.699306   0.000000
   39       65.681559   0.000000
   40       68.287907   0.000000
 
  0.4000000E+00  0.1037082E-16  0.2000000E+00  0.9600000E-01
    1        2.310843   1.000000
    2        2.878697   1.000000
    3        3.631629   1.000000
    4        4.470278   1.000000
    5        6.074740   1.000000
    6        6.342196   1.000000
    7        6.943448   1.000002
    8        8.202734  -0.000448
    9        8.606444  -0.000000
   10        8.728769  -0.000000
   11        8.747594  -0.000000
   12       12.981770  -0.000000
   13       17.988519   0.000000
   14       20.170684   0.000000
   15       23.143081   0.000000
   16       27.082425   0.000000
   17       27.547285   0.000000
   18       31.712304   0.000000
   19       33.959244   0.000000
   20       34.259330   0.000000
   21       37.251379   0.000000
   22       41.124883   0.000000
   23       41.853309   0.000000
   24       45.451595   0.000000
   25       49.274769   0.000000
   26       52.033300   0.000000
   27       54.352006   0.000000
   28       56.214819   0.000000
   29       56.383664   0.000000
   30       59.291827   0.000000
   31       59.607332   0.000000
   32       60.610182   0.000000
   33       61.972810   0.000000
   34       63.467129   0.000000
   35       63.719913   0.000000
   36       64.940393   0.000000
   37       65.706840   0.000000
   38       66.827617   0.000000
   39       69.348696   0.000000
   40       69.416566   0.000000
 
  0.2000000E+00  0.2000000E+00  0.2000000E+00  0.9600000E-01
    1        2.468474   1.000000
    2        3.423345   1.000000
    3        4.215106   1.000000
    4        4.272842   1.000000
    5        5.515100   1.000000
    6        5.604861   1.000000
    7        6.344949   1.000000
    8        7.103852   1.000285
    9        7.948179  -0.030649
   10        8.494766  -0.000000
   11        9.277787  -0.000000
   12       12.967501  -0.000000
   13       19.608846   0.000000
   14       21.825550   0.000000
   15       22.746535   0.000000
   16       26.311848   0.000000
   17       27.392279   0.000000
   18       32.369618   0.000000
   19       32.820752   0.000000
   20       35.650447   0.000000
   21       40.768615   0.000000
   22       43.683520   0.000000
   23       44.289312   0.000000
   24       44.715771   0.000000
   25       47.110480   0.000000
   26       49.384207   0.000000
   27       51.132547   0.000000
   28       53.145362   0.000000
   29       54.957253   0.000000
   30       58.091056   0.000000
   31       59.887614   0.000000
   32       61.374493   0.000000
   33       61.420134   0.000000
   34       62.071363   0.000000
   35       62.767689   0.000000
   36       65.004598   0.000000
   37       65.230085   0.000000
   38       67.015252   0.000000
   39       68.000061   0.000000
   40       68.084598   0.000000
 
  0.4000000E+00  0.2000000E+00  0.2000000E+00  0.9600000E-01
    1        3.050585   1.000000
    2        3.573599   1.000000
    3        4.198908   1.000000
    4        4.366127   1.000000
    5        5.259508   1.000000
    6        5.943110   1.000000
    7        6.567049   1.000000
    8        7.770731   0.107637
    9        8.147289  -0.001609
   10        8.551964  -0.000000
   11       12.623340  -0.000000
   12       14.145935   0.000000
   13       18.750373   0.000000
   14       19.278820   0.000000
   15       20.735067   0.000000
   16       24.606279   0.000000
   17       25.602234   0.000000
   18       26.614698   0.000000
   19       31.974827   0.000000
   20       37.938005   0.000000
   21       39.630885   0.000000
   22       41.818074   0.000000
   23       45.892982   0.000000
   24       47.055643   0.000000
   25       50.341673   0.000000
   26       50.617904   0.000000
   27       53.982207   0.000000
   28       54.583455   0.000000
   29       57.413311   0.000000
   30       57.502488   0.000000
   31       58.848168   0.000000
   32       58.923212   0.000000
   33       62.091858   0.000000
   34       62.459010   0.000000
   35       65.330118   0.000000
   36       66.981523   0.000000
   37       67.035884   0.000000
   38       68.915641   0.000000
   39       69.175704   0.000000
   40       70.705919   0.000000
 
  0.0000000E+00  0.0000000E+00  0.4000000E+00  0.1600000E-01
    1       -0.177493   1.000000
    2        1.218721   1.000000
    3        4.881982   1.000000
    4        4.959733   1.000000
    5        5.847227   1.000000
    6        5.847297   1.000000
    7        5.965165   1.000000
    8        5.965236   1.000000
    9        7.801495   0.041541
   10        7.801521   0.041495
   11        8.146148  -0.001649
   12        8.146173  -0.001648
   13       20.701468   0.000000
   14       24.970370   0.000000
   15       31.946634   0.000000
   16       32.660886   0.000000
   17       37.925703   0.000000
   18       37.925730   0.000000
   19       38.117975   0.000000
   20       38.118022   0.000000
   21       40.377446   0.000000
   22       40.377586   0.000000
   23       41.393465   0.000000
   24       41.393569   0.000000
   25       43.682044   0.000000
   26       44.614722   0.000000
   27       49.040419   0.000000
   28       50.790266   0.000000
   29       52.671206   0.000000
   30       52.671360   0.000000
   31       54.626143   0.000000
   32       54.626232   0.000000
   33       55.938683   0.000000
   34       57.498194   0.000000
   35       58.439351   0.000000
   36       58.439556   0.000000
   37       59.733094   0.000000
   38       59.733390   0.000000
   39       65.694357   0.000000
   40       68.498297   0.000000
 
  0.2000000E+00 -0.1306388E-16  0.4000000E+00  0.9600000E-01
    1        1.153966   1.000000
    2        2.355731   1.000000
    3        4.343856   1.000000
    4        4.826862   1.000000
    5        5.337936   1.000000
    6        5.705139   1.000000
    7        6.608620   1.000000
    8        6.761935   1.000000
    9        7.661371   0.503936
   10        7.867587  -0.027657
   11        8.096089  -0.004461
   12        8.926555  -0.000000
   13       21.709678   0.000000
   14       26.099869   0.000000
   15       26.887337   0.000000
   16       28.274567   0.000000
   17       32.728534   0.000000
   18       33.381733   0.000000
   19       34.266922   0.000000
   20       34.771234   0.000000
   21       42.145127   0.000000
   22       43.747908   0.000000
   23       44.845383   0.000000
   24       45.677544   0.000000
   25       46.431854   0.000000
   26       46.940934   0.000000
   27       50.427080   0.000000
   28       50.504293   0.000000
   29       53.285137   0.000000
   30       53.762381   0.000000
   31       54.295686   0.000000
   32       55.139547   0.000000
   33       57.207857   0.000000
   34       59.627380   0.000000
   35       60.546590   0.000000
   36       63.482962   0.000000
   37       63.499939   0.000000
   38       64.856727   0.000000
   39       65.125033   0.000000
   40       67.002306   0.000000
 
  0.4000000E+00  0.1037082E-16  0.4000000E+00  0.9600000E-01
    1        2.317678   1.000000
    2        2.649680   1.000000
    3        3.872560   1.000000
    4        4.120201   1.000000
    5        6.751228   1.000000
    6        6.851453   1.000000
    7        7.550388   0.901045
    8        7.815616   0.019005
    9        8.637675  -0.000000
   10        8.660199  -0.000000
   11        8.722590  -0.000000
   12       10.561425  -0.000000
   13       18.906696   0.000000
   14       19.937934   0.000000
   15       25.104439   0.000000
   16       27.985540   0.000000
   17       28.787856   0.000000
   18       31.269279   0.000000
   19       31.738912   0.000000
   20       32.515592   0.000000
   21       36.839081   0.000000
   22       39.500449   0.000000
   23       44.701433   0.000000
   24       46.585116   0.000000
   25       48.407994   0.000000
   26       50.128457   0.000000
   27       54.462956   0.000000
   28       56.860801   0.000000
   29       58.249255   0.000000
   30       58.251585   0.000000
   31       59.497666   0.000000
   32       60.794429   0.000000
   33       63.693591   0.000000
   34       64.024035   0.000000
   35       64.496115   0.000000
   36       64.737332   0.000000
   37       65.924642   0.000000
   38       66.227401   0.000000
   39       68.360990   0.000000
   40       70.484480   0.000000
 
  0.2000000E+00  0.2000000E+00  0.4000000E+00  0.9600000E-01
    1        2.737818   1.000000
    2        3.097702   1.000000
    3        4.504391   1.000000
    4        4.598576   1.000000
    5        5.256694   1.000000
    6        5.275007   1.000000
    7        6.593975   1.000000
    8        7.187510   1.001996
    9        8.155676  -0.001341
   10        8.678440  -0.000000
   11        9.445543  -0.000000
   12       10.588465  -0.000000
   13       22.748160   0.000000
   14       23.197388   0.000000
   15       23.574854   0.000000
   16       25.340197   0.000000
   17       25.385847   0.000000
   18       28.657305   0.000000
   19       36.126736   0.000000
   20       37.872021   0.000000
   21       39.767252   0.000000
   22       41.455098   0.000000
   23       42.518241   0.000000
   24       43.041029   0.000000
   25       49.119888   0.000000
   26       49.845626   0.000000
   27       52.426989   0.000000
   28       54.782038   0.000000
   29       56.983506   0.000000
   30       58.682649   0.000000
   31       58.868616   0.000000
   32       60.351689   0.000000
   33       61.665070   0.000000
   34       61.709346   0.000000
   35       62.378601   0.000000
   36       62.493431   0.000000
   37       65.176179   0.000000
   38       68.283837   0.000000
   39       69.120773   0.000000
   40       69.552757   0.000000
 
  0.4000000E+00  0.2000000E+00  0.4000000E+00  0.9600000E-01
    1        3.058203   1.000000
    2        3.411207   1.000000
    3        4.197277   1.000000
    4        4.631522   1.000000
    5        5.197348   1.000000
    6        5.941320   1.000000
    7        6.982959   1.000009
    8        7.245649   1.006053
    9        8.339160  -0.000009
   10        8.585931  -0.000000
   11       12.991300  -0.000000
   12       13.618405   0.000000
   13       17.920609   0.000000
   14       18.051710   0.000000
   15       21.895617   0.000000
   16       23.509372   0.000000
   17       28.029463   0.000000
   18       29.269557   0.000000
   19       34.242518   0.000000
   20       34.718606   0.000000
   21       36.499619   0.000000
   22       39.618623   0.000000
   23       44.315004   0.000000
   24       45.445507   0.000000
   25       54.108271   0.000000
   26       54.167105   0.000000
   27       55.514688   0.000000
   28       56.556437   0.000000
   29       57.112376   0.000000
   30       57.786223   0.000000
   31       59.010335   0.000000
   32       60.627727   0.000000
   33       62.527767   0.000000
   34       63.247417   0.000000
   35       63.628360   0.000000
   36       65.904270   0.000000
   37       66.439585   0.000000
   38       68.052867   0.000000
   39       68.742018   0.000000
   40       69.824250   0.000000
