unknown system                          
   1.00000000000000     
     2.330000    0.000000    0.000000
    -1.165000    2.017839    0.000000
     0.000000    0.000000    4.100000
   Fe
     2
Direct
  0.000000  0.000000  0.000000
  0.333333  0.666667  0.500000
 
   20   20   36
  162.08      153.59      130.75      100.03      68.724      42.442      24.081      13.884      9.8922      8.8045    
  8.4689      8.8046      9.8923      13.884      24.080      42.442      68.724      100.03      130.75      153.59    
  153.60      153.59      137.97      111.36      80.752      52.561      30.959      17.437      11.068      9.0992    
  8.4607      8.4604      9.0987      11.069      17.437      30.956      52.560      80.756      111.38      137.98    
  130.76      137.95      130.76      111.36      85.201      58.498      36.161      20.775      12.494      9.4068    
  8.4742      8.1587      8.4734      9.4067      12.495      20.774      36.157      58.495      85.205      111.37    
  100.03      111.30      111.30      100.03      80.752      58.498      38.100      22.798      13.681      9.7462    
  8.5008      7.9367      7.9363      8.5005      9.7471      13.683      22.798      38.096      58.491      80.745    
  68.711      80.657      85.076      80.668      68.724      52.561      36.161      22.798      14.143      9.9824    
  8.5264      7.8023      7.5526      7.8022      8.5265      9.9835      14.147      22.802      36.161      52.553    
  42.440      52.485      58.365      58.369      52.491      42.441      30.958      20.775      13.681      9.9824    
  8.5370      7.7423      7.3340      7.3342      7.7421      8.5355      9.9820      13.685      20.783      30.964    
  24.090      30.937      36.092      38.006      36.087      30.929      24.080      17.438      12.494      9.7463    
  8.5265      7.7423      7.2643      7.1091      7.2650      7.7412      8.5225      9.7423      12.495      17.444    
  13.884      17.456      20.785      22.790      22.786      20.776      17.449      13.885      11.069      9.4069    
  8.5008      7.8023      7.3338      7.1091      7.1099      7.3354      7.8020      8.4965      9.3993      11.062    
  9.8824      11.095      12.547      13.745      14.208      13.743      12.547      11.101      9.8924      9.0992    
  8.4741      7.9366      7.5525      7.3341      7.2650      7.3354      7.5559      7.9405      8.4741      9.0925    
  8.8043      9.1311      9.4721      9.8401      10.093      10.094      9.8450      9.4795      9.1373      8.8044    
  8.4605      8.1585      7.9363      7.8021      7.7421      7.7412      7.8019      7.9405      8.1667      8.4669    
  8.4782      8.5074      8.5536      8.6098      8.6592      8.6807      8.6631      8.6137      8.5529      8.5007    
  8.4686      8.4601      8.4734      8.5006      8.5265      8.5356      8.5225      8.4966      8.4742      8.4670    
  8.8041      8.5074      8.2488      8.0624      7.9561      7.9137      7.9145      7.9563      8.0581      8.2407    
  8.5011      8.8044      9.0988      9.4070      9.7472      9.9836      9.9821      9.7424      9.3995      9.0926    
  9.8823      9.1310      8.5536      8.0624      7.7168      7.5246      7.4646      7.5234      7.7135      8.0585    
  8.5536      9.1376      9.8924      11.069      12.495      13.683      14.147      13.685      12.495      11.062    
  13.884      11.095      9.4720      8.6097      7.9560      7.5246      7.3198      7.3190      7.5231      7.9564    
  8.6140      9.4794      11.101      13.885      17.437      20.774      22.798      22.802      20.783      17.444    
  24.090      17.456      12.547      9.8400      8.6591      7.9138      7.4647      7.3190      7.4640      7.9148    
  8.6631      9.8440      12.547      17.449      24.080      30.956      36.157      38.096      36.161      30.964    
  42.440      30.937      20.785      13.745      10.093      8.6807      7.9146      7.5234      7.5231      7.9148    
  8.6821      10.093      13.741      20.778      30.931      42.441      52.559      58.495      58.492      52.554    
  68.711      52.485      36.092      22.791      14.208      10.094      8.6630      7.9563      7.7135      7.9564    
  8.6631      10.093      14.204      22.787      36.091      52.492      68.724      80.756      85.205      80.746    
  100.03      80.657      58.365      38.006      22.786      13.742      9.8447      8.6137      8.0582      8.0585    
  8.6139      9.8439      13.741      22.787      38.009      58.371      80.663      100.03      111.38      111.38    
  130.76      111.30      85.076      58.369      36.088      20.776      12.547      9.4794      8.5530      8.2408    
  8.5536      9.4793      12.547      20.778      36.092      58.371      85.072      111.29      130.76      137.98    
  153.60      137.95      111.30      80.667      52.491      30.930      17.449      11.101      9.1372      8.5008    
  8.5013      9.1377      11.101      17.449      30.932      52.493      80.664      111.29      137.93      153.59    
  153.85      145.82      124.18      95.014      65.263      40.301      22.932      13.379      9.6995      8.6713    
  8.3432      8.6715      9.6997      13.379      22.932      40.301      65.263      95.014      124.18      145.82    
  145.83      145.82      131.01      105.77      76.686      49.894      29.412      16.681      10.766      8.9530    
  8.3286      8.3282      8.9526      10.766      16.680      29.410      49.893      76.690      105.78      131.02    
  124.18      131.00      124.18      105.77      80.911      55.527      34.326      19.799      12.068      9.2307    
  8.3377      8.0305      8.3369      9.2306      12.068      19.798      34.323      55.524      80.914      105.78    
  95.010      105.72      105.72      95.014      76.686      55.527      36.159      21.695      13.159      9.5312    
  8.3615      7.8131      7.8127      8.3611      9.5319      13.160      21.695      36.156      55.521      76.680    
  65.251      76.614      80.818      76.624      65.263      49.894      34.326      21.695      13.585      9.7409    
  8.3855      7.6820      7.4409      7.6820      8.3856      9.7419      13.588      21.699      34.326      49.887    
  40.299      49.845      55.438      55.441      49.850      40.300      29.412      19.800      13.159      9.7410    
  8.3956      7.6237      7.2298      7.2301      7.6235      8.3942      9.7406      13.163      19.807      29.417    
  22.940      29.415      34.302      36.119      34.298      29.408      22.932      16.681      12.068      9.5313    
  8.3856      7.6237      7.1628      7.0136      7.1634      7.6227      8.3819      9.5275      12.068      16.687    
  13.379      16.720      19.851      21.742      21.738      19.843      16.714      13.380      10.766      9.2308    
  8.3615      7.6820      7.2297      7.0135      7.0143      7.2312      7.6817      8.3575      9.2237      10.760    
  9.6904      10.810      12.156      13.272      13.703      13.269      12.157      10.816      9.6998      8.9530    
  8.3376      7.8130      7.4407      7.2300      7.1634      7.2312      7.4439      7.8166      8.3375      8.9467    
  8.6711      9.0009      9.3268      9.6677      9.9005      9.9019      9.6722      9.3338      9.0066      8.6712    
  8.3283      8.0304      7.8126      7.6819      7.6235      7.6227      7.6817      7.8166      8.0380      8.3344    
  8.3518      8.3893      8.4444      8.5085      8.5629      8.5861      8.5666      8.5121      8.4437      8.3829    
  8.3428      8.3280      8.3369      8.3612      8.3856      8.3943      8.3819      8.3576      8.3377      8.3345    
  8.6710      8.3892      8.1463      7.9735      7.8766      7.8387      7.8395      7.8768      7.9696      8.1388    
  8.3833      8.6713      8.9527      9.2308      9.5321      9.7420      9.7406      9.5276      9.2239      8.9468    
  9.6903      9.0007      8.4444      7.9735      7.6441      7.4616      7.4048      7.4605      7.6411      7.9699    
  8.4443      9.0070      9.6998      10.766      12.069      13.160      13.588      13.163      12.068      10.760    
  13.379      10.810      9.3268      8.5084      7.8765      7.4616      7.2652      7.2644      7.4603      7.8769    
  8.5123      9.3337      10.816      13.380      16.681      19.798      21.695      21.698      19.807      16.687    
  22.940      16.720      12.156      9.6676      8.5629      7.8388      7.4050      7.2644      7.4042      7.8397    
  8.5666      9.6714      12.156      16.714      22.932      29.410      34.322      36.156      34.326      29.417    
  40.300      29.416      19.851      13.272      9.9005      8.5861      7.8396      7.4605      7.4602      7.8397    
  8.5874      9.9009      13.268      19.844      29.410      40.300      49.893      55.524      55.521      49.887    
  65.251      49.845      34.302      21.742      13.703      9.9019      8.5665      7.8768      7.6411      7.8769    
  8.5666      9.9009      13.700      21.738      34.302      49.851      65.263      76.690      80.915      76.680    
  95.010      76.614      55.437      36.119      21.738      13.269      9.6720      8.5120      7.9696      7.9700    
  8.5123      9.6712      13.268      21.738      36.123      55.443      76.620      95.014      105.78      105.78    
  124.18      105.72      80.817      55.441      34.299      19.843      12.156      9.3336      8.4438      8.1389    
  8.4444      9.3336      12.156      19.844      34.302      55.443      80.814      105.71      124.18      131.03    
  145.83      131.00      105.72      76.624      49.850      29.408      16.714      10.816      9.0066      8.3831    
  8.3835      9.0070      10.816      16.714      29.410      49.852      76.620      105.71      130.99      145.82    
  131.63      124.80      106.34      81.379      55.858      34.514      19.871      12.067      9.2004      8.3070    
  8.0015      8.3071      9.2005      12.067      19.871      34.514      55.858      81.379      106.34      124.80    
  124.80      124.80      112.17      90.582      65.631      42.663      25.260      14.689      9.9853      8.5510    
  7.9676      7.9672      8.5506      9.9856      14.689      25.258      42.662      65.634      90.590      112.18    
  106.35      112.17      106.34      90.582      69.247      47.461      29.381      17.211      10.962      8.7645    
  7.9619      7.6797      7.9611      8.7644      10.963      17.210      29.378      47.459      69.249      90.589    
  81.376      90.573      90.574      81.380      65.631      47.461      30.923      18.758      11.797      8.9705    
  7.9753      7.4731      7.4727      7.9749      8.9710      11.798      18.758      30.921      47.456      65.626    
  55.848      65.623      69.239      65.630      55.857      42.662      29.380      18.758      12.127      9.1138    
  7.9929      7.3497      7.1326      7.3497      7.9929      9.1145      12.129      18.761      29.381      42.657    
  34.513      42.687      47.491      47.493      42.691      34.513      25.259      17.211      11.797      9.1139    
  8.0008      7.2949      6.9415      6.9418      7.2949      7.9998      9.1135      11.800      17.217      25.264    
  19.878      25.332      29.483      31.032      29.480      25.326      19.871      14.689      10.962      8.9707    
  7.9930      7.2949      6.8811      6.7485      6.8818      7.2942      7.9900      8.9676      10.963      14.694    
  12.067      14.788      17.378      18.956      18.953      17.371      14.783      12.067      9.9857      8.7647    
  7.9753      7.3496      6.9414      6.7484      6.7490      6.9426      7.3494      7.9720      8.7589      9.9806    
  9.1929      10.082      11.152      12.048      12.396      12.046      11.152      10.088      9.2007      8.5510    
  7.9618      7.4730      7.1324      6.9417      6.8817      6.9426      7.1349      7.4759      7.9617      8.5459    
  8.3068      8.6453      8.9504      9.2309      9.4162      9.4173      9.2345      8.9561      8.6500      8.3069    
  7.9672      7.6794      7.4726      7.3496      7.2949      7.2942      7.3493      7.4759      7.6858      7.9723    
  8.0085      8.0697      8.1499      8.2355      8.3040      8.3316      8.3069      8.2384      8.1492      8.0643    
  8.0011      7.9669      7.9611      7.9750      7.9930      7.9998      7.9900      7.9721      7.9619      7.9724    
  8.3067      8.0696      7.8727      7.7392      7.6695      7.6448      7.6456      7.6697      7.7360      7.8664    
  8.0646      8.3069      8.5507      8.7647      8.9713      9.1146      9.1135      8.9676      8.7590      8.5460    
  9.1928      8.6452      8.1498      7.7392      7.4572      7.3034      7.2562      7.3027      7.4549      7.7363    
  8.1498      8.6503      9.2007      9.9860      10.963      11.798      12.129      11.800      10.963      9.9806    
  12.067      10.082      8.9504      8.2354      7.6694      7.3035      7.1319      7.1313      7.3024      7.6697    
  8.2387      8.9560      10.087      12.067      14.689      17.210      18.758      18.761      17.217      14.694    
  19.878      14.788      11.152      9.2308      8.3040      7.6449      7.2563      7.1313      7.2556      7.6456    
  8.3069      9.2339      11.152      14.783      19.871      25.258      29.377      30.920      29.381      25.264    
  34.513      25.332      17.378      12.048      9.4162      8.3317      7.6457      7.3028      7.3024      7.6456    
  8.3327      9.4166      12.045      17.372      25.327      34.513      42.661      47.459      47.457      42.657    
  55.848      42.686      29.483      18.956      12.397      9.4172      8.3068      7.6697      7.4549      7.6698    
  8.3069      9.4165      12.394      18.953      29.483      42.692      55.857      65.634      69.250      65.627    
  81.376      65.622      47.491      31.033      18.953      12.046      9.2342      8.2383      7.7361      7.7364    
  8.2386      9.2337      12.045      18.953      31.035      47.496      65.627      81.380      90.591      90.590    
  106.35      90.572      69.239      47.493      29.480      17.371      11.152      8.9558      8.1492      7.8666    
  8.1499      8.9559      11.151      17.372      29.483      47.496      69.236      90.565      106.34      112.18    
  124.80      112.17      90.573      65.630      42.691      25.326      14.783      10.087      8.6499      8.0646    
  8.0650      8.6504      10.087      14.783      25.327      42.692      65.627      90.565      112.16      124.80    
  101.50      96.253      82.042      62.757      43.047      26.745      15.895      10.448      8.5635      7.7994    
  7.5321      7.7996      8.5636      10.448      15.895      26.745      43.047      62.757      82.042      96.253    
  96.256      96.253      86.527      69.846      50.541      32.877      19.771      12.167      9.0291      7.9806    
  7.4671      7.4668      7.9803      9.0294      12.167      19.770      32.876      50.543      69.852      86.534    
  82.047      86.547      82.043      69.846      53.318      36.512      22.786      13.879      9.6007      8.1370    
  7.4346      7.1920      7.4339      8.1368      9.6013      13.879      22.784      36.511      53.319      69.851    
  62.754      69.892      69.893      62.757      50.541      36.512      23.923      14.950      10.105      8.2516    
  7.4264      6.9966      6.9963      7.4260      8.2518      10.106      14.950      23.921      36.509      50.537    
  43.040      50.620      53.430      50.625      43.046      32.876      22.786      14.950      10.308      8.3224    
  7.4296      6.8794      6.6979      6.8795      7.4296      8.3227      10.309      14.952      22.786      32.873    
  26.744      33.001      36.706      36.708      33.004      26.744      19.770      13.879      10.105      8.3225    
  7.4324      6.8268      6.5321      6.5324      6.8270      7.4317      8.3221      10.107      13.884      19.774    
  15.899      19.938      23.063      24.238      23.061      19.934      15.894      12.167      9.6012      8.2519    
  7.4298      6.8268      6.4798      6.3700      6.4804      6.8264      7.4277      8.2497      9.6013      12.171    
  10.447      12.350      14.208      15.358      15.356      14.204      12.347      10.448      9.0296      8.1373    
  7.4265      6.8794      6.5319      6.3699      6.3704      6.5327      6.8792      7.4242      8.1331      9.0258    
  8.5582      9.2016      9.9356      10.552      10.794      10.551      9.9360      9.2056      8.5639      7.9807    
  7.4344      6.9964      6.6977      6.5322      6.4804      6.5327      6.6992      6.9984      7.4344      7.9770    
  7.7993      8.1440      8.4559      8.6950      8.8355      8.8363      8.6975      8.4598      8.1473      7.7993    
  7.4667      7.1917      6.9962      6.8794      6.8270      6.8265      6.8792      6.9985      7.1963      7.4704    
  7.5369      7.6321      7.7460      7.8595      7.9455      7.9787      7.9475      7.8614      7.7454      7.6282    
  7.5315      7.4664      7.4339      7.4262      7.4298      7.4318      7.4277      7.4243      7.4346      7.4704    
  7.7992      7.6320      7.5037      7.4275      7.3966      7.3908      7.3914      7.3968      7.4252      7.4993    
  7.6284      7.7993      7.9804      8.1372      8.2521      8.3229      8.3221      8.2497      8.1333      7.9771    
  8.5581      8.1439      7.7460      7.4274      7.2162      7.1050      7.0718      7.1047      7.2148      7.4254    
  7.7459      8.1476      8.5639      9.0299      9.6017      10.106      10.309      10.107      9.6013      9.0258    
  10.447      9.2016      8.4558      7.8594      7.3965      7.1051      6.9709      6.9705      7.1044      7.3968    
  7.8617      8.4598      9.2053      10.448      12.168      13.879      14.950      14.952      13.884      12.171    
  15.900      12.350      9.9356      8.6950      7.9455      7.3909      7.0719      6.9705      7.0712      7.3912    
  7.9475      8.6972      9.9354      12.346      15.894      19.770      22.784      23.921      22.786      19.774    
  26.744      19.938      14.208      10.552      8.8356      7.9787      7.3915      7.1048      7.1044      7.3912    
  7.9793      8.8359      10.550      14.204      19.934      26.744      32.875      36.511      36.509      32.873    
  43.040      33.001      23.063      15.358      10.794      8.8362      7.9474      7.3968      7.2149      7.3969    
  7.9474      8.8358      10.793      15.356      23.063      33.005      43.046      50.543      53.320      50.538    
  62.754      50.620      36.706      24.239      15.356      10.551      8.6971      7.8612      7.4253      7.4256    
  7.8616      8.6969      10.550      15.356      24.240      36.709      50.623      62.757      69.852      69.851    
  82.047      69.891      53.430      36.708      23.061      14.204      9.9356      8.4595      7.7455      7.4995    
  7.7460      8.4596      9.9351      14.204      23.063      36.710      53.428      69.887      82.043      86.535    
  96.256      86.547      69.892      50.625      33.004      19.934      12.346      9.2052      8.1472      7.6285    
  7.6288      8.1476      9.2049      12.346      19.935      33.005      50.624      69.887      86.540      96.253    
  70.440      66.798      56.919      43.526      29.967      19.049      12.180      9.0390      7.8953      7.2521    
  7.0346      7.2522      7.8954      9.0390      12.180      19.048      29.967      43.526      56.919      66.798    
  66.799      66.798      60.024      48.408      35.039      23.031      14.489      9.9076      8.1609      7.3526    
  6.9327      6.9325      7.3524      8.1612      9.9081      14.489      23.030      35.040      48.411      60.028    
  56.922      60.065      56.919      48.408      36.928      25.425      16.341      10.818      8.4058      7.4429    
  6.8634      6.6701      6.8628      7.4426      8.4064      10.819      16.340      25.424      36.928      48.411    
  43.525      48.510      48.510      43.526      35.039      25.425      17.050      11.407      8.6182      7.5062    
  6.8226      6.4811      6.4809      6.8223      7.5062      8.6186      11.407      17.049      25.423      35.037    
  29.963      35.206      37.160      35.209      29.966      23.030      16.341      11.407      8.7054      7.5374    
  6.8028      6.3643      6.2233      6.3644      6.8028      7.5374      8.7060      11.408      16.341      23.028    
  19.048      23.256      25.783      25.784      23.257      19.048      14.488      10.818      8.6184      7.5375    
  6.7971      6.3099      6.0802      6.0805      6.3103      6.7968      7.5372      8.6195      10.821      14.491    
  12.182      14.751      16.793      17.570      16.792      14.749      12.180      9.9079      8.4063      7.5065    
  6.8029      6.3099      6.0348      5.9490      6.0353      6.3099      6.8018      7.5052      8.4064      9.9098    
  9.0387      10.176      11.311      12.027      12.026      11.309      10.174      9.0394      8.1614      7.4431    
  6.8227      6.3643      6.0800      5.9489      5.9491      6.0804      6.3641      6.8214      7.4407      8.1590    
  7.8922      8.4135      8.8927      9.2704      9.4167      9.2697      8.8931      8.4160      7.8957      7.3527    
  6.8633      6.4809      6.2231      6.0803      6.0353      6.0804      6.2238      6.4820      6.8633      7.3505    
  7.2520      7.5915      7.9064      8.1480      8.2787      8.2790      8.1494      7.9086      7.5933      7.2519    
  6.9323      6.6697      6.4807      6.3643      6.3103      6.3099      6.3641      6.4821      6.6725      6.9346    
  7.0374      7.1676      7.3120      7.4480      7.5470      7.5838      7.5480      7.4490      7.3115      7.1652    
  7.0341      6.9321      6.8628      6.8224      6.8029      6.7969      6.8018      6.8215      6.8634      6.9346    
  7.2519      7.1675      7.1150      7.0982      7.1060      7.1183      7.1187      7.1062      7.0968      7.1122    
  7.1654      7.2519      7.3525      7.4430      7.5065      7.5376      7.5372      7.5052      7.4408      7.3506    
  7.8921      7.5913      7.3120      7.0981      6.9639      6.8976      6.8788      6.8976      6.9632      7.0970    
  7.3119      7.5935      7.8957      8.1617      8.4067      8.6187      8.7059      8.6193      8.4063      8.1590    
  9.0387      8.4134      7.9063      7.4479      7.1059      6.8976      6.8041      6.8039      6.8973      7.1061    
  7.4492      7.9087      8.4157      9.0394      9.9083      10.818      11.407      11.408      10.821      9.9098    
  12.183      10.176      8.8927      8.1480      7.5469      7.1184      6.8790      6.8040      6.8784      7.1183    
  7.5480      8.1493      8.8927      10.174      12.180      14.488      16.340      17.048      16.341      14.491    
  19.048      14.751      11.311      9.2705      8.2787      7.5838      7.1187      6.8977      6.8974      7.1184    
  7.5840      8.2790      9.2695      11.309      14.749      19.048      23.030      25.424      25.423      23.028    
  29.963      23.256      16.793      12.028      9.4169      8.2789      7.5479      7.1062      6.9634      7.1062    
  7.5479      8.2789      9.4162      12.027      16.793      23.258      29.966      35.040      36.929      35.037    
  43.525      35.206      25.783      17.571      12.026      9.2696      8.1490      7.4488      7.0970      7.0972    
  7.4492      8.1490      9.2693      12.027      17.572      25.785      35.208      43.526      48.412      48.411    
  56.922      48.509      37.160      25.784      16.792      11.309      8.8927      7.9083      7.3116      7.1125    
  7.3120      7.9084      8.8923      11.309      16.793      25.785      37.159      48.507      56.919      60.029    
  66.799      60.064      48.510      35.209      23.258      14.749      10.174      8.4156      7.5932      7.1655    
  7.1658      7.5935      8.4153      10.174      14.749      23.258      35.208      48.507      60.061      66.798    
  43.938      41.675      35.558      27.358      19.275      13.104      9.5645      8.0635      7.2519      6.7521    
  6.5888      6.7522      7.2519      8.0635      9.5645      13.104      19.275      27.358      35.558      41.675    
  41.675      41.675      37.461      30.290      22.195      15.213      10.604      8.3820      7.4093      6.7673    
  6.4503      6.4502      6.7671      7.4095      8.3826      10.604      15.213      22.195      30.291      37.462    
  35.559      37.516      35.558      30.290      23.296      16.515      11.481      8.7086      7.5188      6.7823    
  6.3407      6.1979      6.3402      6.7821      7.5192      8.7091      11.481      16.514      23.295      30.291    
  27.358      30.433      30.433      27.358      22.195      16.515      11.825      8.9283      7.5778      6.7905    
  6.2618      6.0094      6.0092      6.2615      6.7904      7.5779      8.9283      11.825      16.514      22.194    
  19.273      22.427      23.616      22.428      19.274      15.212      11.481      8.9284      7.5976      6.7929    
  6.2142      5.8866      5.7837      5.8867      6.2142      6.7927      7.5976      8.9288      11.481      15.212    
  13.104      15.513      16.994      16.994      15.513      13.103      10.603      8.7088      7.5780      6.7930    
  6.1983      5.8266      5.6560      5.6563      5.8270      6.1982      6.7927      7.5783      8.7100      10.605    
  9.5657      10.938      12.064      12.500      12.064      10.937      9.5643      8.3822      7.5192      6.7908    
  6.2143      5.8266      5.6149      5.5494      5.6153      5.8268      6.2139      6.7902      7.5192      8.3831    
  8.0633      8.7185      9.3306      9.7147      9.7143      9.3297      8.7181      8.0639      7.4097      6.7826    
  6.2619      5.8866      5.6559      5.5493      5.5494      5.6560      5.8865      6.2613      6.7815      7.4085    
  7.2504      7.7303      8.1334      8.4001      8.4949      8.3999      8.1337      7.7317      7.2522      6.7674    
  6.3405      6.0092      5.7836      5.6561      5.6152      5.6560      5.7837      6.0096      6.3405      6.7663    
  6.7520      7.0736      7.3742      7.6076      7.7349      7.7350      7.6081      7.3751      7.0744      6.7519    
  6.4500      6.1976      6.0091      5.8867      5.8270      5.8268      5.8865      6.0097      6.1990      6.4511    
  6.5900      6.7496      6.9151      7.0633      7.1674      7.2051      7.1678      7.0636      6.9147      6.7484    
  6.5883      6.4498      6.3402      6.2616      6.2143      6.1983      6.2139      6.2614      6.3407      6.4511    
  6.7520      6.7496      6.7667      6.8010      6.8399      6.8658      6.8660      6.8400      6.8004      6.7654    
  6.7485      6.7520      6.7672      6.7825      6.7907      6.7929      6.7928      6.7902      6.7815      6.7664    
  7.2504      7.0735      6.9151      6.8010      6.7361      6.7085      6.7019      6.7087      6.7360      6.8005    
  6.9150      7.0745      7.2522      7.4099      7.5195      7.5780      7.5976      7.5782      7.5191      7.4085    
  8.0633      7.7304      7.3742      7.0633      6.8398      6.7086      6.6515      6.6515      6.7085      6.8399    
  7.0638      7.3752      7.7315      8.0639      8.3827      8.7090      8.9281      8.9285      8.7098      8.3830    
  9.5657      8.7186      8.1334      7.6075      7.1673      6.8658      6.7020      6.6515      6.7016      6.8657    
  7.1678      7.6082      8.1334      8.7177      9.5643      10.604      11.481      11.825      11.481      10.605    
  13.104      10.938      9.3307      8.4002      7.7349      7.2051      6.8661      6.7088      6.7086      6.8657    
  7.2051      7.7352      8.3999      9.3295      10.937      13.103      15.212      16.514      16.514      15.212    
  19.273      15.513      12.064      9.7149      8.4951      7.7349      7.1676      6.8400      6.7362      6.8400    
  7.1677      7.7350      8.4950      9.7145      12.064      15.513      19.274      22.196      23.296      22.195    
  27.358      22.427      16.994      12.500      9.7145      8.3998      7.6077      7.0635      6.8006      6.8007    
  7.0638      7.6079      8.3997      9.7145      12.501      16.995      22.428      27.358      30.292      30.291    
  35.559      30.432      23.615      16.994      12.064      9.3298      8.1334      7.3749      6.9148      6.7657    
  6.9151      7.3750      8.1331      9.3294      12.064      16.995      23.616      30.432      35.558      37.463    
  41.675      37.516      30.432      22.428      15.513      10.938      8.7180      7.7314      7.0743      6.7487    
  6.7489      7.0745      7.7311      8.7175      10.937      15.514      22.428      30.431      37.515      41.675    
  24.957      23.745      20.511      16.297      12.360      9.6096      8.1635      7.3300      6.7144      6.3574    
  6.2438      6.3574      6.7144      7.3299      8.1634      9.6096      12.360      16.297      20.511      23.745    
  23.745      23.745      21.494      17.741      13.675      10.412      8.4651      7.4747      6.7623      6.2928    
  6.0707      6.0706      6.2927      6.7625      7.4752      8.4655      10.412      13.675      17.741      21.494    
  20.511      21.556      20.511      17.741      14.182      10.931      8.7265      7.5594      6.7909      6.2366    