unknown system                          
   1.00000000000000     
     2.330000    0.000000    0.000000
    -1.165000    2.017839    0.000000
     0.000000    0.000000    4.100000
   Fe
     2
Direct
  0.000000  0.000000  0.000000
  0.333333  0.666667  0.500000
 
   20   20   36
 0.16207536866E+03 0.15359167885E+03 0.13075467733E+03 0.10003078894E+03 0.68724306037E+02
 0.42441951774E+02 0.24080636411E+02 0.13884441690E+02 0.98922063173E+01 0.88044613460E+01
 0.84689381465E+01 0.88046131129E+01 0.98923262791E+01 0.13884389807E+02 0.24080480325E+02
 0.42441868412E+02 0.68724363748E+02 0.10003089119E+03 0.13075471434E+03 0.15359166081E+03
 0.15359788897E+03 0.15359176063E+03 0.13796644285E+03 0.11136465160E+03 0.80752017320E+02
 0.52561261592E+02 0.30958514183E+02 0.17437491192E+02 0.11068456353E+02 0.90991532346E+01
 0.84607356049E+01 0.84603554203E+01 0.90987451734E+01 0.11068698923E+02 0.17437219200E+02
 0.30956477398E+02 0.52559635039E+02 0.80755868477E+02 0.11137608895E+03 0.13798002518E+03
 0.13076392787E+03 0.13794740660E+03 0.13075503239E+03 0.11136479043E+03 0.85201071761E+02
 0.58497796121E+02 0.36161185610E+02 0.20775202578E+02 0.12494180679E+02 0.94068121777E+01
 0.84742444883E+01 0.81586886523E+01 0.84733764759E+01 0.94067345832E+01 0.12494908731E+02
 0.20774208903E+02 0.36157362968E+02 0.58494894612E+02 0.85204548537E+02 0.11137467483E+03
 0.10002669977E+03 0.11130241551E+03 0.11130391125E+03 0.10003107376E+03 0.80751804680E+02
 0.58497560246E+02 0.38099626858E+02 0.22797836997E+02 0.13681188824E+02 0.97462310020E+01
 0.85008130790E+01 0.79366706913E+01 0.79362964030E+01 0.85004920349E+01 0.97471188354E+01
 0.13682739803E+02 0.22797780470E+02 0.38096214982E+02 0.58491443755E+02 0.80745448900E+02
 0.68711183190E+02 0.80657362414E+02 0.85076446200E+02 0.80667577492E+02 0.68724016314E+02
 0.52560720692E+02 0.36161043094E+02 0.22797923265E+02 0.14143356372E+02 0.99824077323E+01
 0.85264316723E+01 0.78022520467E+01 0.75526476961E+01 0.78022150887E+01 0.85264695568E+01
 0.99835181308E+01 0.14146626317E+02 0.22801971889E+02 0.36161329990E+02 0.52553406881E+02
 0.42440389354E+02 0.52485012570E+02 0.58365349612E+02 0.58368639205E+02 0.52490850492E+02
 0.42441458072E+02 0.30958306480E+02 0.20775416560E+02 0.13681342629E+02 0.99824481460E+01
 0.85370252408E+01 0.77423006321E+01 0.73339552109E+01 0.73342058071E+01 0.77420588799E+01
 0.85355294377E+01 0.99820390729E+01 0.13685452163E+02 0.20783330235E+02 0.30964184614E+02
 0.24089693861E+02 0.30937237164E+02 0.36091540972E+02 0.38005884827E+02 0.36087472963E+02
 0.30929431516E+02 0.24080497658E+02 0.17437737949E+02 0.12494453497E+02 0.97463232836E+01
 0.85265067880E+01 0.77423087049E+01 0.72643352743E+01 0.71091098013E+01 0.72650039812E+01
 0.77411705011E+01 0.85225025343E+01 0.97423367380E+01 0.12494908731E+02 0.17444038037E+02
 0.13884143018E+02 0.17455656638E+02 0.20785423071E+02 0.22790429087E+02 0.22786281945E+02
 0.20776424023E+02 0.17449026358E+02 0.13884650546E+02 0.11068757714E+02 0.94068905340E+01
 0.85008379791E+01 0.78022514695E+01 0.73338421781E+01 0.71090551738E+01 0.71099472689E+01
 0.73354380764E+01 0.78019683001E+01 0.84965474053E+01 0.93993390968E+01 0.11062223976E+02
 0.98824330580E+01 0.11094686751E+02 0.12547217373E+02 0.13745164054E+02 0.14207624773E+02
 0.13742594192E+02 0.12547400550E+02 0.11101296609E+02 0.98924143311E+01 0.90991613171E+01
 0.84741067356E+01 0.79366071009E+01 0.75525219604E+01 0.73340889666E+01 0.72650149592E+01
 0.73354342688E+01 0.75559350336E+01 0.79404878213E+01 0.84740561610E+01 0.90925170152E+01
 0.88042598865E+01 0.91311116849E+01 0.94720509966E+01 0.98400792542E+01 0.10092780094E+02
 0.10094306891E+02 0.98449648099E+01 0.94795086903E+01 0.91372675767E+01 0.88043877616E+01
 0.84604561770E+01 0.81585278394E+01 0.79362538747E+01 0.78021450318E+01 0.77420712520E+01
 0.77411748005E+01 0.78018988205E+01 0.79405088833E+01 0.81666841537E+01 0.84669368048E+01
 0.84781516825E+01 0.85074422599E+01 0.85536190091E+01 0.86098158305E+01 0.86591587269E+01
 0.86806505045E+01 0.86630941467E+01 0.86137385075E+01 0.85529102421E+01 0.85007263715E+01
 0.84686479202E+01 0.84601299984E+01 0.84734270506E+01 0.85005641428E+01 0.85265067880E+01
 0.85355732306E+01 0.85224646499E+01 0.84965946130E+01 0.84742444882E+01 0.84669908108E+01
 0.88041423976E+01 0.85073786287E+01 0.82487676049E+01 0.80623860739E+01 0.79560828965E+01
 0.79136549351E+01 0.79145210628E+01 0.79562805194E+01 0.80581465694E+01 0.82407280077E+01
 0.85010723677E+01 0.88044220394E+01 0.90988423686E+01 0.94069626939E+01 0.97472329112E+01
 0.99836082554E+01 0.99820887838E+01 0.97423585321E+01 0.93994888510E+01 0.90926061279E+01
 0.98823459328E+01 0.91310080707E+01 0.85536210850E+01 0.80623623593E+01 0.77167995091E+01
 0.75245549039E+01 0.74646049272E+01 0.75233801933E+01 0.77135368982E+01 0.80584655179E+01
 0.85535570907E+01 0.91376208030E+01 0.98924471675E+01 0.11069004502E+02 0.12495100346E+02
 0.13682821687E+02 0.14146676546E+02 0.13685380242E+02 0.12494827527E+02 0.11062228195E+02
 0.13884202372E+02 0.11094689218E+02 0.94720316673E+01 0.86097471185E+01 0.79560135054E+01
 0.75246015093E+01 0.73197876379E+01 0.73189634535E+01 0.75231408755E+01 0.79563601501E+01
 0.86139507776E+01 0.94793947818E+01 0.11101057291E+02 0.13884658017E+02 0.17437386588E+02
 0.20774176820E+02 0.22797683947E+02 0.22801789097E+02 0.20783084170E+02 0.17443958668E+02
 0.24089849947E+02 0.17455771290E+02 0.12547184648E+02 0.98400011637E+01 0.86591061293E+01
 0.79137599935E+01 0.74647490275E+01 0.73189711567E+01 0.74639580787E+01 0.79147792778E+01
 0.86630941468E+01 0.98440344202E+01 0.12546720865E+02 0.17449356733E+02 0.24080497658E+02
 0.30956250259E+02 0.36157076071E+02 0.38096012603E+02 0.36161185610E+02 0.30964165178E+02
 0.42440496900E+02 0.30937301648E+02 0.20785417224E+02 0.13745162569E+02 0.10092812515E+02
 0.86807248231E+01 0.79146377031E+01 0.75233859541E+01 0.75231000310E+01 0.79147908597E+01
 0.86821324252E+01 0.10093205244E+02 0.13741139319E+02 0.20777632107E+02 0.30931477068E+02
 0.42441482257E+02 0.52559265819E+02 0.58494823701E+02 0.58491608719E+02 0.52553578560E+02
 0.68711172521E+02 0.52484872275E+02 0.36091547832E+02 0.22790561485E+02 0.14207725661E+02
 0.10094267388E+02 0.86630261092E+01 0.79562528232E+01 0.77135263776E+01 0.79564018450E+01
 0.86630787070E+01 0.10093133320E+02 0.14204384478E+02 0.22786528734E+02 0.36091392944E+02
 0.52492329550E+02 0.68724063357E+02 0.80755996098E+02 0.85204991741E+02 0.80745789162E+02
 0.10002663239E+03 0.80657034264E+02 0.58365252439E+02 0.38006072670E+02 0.22786404929E+02
 0.13742460885E+02 0.98447348835E+01 0.86136643571E+01 0.80582058029E+01 0.80585484660E+01
 0.86139453391E+01 0.98438825843E+01 0.13741007498E+02 0.22786519319E+02 0.38009450704E+02
 0.58371316703E+02 0.80663420936E+02 0.10003110862E+03 0.11137658926E+03 0.11137503631E+03
 0.13076389087E+03 0.11130205728E+03 0.85076132801E+02 0.58368697594E+02 0.36087627852E+02
 0.20776360639E+02 0.12547184648E+02 0.94793940612E+01 0.85529742364E+01 0.82408469447E+01
 0.85536190090E+01 0.94792994821E+01 0.12546537689E+02 0.20777574571E+02 0.36091540972E+02
 0.58371472266E+02 0.85072479177E+02 0.11129211812E+03 0.13075503239E+03 0.13798027272E+03
 0.15359789088E+03 0.13794716217E+03 0.11130344696E+03 0.80667402849E+02 0.52491084303E+02
 0.30929634747E+02 0.17448982099E+02 0.11101140564E+02 0.91372200989E+01 0.85008476520E+01
 0.85012572793E+01 0.91376769394E+01 0.11100898780E+02 0.17449197821E+02 0.30931615814E+02
 0.52492703656E+02 0.80663574442E+02 0.11129201206E+03 0.13793355230E+03 0.15359174450E+03
 0.15385285842E+03 0.14582001752E+03 0.12417608405E+03 0.95013565749E+02 0.65263252281E+02
 0.40300886488E+02 0.22931791542E+02 0.13379297871E+02 0.96995490982E+01 0.86713399286E+01
 0.83431725201E+01 0.86714894026E+01 0.96996681058E+01 0.13379247645E+02 0.22931635652E+02
 0.40300797490E+02 0.65263300410E+02 0.95013661321E+02 0.12417612103E+03 0.14582000239E+03
 0.14582582382E+03 0.14582011562E+03 0.13101230163E+03 0.10577136918E+03 0.76686185327E+02
 0.49894441060E+02 0.29411940001E+02 0.16680600732E+02 0.10765530898E+02 0.89529662674E+01
 0.83286229335E+01 0.83282492699E+01 0.89525612205E+01 0.10765781591E+02 0.16680421674E+02
 0.29410104809E+02 0.49892923739E+02 0.76689720459E+02 0.10578197484E+03 0.13102493710E+03
 0.12418473609E+03 0.13099825256E+03 0.12417647231E+03 0.10577151497E+03 0.80911192047E+02
 0.55526943149E+02 0.34326203354E+02 0.19799318732E+02 0.12067675116E+02 0.92306853014E+01
 0.83377130409E+01 0.80305441540E+01 0.83368504508E+01 0.92305787459E+01 0.12068391875E+02
 0.19798468808E+02 0.34322673150E+02 0.55524191924E+02 0.80914346272E+02 0.10578066135E+03
 0.95009757514E+02 0.10572317894E+03 0.10572458522E+03 0.95013867379E+02 0.76685960827E+02
 0.55526692587E+02 0.36159129179E+02 0.21694821980E+02 0.13158796013E+02 0.95311525251E+01
 0.83614813090E+01 0.78130502252E+01 0.78126811218E+01 0.83611389560E+01 0.95319481140E+01
 0.13160236563E+02 0.21694775896E+02 0.36155941626E+02 0.55520960812E+02 0.76679995225E+02
 0.65251008731E+02 0.76614341659E+02 0.80817550792E+02 0.76623858027E+02 0.65262940197E+02
 0.49893862607E+02 0.34326034454E+02 0.21694904699E+02 0.13584967175E+02 0.97409161211E+01
 0.83855347638E+01 0.76820023540E+01 0.74408664516E+01 0.76819829798E+01 0.83855679790E+01
 0.97419156776E+01 0.13587975929E+02 0.21698679703E+02 0.34326349771E+02 0.49887102311E+02
 0.40299443588E+02 0.49844715218E+02 0.55437524110E+02 0.55440579865E+02 0.49850111389E+02
 0.40300348510E+02 0.29411698867E+02 0.19799528479E+02 0.13158969513E+02 0.97409706871E+01
 0.83956208154E+01 0.76237045043E+01 0.72298170408E+01 0.72300824231E+01 0.76235365170E+01
 0.83942449514E+01 0.97405617751E+01 0.13162786467E+02 0.19806957629E+02 0.29417280138E+02
 0.22940250710E+02 0.29415495191E+02 0.34302285230E+02 0.36119292303E+02 0.34298477079E+02
 0.29408183695E+02 0.22931635477E+02 0.16680855652E+02 0.12067980124E+02 0.95312776451E+01
 0.83856211210E+01 0.76237105325E+01 0.71627553996E+01 0.70135607967E+01 0.71634209680E+01
 0.76226903679E+01 0.83818913579E+01 0.95275365537E+01 0.12068391875E+02 0.16686750855E+02
 0.13378987460E+02 0.16720077533E+02 0.19851103502E+02 0.21741655572E+02 0.21737788791E+02
 0.19842725112E+02 0.16713939659E+02 0.13379534217E+02 0.10765866649E+02 0.92307932888E+01
 0.83615150941E+01 0.76819929641E+01 0.72296931777E+01 0.70134997346E+01 0.70143287345E+01
 0.72311761411E+01 0.76817227953E+01 0.83574953336E+01 0.92237040118E+01 0.10759699979E+02
 0.96903852993E+01 0.10810168889E+02 0.12156442449E+02 0.13271552351E+02 0.13703007029E+02
 0.13269159061E+02 0.12156652403E+02 0.10816418688E+02 0.96997847509E+01 0.89529820433E+01
 0.83375654552E+01 0.78129665091E+01 0.74407236625E+01 0.72299533621E+01 0.71634231483E+01
 0.72311709432E+01 0.74438753240E+01 0.78165849287E+01 0.83375181995E+01 0.89467397930E+01
 0.86711466689E+01 0.90008614289E+01 0.93268128682E+01 0.96676864364E+01 0.99005089436E+01
 0.99019253542E+01 0.96722351032E+01 0.93337791881E+01 0.90066181040E+01 0.86712486159E+01
 0.83283097642E+01 0.80303526638E+01 0.78126237755E+01 0.76819104149E+01 0.76235455128E+01
 0.76226933355E+01 0.76816596204E+01 0.78166112985E+01 0.80380218063E+01 0.83344134310E+01
 0.83517875778E+01 0.83892747411E+01 0.84444197755E+01 0.85084539088E+01 0.85629172411E+01
 0.85860513715E+01 0.85665814642E+01 0.85120908907E+01 0.84437115570E+01 0.83829373827E+01
 0.83428368235E+01 0.83279924700E+01 0.83368977065E+01 0.83612294702E+01 0.83856211210E+01
 0.83942923523E+01 0.83818581427E+01 0.83575520627E+01 0.83377130408E+01 0.83344698003E+01
 0.86710295187E+01 0.83892070794E+01 0.81463309572E+01 0.79735284345E+01 0.78765911652E+01
 0.78387010896E+01 0.78395255878E+01 0.78767983423E+01 0.79695582978E+01 0.81387755667E+01
 0.83832732319E+01 0.86712809396E+01 0.89526716334E+01 0.92308435143E+01 0.95320958084E+01
 0.97420141797E+01 0.97406057111E+01 0.95275591281E+01 0.92238607926E+01 0.89468344301E+01
 0.96902976231E+01 0.90007486691E+01 0.84444115057E+01 0.79735019625E+01 0.76440657083E+01
 0.74615671544E+01 0.74048204414E+01 0.74605154976E+01 0.76410608344E+01 0.79698687077E+01
 0.84443479745E+01 0.90069608376E+01 0.96998160821E+01 0.10766126833E+02 0.12068616542E+02
 0.13160323415E+02 0.13588007378E+02 0.13162699819E+02 0.12068311533E+02 0.10759709471E+02
 0.13379045352E+02 0.10810163610E+02 0.93267839732E+01 0.85083812120E+01 0.78765229194E+01
 0.74616146066E+01 0.72651858455E+01 0.72644224176E+01 0.74602629792E+01 0.78768562337E+01
 0.85123179697E+01 0.93336889729E+01 0.10816166170E+02 0.13379541883E+02 0.16680600417E+02
 0.19798427095E+02 0.21694652181E+02 0.21698473269E+02 0.19806706169E+02 0.16686674678E+02
 0.22940406600E+02 0.16720190110E+02 0.12156410891E+02 0.96676112298E+01 0.85628664605E+01
 0.78388061115E+01 0.74049683866E+01 0.72644369093E+01 0.74041840239E+01 0.78397115957E+01
 0.85665814642E+01 0.96713959518E+01 0.12155984655E+02 0.16714175893E+02 0.22931635477E+02
 0.29409848547E+02 0.34322357833E+02 0.36155721790E+02 0.34326203354E+02 0.29417265011E+02
 0.40299554101E+02 0.29415559893E+02 0.19851106499E+02 0.13271563327E+02 0.99005452746E+01
 0.85861207889E+01 0.78396420804E+01 0.74605347382E+01 0.74602347676E+01 0.78397230665E+01
 0.85874091977E+01 0.99009357010E+01 0.13267826674E+02 0.19843797314E+02 0.29410023835E+02
 0.40300370026E+02 0.49892530220E+02 0.55524121167E+02 0.55521140617E+02 0.49887287246E+02
 0.65251002953E+02 0.49844566833E+02 0.34302293356E+02 0.21741803373E+02 0.13703117903E+02
 0.99018776613E+01 0.85665007308E+01 0.78767754378E+01 0.76410678554E+01 0.78769015751E+01
 0.85665515116E+01 0.99008516772E+01 0.13700040507E+02 0.21738048975E+02 0.34302111350E+02
 0.49851465292E+02 0.65262982548E+02 0.76689864634E+02 0.80914826317E+02 0.76680363900E+02
 0.95009693477E+02 0.76613987689E+02 0.55437406097E+02 0.36119487688E+02 0.21737931100E+02
 0.13269023441E+02 0.96719799205E+01 0.85120009666E+01 0.79696296895E+01 0.79699665714E+01
 0.85123007424E+01 0.96712159757E+01 0.13267680078E+02 0.21738043483E+02 0.36122656822E+02
 0.55443098235E+02 0.76619985754E+02 0.95013898913E+02 0.10578252216E+03 0.10578106288E+03
 0.12418469911E+03 0.10572277962E+03 0.80817193945E+02 0.55440631967E+02 0.34298659085E+02
 0.19842675968E+02 0.12156410891E+02 0.93336295984E+01 0.84437750881E+01 0.81389224035E+01
 0.84444197755E+01 0.93335682783E+01 0.12155774701E+02 0.19843745174E+02 0.34302285230E+02
 0.55443268351E+02 0.80813874171E+02 0.10571358327E+03 0.12417647231E+03 0.13102522120E+03
 0.14582582431E+03 0.13099796877E+03 0.10572407098E+03 0.76623666750E+02 0.49850373621E+02
 0.29408420718E+02 0.16713886905E+02 0.10816222916E+02 0.90065554570E+01 0.83830898814E+01
 0.83834933925E+01 0.90070109505E+01 0.10815975677E+02 0.16714010561E+02 0.29410196156E+02
 0.49851875908E+02 0.76620148447E+02 0.10571346835E+03 0.13098531085E+03 0.14582010098E+03
 0.13163003540E+03 0.12479712443E+03 0.10634031859E+03 0.81379277405E+02 0.55857564702E+02
 0.34514099408E+02 0.19871313148E+02 0.12067057366E+02 0.92004217507E+01 0.83069998619E+01
 0.80015254473E+01 0.83071413169E+01 0.92005364539E+01 0.12067012359E+02 0.19871161897E+02
 0.34514001192E+02 0.55857591955E+02 0.81379356838E+02 0.10634035454E+03 0.12479711562E+03
 0.12480184665E+03 0.12479726122E+03 0.11217097926E+03 0.90581821335E+02 0.65631284128E+02
 0.42663021172E+02 0.25259588834E+02 0.14688610556E+02 0.99853300286E+01 0.85509860393E+01
 0.79676003976E+01 0.79672490087E+01 0.85505961617E+01 0.99855994429E+01 0.14688666166E+02
 0.25258280774E+02 0.42661797243E+02 0.65633986342E+02 0.90590214825E+02 0.11218108781E+03
 0.10634736424E+03 0.11217096906E+03 0.10634078384E+03 0.90581982636E+02 0.69246886787E+02
 0.47461465580E+02 0.29380549792E+02 0.17210665243E+02 0.10962052177E+02 0.87645347832E+01
 0.79619472035E+01 0.76797025207E+01 0.79611125371E+01 0.87643609398E+01 0.10962732642E+02
 0.17210183515E+02 0.29377792746E+02 0.47459123643E+02 0.69249195008E+02 0.90589168984E+02
 0.81376220601E+02 0.90572813717E+02 0.90573977899E+02 0.81379616879E+02 0.65631033431E+02
 0.47461182252E+02 0.30923118744E+02 0.18758368516E+02 0.11797072968E+02 0.89704874815E+01
 0.79752830383E+01 0.74730824281E+01 0.74727324330E+01 0.79748949170E+01 0.89710445785E+01
 0.11798218569E+02 0.18758346027E+02 0.30920528894E+02 0.47456483002E+02 0.65626119068E+02
 0.55847676432E+02 0.65622653243E+02 0.69239239736E+02 0.65630300697E+02 0.55857201451E+02
 0.42662358068E+02 0.29380318917E+02 0.18758441722E+02 0.12126549437E+02 0.91138066245E+01
 0.79929272431E+01 0.73496506486E+01 0.71325736996E+01 0.73496750954E+01 0.79929480246E+01
 0.91145160203E+01 0.12128865798E+02 0.18761482263E+02 0.29380698568E+02 0.42657066206E+02
 0.34512975858E+02 0.42686558821E+02 0.47491015162E+02 0.47493446903E+02 0.42690781056E+02
 0.34513459611E+02 0.25259269508E+02 0.17210862499E+02 0.11797292151E+02 0.91138946176E+01
 0.80008242753E+01 0.72948668279E+01 0.69415446941E+01 0.69418419248E+01 0.72948816950E+01
 0.79997629917E+01 0.91134906871E+01 0.11800329472E+02 0.17216985725E+02 0.25264037144E+02
 0.19878171597E+02 0.25331869930E+02 0.29483069648E+02 0.31032313964E+02 0.29479959498E+02
 0.25325886378E+02 0.19871117042E+02 0.14688882739E+02 0.10962431756E+02 0.89706902887E+01
 0.79930391906E+01 0.72948676242E+01 0.68811123529E+01 0.67484517457E+01 0.68817588824E+01
 0.72941524610E+01 0.79900422017E+01 0.89676122430E+01 0.10962732642E+02 0.14693693302E+02
 0.12066723242E+02 0.14787648400E+02 0.17378211184E+02 0.18956076483E+02 0.18952960561E+02
 0.17371492219E+02 0.14782819159E+02 0.12067358137E+02 0.99857455499E+01 0.87647132326E+01
 0.79753374113E+01 0.73496195643E+01 0.69413962838E+01 0.67483762458E+01 0.67490369618E+01
 0.69425781411E+01 0.73493859785E+01 0.79720477976E+01 0.87588731794E+01 0.99805792893E+01
 0.91928984904E+01 0.10082363150E+02 0.11152066394E+02 0.12047722176E+02 0.12396471831E+02
 0.12045803428E+02 0.11152343235E+02 0.10087633497E+02 0.92007219268E+01 0.85510207877E+01
 0.79617778299E+01 0.74729506097E+01 0.71323910796E+01 0.69416854006E+01 0.68817406165E+01
 0.69425700273E+01 0.71348512590E+01 0.74758686694E+01 0.79617408007E+01 0.85458651249E+01
 0.83068294318E+01 0.86453337491E+01 0.89504173196E+01 0.92308875318E+01 0.94161810642E+01
 0.94173049023E+01 0.92345393576E+01 0.89560698063E+01 0.86500215172E+01 0.83068672745E+01
 0.79672103832E+01 0.76794391051E+01 0.74726387246E+01 0.73495967961E+01 0.72948834101E+01
 0.72941533798E+01 0.73493387636E+01 0.74759067794E+01 0.76857912830E+01 0.79722919305E+01
 0.80085351472E+01 0.80696505042E+01 0.81498749186E+01 0.82355143067E+01 0.83040057432E+01
 0.83316369767E+01 0.83069450259E+01 0.82383912966E+01 0.81491794672E+01 0.80643440666E+01
 0.80010850058E+01 0.79669200649E+01 0.79611495663E+01 0.79750267277E+01 0.79930391906E+01
 0.79998205089E+01 0.79900214202E+01 0.79721252352E+01 0.79619472035E+01 0.79723530012E+01
 0.83067156121E+01 0.80695751212E+01 0.78726783871E+01 0.77392364902E+01 0.76694871940E+01
 0.76448488355E+01 0.76455565302E+01 0.76697109274E+01 0.77359870622E+01 0.78664297765E+01
 0.80646498831E+01 0.83068949098E+01 0.85507365379E+01 0.87647083655E+01 0.89712706376E+01
 0.91146357009E+01 0.91135223747E+01 0.89676354949E+01 0.87590421557E+01 0.85459707527E+01
 0.91928115826E+01 0.86452032443E+01 0.81498436482E+01 0.77392036907E+01 0.74571990658E+01
 0.73034448603E+01 0.72561777757E+01 0.73027097184E+01 0.74548708117E+01 0.77362713120E+01
 0.81497799355E+01 0.86503334023E+01 0.92007497222E+01 0.99860346668E+01 0.10963032224E+02
 0.11798317485E+02 0.12128854791E+02 0.11800209204E+02 0.10962652645E+02 0.99805989919E+01
 0.12066776512E+02 0.10082342476E+02 0.89503689062E+01 0.82354331060E+01 0.76694204574E+01
 0.73034922483E+01 0.71319110222E+01 0.71313086326E+01 0.73024288645E+01 0.76697143233E+01
 0.82386505836E+01 0.89560387751E+01 0.10087352643E+02 0.12067366400E+02 0.14688867493E+02
 0.17210118020E+02 0.18758160868E+02 0.18761223898E+02 0.17216722974E+02 0.14693622446E+02
 0.19878322848E+02 0.14787756498E+02 0.11152041670E+02 0.92308211175E+01 0.83039569943E+01
 0.76449486267E+01 0.72563316842E+01 0.71313398823E+01 0.72555773074E+01 0.76455625664E+01
 0.83069450259E+01 0.92339371865E+01 0.11151714971E+02 0.14782820329E+02 0.19871117042E+02
 0.25257953889E+02 0.29377413094E+02 0.30920272793E+02 0.29380549792E+02 0.25264029585E+02
 0.34513088920E+02 0.25331934045E+02 0.17378238448E+02 0.12047764977E+02 0.94162241826E+01
 0.83316892514E+01 0.76456688294E+01 0.73027626135E+01 0.73024343716E+01 0.76455750745E+01
 0.83326690322E+01 0.94166062987E+01 0.12044792939E+02 0.17372213591E+02 0.25327192966E+02
 0.34513474456E+02 0.42661347579E+02 0.47459056505E+02 0.47456699192E+02 0.42657279647E+02
 0.55847679857E+02 0.42686390476E+02 0.29483082120E+02 0.18956262195E+02 0.12396605110E+02
 0.94172346713E+01 0.83068321393E+01 0.76697013113E+01 0.74549243891E+01 0.76697714438E+01
 0.83068808883E+01 0.94164929493E+01 0.12394224949E+02 0.18953249678E+02 0.29482834644E+02
 0.42691806389E+02 0.55857232129E+02 0.65634169667E+02 0.69249761932E+02 0.65626553091E+02
 0.81376164441E+02 0.65622238279E+02 0.47490847789E+02 0.31032527469E+02 0.18953149230E+02
 0.12045662501E+02 0.92342243681E+01 0.82382652167E+01 0.77360907260E+01 0.77364077753E+01
 0.82386057046E+01 0.92336886114E+01 0.12044609212E+02 0.18953252636E+02 0.31035130829E+02
 0.47495534534E+02 0.65627187733E+02 0.81379640150E+02 0.90590872478E+02 0.90589665337E+02
 0.10634732829E+03 0.90572317558E+02 0.69238780412E+02 0.47493484322E+02 0.29480206975E+02
 0.17371478462E+02 0.11152041670E+02 0.89558375496E+01 0.81492431799E+01 0.78666446401E+01
 0.81498749186E+01 0.89558549318E+01 0.11151438130E+02 0.17372172570E+02 0.29483069648E+02
 0.47495739326E+02 0.69236333913E+02 0.90565092165E+02 0.10634078384E+03 0.11218145979E+03
 0.12480184452E+03 0.11217059227E+03 0.90573346964E+02 0.65630071335E+02 0.42691110567E+02
 0.25326203464E+02 0.14782746120E+02 0.10087343421E+02 0.86499233359E+01 0.80645707797E+01
 0.80649519793E+01 0.86503657259E+01 0.10087083242E+02 0.14782639192E+02 0.25327445937E+02
 0.42692304246E+02 0.65627373335E+02 0.90564957389E+02 0.11216047209E+03 0.12479725027E+03
 0.10149859791E+03 0.96252716130E+02 0.82042071515E+02 0.62756526666E+02 0.43046703253E+02
 0.26744905224E+02 0.15894724727E+02 0.10447696207E+02 0.85635412954E+01 0.77994264473E+01
 0.75320503939E+01 0.77995516607E+01 0.85636448197E+01 0.10447659632E+02 0.15894590440E+02
 0.26744810567E+02 0.43046715761E+02 0.62756589415E+02 0.82042103545E+02 0.96252711748E+02
 0.96255999015E+02 0.96252889300E+02 0.86527306223E+02 0.69846023703E+02 0.50541183964E+02
 0.32876731331E+02 0.19770718593E+02 0.12167086641E+02 0.90290810716E+01 0.79806100863E+01
 0.74671294278E+01 0.74668207836E+01 0.79802594844E+01 0.90293654072E+01 0.12167410765E+02
 0.19770070059E+02 0.32875897597E+02 0.50542825007E+02 0.69851539400E+02 0.86534103222E+02
 0.82046984994E+02 0.86547248945E+02 0.82042603341E+02 0.69846196177E+02 0.53318104272E+02
 0.36512416300E+02 0.22786145346E+02 0.13879303359E+02 0.96007238852E+01 0.81370355938E+01
 0.74346157667E+01 0.71920161380E+01 0.74338556978E+01 0.81368014004E+01 0.96013385198E+01
 0.13879259987E+02 0.22784381547E+02 0.36510635643E+02 0.53319347424E+02 0.69850841962E+02
 0.62754459656E+02 0.69891960352E+02 0.69892797275E+02 0.62756894841E+02 0.50540914834E+02
 0.36512108833E+02 0.23923294012E+02 0.14950108745E+02 0.10105119340E+02 0.82515795068E+01
 0.74264082520E+01 0.69965940842E+01 0.69962841443E+01 0.74259917221E+01 0.82518458391E+01
 0.10105877692E+02 0.14950105369E+02 0.23921485662E+02 0.36508780697E+02 0.50537407981E+02
 0.43039927188E+02 0.50620268562E+02 0.53430064164E+02 0.50625454527E+02 0.43046297991E+02
 0.32876002901E+02 0.22785857781E+02 0.14950169296E+02 0.10307962325E+02 0.83223724891E+01
 0.74296289388E+01 0.68794302757E+01 0.66978965835E+01 0.68795034620E+01 0.74296338352E+01
 0.83227181134E+01 0.10309384795E+02 0.14952235128E+02 0.22786288671E+02 0.32872610330E+02
 0.26744200560E+02 0.33001352780E+02 0.36706377641E+02 0.36707992314E+02 0.33004052403E+02
 0.26744180060E+02 0.19770328925E+02 0.13879480601E+02 0.10105378432E+02 0.83224918109E+01
 0.74323893209E+01 0.68267975535E+01 0.65320853170E+01 0.65324027247E+01 0.68270126007E+01
 0.74317253850E+01 0.83221081067E+01 0.10107397444E+02 0.13883854699E+02 0.19773967333E+02
 0.15899471890E+02 0.19938026663E+02 0.23063284044E+02 0.24238283989E+02 0.23061103175E+02
 0.19933812197E+02 0.15894494176E+02 0.12167368042E+02 0.96011681339E+01 0.82518554505E+01
 0.74297618407E+01 0.68267922206E+01 0.64797967920E+01 0.63700231138E+01 0.64803881216E+01
 0.68264487206E+01 0.74277267117E+01 0.82496699536E+01 0.96013385198E+01 0.12170744159E+02
 0.10447352089E+02 0.12349686625E+02 0.14208399571E+02 0.15357963556E+02 0.15355839453E+02
 0.14203864576E+02 0.12346557176E+02 0.10448055196E+02 0.90295659283E+01 0.81372813389E+01
 0.74264807495E+01 0.68793762604E+01 0.65319174087E+01 0.63699364726E+01 0.63703767831E+01
 0.65327051886E+01 0.68791959192E+01 0.74241695059E+01 0.81331242380E+01 0.90257705972E+01
 0.85582088391E+01 0.92016329690E+01 0.99356434266E+01 0.10552364323E+02 0.10794165328E+02
 0.10551075322E+02 0.99359923082E+01 0.92055643122E+01 0.85638989003E+01 0.79806647912E+01
 0.74344306943E+01 0.69964157606E+01 0.66976785151E+01 0.65322249514E+01 0.64803513226E+01
 0.65326953237E+01 0.66992491764E+01 0.69984139033E+01 0.74344102285E+01 0.79769722171E+01
 0.77992885686E+01 0.81440389603E+01 0.84558891925E+01 0.86950104762E+01 0.88355363244E+01
 0.88362812443E+01 0.86974901985E+01 0.84598093677E+01 0.81473138321E+01 0.77992569106E+01
 0.74666765827E+01 0.71916874692E+01 0.69961526686E+01 0.68794207111E+01 0.68270091861E+01
 0.68264506389E+01 0.68791671837E+01 0.69984607511E+01 0.71962639351E+01 0.74703711429E+01
 0.75369318439E+01 0.76320841519E+01 0.77460370342E+01 0.78595017292E+01 0.79455455169E+01
 0.79786894426E+01 0.79475305886E+01 0.78613887566E+01 0.77453901515E+01 0.76281884550E+01
 0.75315202610E+01 0.74664307380E+01 0.74338761637E+01 0.74261559595E+01 0.74297618407E+01
 0.74317965616E+01 0.74277218153E+01 0.74242612457E+01 0.74346157666E+01 0.74704339424E+01
 0.77991857409E+01 0.76320067963E+01 0.75037444983E+01 0.74274514879E+01 0.73966176789E+01
 0.73908350426E+01 0.73913742399E+01 0.73968398323E+01 0.74251545529E+01 0.74992522298E+01
 0.76284464087E+01 0.77992792961E+01 0.79804240847E+01 0.81372145026E+01 0.82521422834E+01
 0.83228611111E+01 0.83221317826E+01 0.82496904543E+01 0.81332915951E+01 0.79770821125E+01
 0.85581290585E+01 0.81439028957E+01 0.77459878104E+01 0.74274133486E+01 0.72162219374E+01
 0.71050317638E+01 0.70717600609E+01 0.71046799732E+01 0.72147521045E+01 0.74253952594E+01
 0.77459209384E+01 0.81475769241E+01 0.85639226440E+01 0.90298734710E+01 0.96016989208E+01
 0.10105988438E+02 0.10309338662E+02 0.10107249099E+02 0.96012546721E+01 0.90257938043E+01
 0.10447397439E+02 0.92016056869E+01 0.84558307386E+01 0.78594153682E+01 0.73965495789E+01
 0.71050731305E+01 0.69708709341E+01 0.69704770157E+01 0.71043812052E+01 0.73967817707E+01
 0.78616702773E+01 0.84598450437E+01 0.92052655442E+01 0.10448063971E+02 0.12167620683E+02
 0.13879169362E+02 0.14949870528E+02 0.14951939736E+02 0.13883586832E+02 0.12170672676E+02
 0.15899606177E+02 0.12349790947E+02 0.99356365234E+01 0.86949582275E+01 0.79454928358E+01
 0.73909150990E+01 0.70719100880E+01 0.69705260247E+01 0.70712292740E+01 0.73911796747E+01
 0.79475305886E+01 0.86971809652E+01 0.99354377776E+01 0.12346295775E+02 0.15894494176E+02
 0.19769672777E+02 0.22783950657E+02 0.23921210395E+02 0.22786145346E+02 0.19773959719E+02
 0.26744302917E+02 0.19938086847E+02 0.14208459164E+02 0.10552443698E+02 0.88355788518E+01
 0.79787097459E+01 0.73914712643E+01 0.71047695919E+01 0.71044294572E+01 0.73911966428E+01
 0.79793089965E+01 0.88359420297E+01 0.10550473016E+02 0.14204159340E+02 0.19934460630E+02
 0.26744187760E+02 0.32875400594E+02 0.36510581381E+02 0.36509033902E+02 0.32872841757E+02
 0.43039932794E+02 0.33001164150E+02 0.23063304430E+02 0.15358188413E+02 0.10794315756E+02
 0.88361811585E+01 0.79473818448E+01 0.73968483469E+01 0.72148637153E+01 0.73968583853E+01
 0.79474345259E+01 0.88357994164E+01 0.10792830850E+02 0.15356146996E+02 0.23062992184E+02
 0.33004662410E+02 0.43046316105E+02 0.50543044593E+02 0.53319993281E+02 0.50537896696E+02
 0.62754411266E+02 0.50619797979E+02 0.36706163935E+02 0.24238514268E+02 0.15356073012E+02
 0.10550930604E+02 0.86971197695E+01 0.78612320008E+01 0.74252979480E+01 0.74255767937E+01
 0.78615998825E+01 0.86968627848E+01 0.10550248923E+02 0.15356155699E+02 0.24240353263E+02
 0.36709497708E+02 0.50623339126E+02 0.62756909200E+02 0.69852296283E+02 0.69851426371E+02
 0.82046952965E+02 0.69891375449E+02 0.53429510403E+02 0.36708016007E+02 0.23061415420E+02
 0.14203889385E+02 0.99356365234E+01 0.84594994432E+01 0.77454570235E+01 0.74995363192E+01
 0.77460370342E+01 0.84595935731E+01 0.99350888960E+01 0.14204124556E+02 0.23063284044E+02
 0.36709735107E+02 0.53428157040E+02 0.69886700044E+02 0.82042603341E+02 0.86534560963E+02
 0.96255996445E+02 0.86546785535E+02 0.69892062607E+02 0.50625193695E+02 0.33004444464E+02
 0.19934204226E+02 0.12346464490E+02 0.92051847697E+01 0.81471832105E+01 0.76284857751E+01
 0.76288210844E+01 0.81475823672E+01 0.92049132838E+01 0.12346098768E+02 0.19934792475E+02
 0.33005243101E+02 0.50623548877E+02 0.69886550279E+02 0.86539983925E+02 0.96252882348E+02
 0.70440348672E+02 0.66797560603E+02 0.56918838592E+02 0.43526054093E+02 0.29966567636E+02
 0.19048508571E+02 0.12179753404E+02 0.90389887554E+01 0.78953447370E+01 0.72520934195E+01
 0.70346414576E+01 0.72521925021E+01 0.78954266888E+01 0.90389609150E+01 0.12179651051E+02
 0.19048440589E+02 0.29966584698E+02 0.43526107408E+02 0.56918863183E+02 0.66797554977E+02
 0.66799431518E+02 0.66797743673E+02 0.60024483452E+02 0.48408321232E+02 0.35039105971E+02
 0.23030574316E+02 0.14488800917E+02 0.99075968034E+01 0.81609173156E+01 0.73526414214E+01