   2   2   0   0
  0.9638209E+01  0.2330000E-09  0.2330000E-09  0.4100000E-09  0.5000000E-15
  1.000000000000000E-004
  CAR 
 unknown system                          
     74.28954129     -5.29196127  301      7.66863731      1.00000000
     -5.292  0.0000E+00  0.0000E+00
     -5.027  0.0000E+00  0.0000E+00
     -4.761  0.0000E+00  0.0000E+00
     -4.496  0.0000E+00  0.0000E+00
     -4.231  0.0000E+00  0.0000E+00
     -3.966  0.0000E+00  0.0000E+00
     -3.700  0.0000E+00  0.0000E+00
     -3.435 -0.3364E-34 -0.8924E-35
     -3.170 -0.6801E-25 -0.1804E-25
     -2.905 -0.3948E-17 -0.1047E-17
     -2.639 -0.6204E-11 -0.1646E-11
     -2.374 -0.2683E-06 -0.7117E-07
     -2.109 -0.2674E-03 -0.7100E-04
     -1.843  0.2116E-03 -0.1485E-04
     -1.578  0.4866E-01  0.1289E-01
     -1.313  0.5456E-01  0.2737E-01
     -1.048  0.8193E-01  0.4910E-01
     -0.782 -0.3996E-02  0.4804E-01
     -0.517 -0.4612E-02  0.4682E-01
     -0.252  0.3669E-01  0.5655E-01
      0.013  0.3957E+00  0.1615E+00
      0.279  0.5551E+00  0.3088E+00
      0.544  0.2416E+00  0.3728E+00
      0.809 -0.3154E-01  0.3645E+00
      1.075  0.1542E+00  0.4054E+00
      1.340  0.7052E+00  0.5924E+00
      1.605  0.1571E-02  0.5929E+00
      1.870 -0.1358E-01  0.5893E+00
      2.136  0.3408E-01  0.5983E+00
      2.401  0.2256E+01  0.1197E+01
      2.666  0.2100E+01  0.1754E+01
      2.931  0.1551E+01  0.2165E+01
      3.197  0.3321E+01  0.3046E+01
      3.462  0.2308E+01  0.3658E+01
      3.727  0.2554E+01  0.4336E+01
      3.993  0.8619E+00  0.4565E+01
      4.258  0.3560E+01  0.5509E+01
      4.523  0.4281E+01  0.6644E+01
      4.788  0.2228E+01  0.7235E+01
      5.054  0.1549E+01  0.7646E+01
      5.319  0.3580E+01  0.8596E+01
      5.584  0.3955E+01  0.9645E+01
      5.849  0.2809E+01  0.1039E+02
      6.115  0.3460E+01  0.1131E+02
      6.380  0.2525E+01  0.1198E+02
      6.645  0.3368E+01  0.1287E+02
      6.911  0.4481E+01  0.1406E+02
      7.176  0.4089E+01  0.1514E+02
      7.441  0.2153E+01  0.1572E+02
      7.706  0.1396E+01  0.1609E+02
      7.972  0.2763E+01  0.1682E+02
      8.237  0.3755E+01  0.1782E+02
      8.502  0.4270E+01  0.1895E+02
      8.767  0.6698E+01  0.2072E+02
      9.033  0.2047E+01  0.2127E+02
      9.298  0.9282E+00  0.2151E+02
      9.563  0.1004E+01  0.2178E+02
      9.829  0.5351E-01  0.2179E+02
     10.094 -0.1664E-01  0.2179E+02
     10.359 -0.2901E-02  0.2179E+02
     10.624  0.1679E+01  0.2223E+02
     10.890  0.5463E+00  0.2238E+02
     11.155 -0.4270E-01  0.2237E+02
     11.420 -0.1480E-02  0.2237E+02
     11.685 -0.4394E-02  0.2237E+02
     11.951  0.2991E+00  0.2245E+02
     12.216  0.5909E-01  0.2246E+02
     12.481  0.1710E+00  0.2251E+02
     12.747  0.7997E+00  0.2272E+02
     13.012  0.1484E+01  0.2311E+02
     13.277  0.8609E+00  0.2334E+02
     13.542  0.9609E-01  0.2337E+02
     13.808  0.5779E+00  0.2352E+02
     14.073  0.1362E+00  0.2356E+02
     14.338  0.8033E+00  0.2377E+02
     14.603  0.1569E+00  0.2381E+02
     14.869  0.1542E-01  0.2381E+02
     15.134  0.3173E+00  0.2390E+02
     15.399  0.5052E-01  0.2391E+02
     15.665  0.6005E+00  0.2407E+02
     15.930  0.1652E+00  0.2412E+02
     16.195 -0.2572E-01  0.2411E+02
     16.460  0.1947E+00  0.2416E+02
     16.726  0.2585E+00  0.2423E+02
     16.991  0.3117E+00  0.2431E+02
     17.256  0.9432E-01  0.2434E+02
     17.521 -0.3569E-01  0.2433E+02
     17.787  0.4526E+00  0.2445E+02
     18.052  0.1917E+01  0.2496E+02
     18.317  0.6017E+00  0.2512E+02
     18.582 -0.6024E-01  0.2510E+02
     18.848  0.8132E+00  0.2532E+02
     19.113  0.6794E+00  0.2550E+02
     19.378  0.8707E+00  0.2573E+02
     19.644  0.7729E+00  0.2593E+02
     19.909  0.7758E+00  0.2614E+02
     20.174  0.1086E+01  0.2643E+02
     20.439  0.4563E+00  0.2655E+02
     20.705  0.3208E+00  0.2663E+02
     20.970  0.8515E+00  0.2686E+02
     21.235  0.1720E-01  0.2686E+02
     21.500  0.1879E+00  0.2691E+02
     21.766  0.9758E+00  0.2717E+02
     22.031  0.1374E+01  0.2753E+02
     22.296  0.1253E+00  0.2757E+02
     22.562  0.5813E+00  0.2772E+02
     22.827  0.1192E+01  0.2804E+02
     23.092  0.6043E+00  0.2820E+02
     23.357  0.1146E+01  0.2850E+02
     23.623  0.1170E+01  0.2881E+02
     23.888  0.4682E+00  0.2894E+02
     24.153  0.1555E+00  0.2898E+02
     24.418 -0.1991E-01  0.2897E+02
     24.684  0.5892E+00  0.2913E+02
     24.949  0.2399E+00  0.2919E+02
     25.214  0.1072E+01  0.2948E+02
     25.480  0.1416E+01  0.2985E+02
     25.745  0.9331E+00  0.3010E+02
     26.010  0.7086E+00  0.3029E+02
     26.275  0.1598E+01  0.3071E+02
     26.541  0.9001E+00  0.3095E+02
     26.806  0.8208E+00  0.3117E+02
     27.071  0.1215E+01  0.3149E+02
     27.336  0.6304E+00  0.3166E+02
     27.602  0.1396E+01  0.3203E+02
     27.867  0.2768E+00  0.3210E+02
     28.132  0.1313E+01  0.3245E+02
     28.398  0.7282E+00  0.3264E+02
     28.663  0.4752E+00  0.3277E+02
     28.928  0.1298E+01  0.3311E+02
     29.193  0.3515E+00  0.3321E+02
     29.459  0.7268E+00  0.3340E+02
     29.724  0.5727E+00  0.3355E+02
     29.989  0.1848E+00  0.3360E+02
     30.254  0.1882E+00  0.3365E+02
     30.520 -0.3789E-01  0.3364E+02
     30.785  0.3372E+00  0.3373E+02
     31.050  0.9473E+00  0.3398E+02
     31.316  0.1050E+01  0.3426E+02
     31.581  0.1516E+01  0.3466E+02
     31.846  0.2136E+01  0.3523E+02
     32.111  0.8827E+00  0.3546E+02
     32.377  0.4357E+00  0.3558E+02
     32.642  0.1529E+01  0.3598E+02
     32.907  0.1762E+01  0.3645E+02
     33.172  0.3794E+00  0.3655E+02
     33.438  0.6077E+00  0.3671E+02
     33.703  0.1359E+00  0.3675E+02
     33.968  0.4895E+00  0.3688E+02
     34.234  0.1785E+01  0.3735E+02
     34.499  0.1160E+01  0.3766E+02
     34.764  0.8989E+00  0.3790E+02
     35.029  0.6004E+00  0.3806E+02
     35.295 -0.6049E-01  0.3804E+02
     35.560  0.2170E+00  0.3810E+02
     35.825  0.1226E+01  0.3843E+02
     36.090  0.3069E+00  0.3851E+02
     36.356  0.5303E+00  0.3865E+02
     36.621  0.5878E+00  0.3880E+02
     36.886  0.6431E+00  0.3897E+02
     37.152  0.1076E+01  0.3926E+02
     37.417  0.1418E+01  0.3964E+02
     37.682  0.1351E+00  0.3967E+02
     37.947  0.1249E+01  0.4000E+02
     38.213  0.1567E+01  0.4042E+02
     38.478  0.7159E+00  0.4061E+02
     38.743  0.2539E+00  0.4068E+02
     39.008  0.1139E+00  0.4071E+02
     39.274  0.8896E+00  0.4094E+02
     39.539  0.9217E+00  0.4119E+02
     39.804  0.2288E+01  0.4179E+02
     40.069  0.1755E+00  0.4184E+02
     40.335  0.5470E+00  0.4198E+02
     40.600  0.7527E+00  0.4218E+02
     40.865  0.1435E+01  0.4257E+02
     41.131  0.6430E+00  0.4274E+02
     41.396  0.5828E+00  0.4289E+02
     41.661  0.8753E+00  0.4312E+02
     41.926  0.1830E+01  0.4361E+02
     42.192  0.6718E+00  0.4379E+02
     42.457  0.5859E+00  0.4394E+02
     42.722  0.7130E+00  0.4413E+02
     42.987  0.3330E+00  0.4422E+02
     43.253  0.1496E+01  0.4462E+02
     43.518  0.6895E+00  0.4480E+02
     43.783  0.1625E+01  0.4523E+02
     44.049  0.9836E+00  0.4549E+02
     44.314  0.8443E+00  0.4571E+02
     44.579  0.8956E+00  0.4595E+02
     44.844  0.1807E+01  0.4643E+02
     45.110  0.5264E+00  0.4657E+02
     45.375  0.9087E+00  0.4681E+02
     45.640  0.1850E+01  0.4730E+02
     45.905  0.8348E+00  0.4752E+02
     46.171  0.6012E+00  0.4768E+02
     46.436  0.8474E+00  0.4791E+02
     46.701  0.1402E+01  0.4828E+02
     46.967  0.9701E+00  0.4854E+02
     47.232  0.1617E+01  0.4897E+02
     47.497  0.4356E+00  0.4908E+02
     47.762  0.1247E+01  0.4941E+02
     48.028  0.2110E+00  0.4947E+02
     48.293  0.7086E+00  0.4966E+02
     48.558  0.6967E+00  0.4984E+02
     48.823  0.7433E-01  0.4986E+02
     49.089  0.6347E+00  0.5003E+02
     49.354  0.1925E+01  0.5054E+02
     49.619  0.9222E+00  0.5079E+02
     49.885  0.9852E+00  0.5105E+02
     50.150  0.1140E+01  0.5135E+02
     50.415  0.1815E+01  0.5183E+02
     50.680  0.2042E+01  0.5237E+02
     50.946  0.6145E+00  0.5254E+02
     51.211  0.5605E+00  0.5268E+02
     51.476  0.4657E+00  0.5281E+02
     51.741  0.3298E+00  0.5290E+02
     52.007  0.3741E+00  0.5299E+02
     52.272  0.5977E+00  0.5315E+02
     52.537  0.1047E+01  0.5343E+02
     52.803  0.1213E+01  0.5375E+02
     53.068  0.4644E+00  0.5388E+02
     53.333  0.1364E+01  0.5424E+02
     53.598  0.3851E+00  0.5434E+02
     53.864  0.8484E+00  0.5456E+02
     54.129  0.2199E+01  0.5515E+02
     54.394  0.1926E+01  0.5566E+02
     54.659  0.1657E+01  0.5610E+02
     54.925  0.1114E+01  0.5639E+02
     55.190  0.1010E+01  0.5666E+02
     55.455  0.8307E+00  0.5688E+02
     55.721  0.1187E+01  0.5720E+02
     55.986  0.3678E+00  0.5729E+02
     56.251  0.1264E+01  0.5763E+02
     56.516  0.1532E+01  0.5804E+02
     56.782  0.1178E+01  0.5835E+02
     57.047  0.1943E+01  0.5886E+02
     57.312  0.1878E+01  0.5936E+02
     57.577  0.2278E+01  0.5997E+02
     57.843  0.1848E+01  0.6046E+02
     58.108  0.1645E+01  0.6089E+02
     58.373  0.2254E+01  0.6149E+02
     58.639  0.9773E+00  0.6175E+02
     58.904  0.2495E+01  0.6241E+02
     59.169  0.1740E+01  0.6287E+02
     59.434  0.1090E+01  0.6316E+02
     59.700  0.2162E+01  0.6374E+02
     59.965  0.1178E+01  0.6405E+02
     60.230  0.3730E+00  0.6415E+02
     60.495  0.1200E+01  0.6447E+02
     60.761  0.1941E+01  0.6498E+02
     61.026  0.4453E+00  0.6510E+02
     61.291  0.1082E+01  0.6539E+02
     61.557  0.3368E+01  0.6628E+02
     61.822  0.1851E+01  0.6677E+02
     62.087  0.2145E+01  0.6734E+02
     62.352  0.1534E+01  0.6775E+02
     62.618  0.2533E+01  0.6842E+02
     62.883  0.1372E+01  0.6878E+02
     63.148  0.4037E+00  0.6889E+02
     63.413  0.1739E+01  0.6935E+02
     63.679  0.2838E+01  0.7010E+02
     63.944  0.1812E+01  0.7058E+02
     64.209  0.1290E+01  0.7093E+02
     64.474  0.3147E+00  0.7101E+02
     64.740  0.1523E+01  0.7141E+02
     65.005  0.2273E+01  0.7202E+02
     65.270  0.2693E+01  0.7273E+02
     65.536  0.1460E+01  0.7312E+02
     65.801  0.1989E+01  0.7365E+02
     66.066  0.1235E+01  0.7397E+02
     66.331  0.1087E+01  0.7426E+02
     66.597  0.1059E+01  0.7454E+02
     66.862  0.1413E+01  0.7492E+02
     67.127  0.3038E+01  0.7572E+02
     67.392  0.9178E+00  0.7597E+02
     67.658  0.6540E+00  0.7614E+02
     67.923  0.7394E+00  0.7634E+02
     68.188  0.2498E+01  0.7700E+02
     68.454  0.2147E+01  0.7757E+02
     68.719  0.6492E+00  0.7774E+02
     68.984  0.1110E+01  0.7804E+02
     69.249  0.2488E+01  0.7870E+02
     69.515  0.1317E+01  0.7905E+02
     69.780  0.1065E+01  0.7933E+02
     70.045  0.4362E+00  0.7944E+02
     70.310  0.3297E+00  0.7953E+02
     70.576  0.1076E+01  0.7982E+02
     70.841  0.7013E+00  0.8000E+02
     71.106 -0.6893E-02  0.8000E+02
     71.372 -0.3228E-02  0.8000E+02
     71.637 -0.3220E-05  0.8000E+02
     71.902 -0.7445E-10  0.8000E+02
     72.167  0.0000E+00  0.8000E+02
     72.433  0.0000E+00  0.8000E+02
     72.698  0.0000E+00  0.8000E+02
     72.963  0.0000E+00  0.8000E+02
     73.228  0.0000E+00  0.8000E+02
     73.494  0.0000E+00  0.8000E+02
     73.759  0.0000E+00  0.8000E+02
     74.024  0.0000E+00  0.8000E+02
     74.290  0.0000E+00  0.8000E+02
