unknown system                          
   1.00000000000000     
     3.445083    0.000000    0.000000
     0.000000    3.445083    0.000000
     0.000000    0.000000    3.445083
   Fe
     4
Direct
  0.000000  0.000000  0.000000
  0.500000  0.500000  0.000000
  0.500000  0.000000  0.500000
  0.000000  0.500000  0.500000
 
   28   28   28
  342.56      322.57      269.57      200.22      132.07      77.219      40.908      22.371      15.747      12.961    
  11.282      10.286      9.7421      9.5727      9.5655      9.5727      9.7421      10.286      11.282      12.961    
  15.747      22.371      40.908      77.219      132.07      200.22      269.57      322.57      322.57      303.72    
  253.72      188.30      124.09      72.593      38.764      21.721      15.660      12.949      11.307      10.324    
  9.7752      9.5893      9.5727      9.5893      9.7752      10.324      11.307      12.949      15.660      21.721    
  38.764      72.593      124.09      188.30      253.72      303.72      269.57      253.72      211.69      156.74    
  103.05      60.525      33.295      20.130      15.421      12.924      11.419      10.508      9.9806      9.7752    
  9.7421      9.7752      9.9806      10.508      11.419      12.924      15.421      20.130      33.295      60.525    
  103.05      156.74      211.69      253.72      200.22      188.30      156.74      115.65      75.985      45.406    
  26.783      18.388      15.042      12.923      11.679      10.940      10.508      10.324      10.286      10.324    
  10.508      10.940      11.679      12.923      15.042      18.388      26.783      45.406      75.985      115.65    
  156.74      188.30      132.07      124.09      103.05      75.985      50.541      31.898      21.472      17.056    
  14.611      13.019      12.151      11.679      11.419      11.307      11.282      11.307      11.419      11.679    
  12.151      13.019      14.611      17.056      21.472      31.898      50.541      75.985      103.05      124.09    
  77.219      72.593      60.525      45.406      31.898      22.842      18.316      15.994      14.324      13.393    
  13.019      12.923      12.924      12.949      12.961      12.949      12.924      12.923      13.019      13.393    
  14.324      15.994      18.316      22.842      31.898      45.406      60.525      72.593      40.908      38.764    
  33.295      26.783      21.472      18.316      16.527      15.182      14.447      14.324      14.611      15.042    
  15.421      15.660      15.747      15.660      15.421      15.042      14.611      14.324      14.447      15.182    
  16.527      18.316      21.472      26.783      33.295      38.764      22.371      21.721      20.130      18.388    
  17.056      15.994      15.182      14.878      15.182      15.994      17.056      18.388      20.130      21.721    
  22.371      21.721      20.130      18.388      17.056      15.994      15.182      14.878      15.182      15.994    
  17.056      18.388      20.130      21.721      15.747      15.660      15.421      15.042      14.611      14.324    
  14.447      15.182      16.527      18.316      21.472      26.783      33.295      38.764      40.908      38.764    
  33.295      26.783      21.472      18.316      16.527      15.182      14.447      14.324      14.611      15.042    
  15.421      15.660      12.961      12.949      12.924      12.923      13.019      13.393      14.324      15.994    
  18.316      22.842      31.898      45.406      60.525      72.593      77.219      72.593      60.525      45.406    
  31.898      22.842      18.316      15.994      14.324      13.393      13.019      12.923      12.924      12.949    
  11.282      11.307      11.419      11.679      12.151      13.019      14.611      17.056      21.472      31.898    
  50.541      75.985      103.05      124.09      132.07      124.09      103.05      75.985      50.541      31.898    
  21.472      17.056      14.611      13.019      12.151      11.679      11.419      11.307      10.286      10.324    
  10.508      10.940      11.679      12.923      15.042      18.388      26.783      45.406      75.985      115.65    
  156.74      188.30      200.22      188.30      156.74      115.65      75.985      45.406      26.783      18.388    
  15.042      12.923      11.679      10.940      10.508      10.324      9.7421      9.7752      9.9806      10.508    
  11.419      12.924      15.421      20.130      33.295      60.525      103.05      156.74      211.69      253.72    
  269.57      253.72      211.69      156.74      103.05      60.525      33.295      20.130      15.421      12.924    
  11.419      10.508      9.9806      9.7752      9.5727      9.5893      9.7752      10.324      11.307      12.949    
  15.660      21.721      38.764      72.593      124.09      188.30      253.72      303.72      322.57      303.72    
  253.72      188.30      124.09      72.593      38.764      21.721      15.660      12.949      11.307      10.324    
  9.7752      9.5893      9.5655      9.5727      9.7421      10.286      11.282      12.961      15.747      22.371    
  40.908      77.219      132.07      200.22      269.57      322.57      342.56      322.57      269.57      200.22    
  132.07      77.219      40.908      22.371      15.747      12.961      11.282      10.286      9.7421      9.5727    
  9.5727      9.5893      9.7752      10.324      11.307      12.949      15.660      21.721      38.764      72.593    
  124.09      188.30      253.72      303.72      322.57      303.72      253.72      188.30      124.09      72.593    
  38.764      21.721      15.660      12.949      11.307      10.324      9.7752      9.5893      9.7421      9.7752    
  9.9806      10.508      11.419      12.924      15.421      20.130      33.295      60.525      103.05      156.74    
  211.69      253.72      269.57      253.72      211.69      156.74      103.05      60.525      33.295      20.130    
  15.421      12.924      11.419      10.508      9.9806      9.7752      10.286      10.324      10.508      10.940    
  11.679      12.923      15.042      18.388      26.783      45.406      75.985      115.65      156.74      188.30    
  200.22      188.30      156.74      115.65      75.985      45.406      26.783      18.388      15.042      12.923    
  11.679      10.940      10.508      10.324      11.282      11.307      11.419      11.679      12.151      13.019    
  14.611      17.056      21.472      31.898      50.541      75.985      103.05      124.09      132.07      124.09    
  103.05      75.985      50.541      31.898      21.472      17.056      14.611      13.019      12.151      11.679    
  11.419      11.307      12.961      12.949      12.924      12.923      13.019      13.393      14.324      15.994    
  18.316      22.842      31.898      45.406      60.525      72.593      77.219      72.593      60.525      45.406    
  31.898      22.842      18.316      15.994      14.324      13.393      13.019      12.923      12.924      12.949    
  15.747      15.660      15.421      15.042      14.611      14.324      14.447      15.182      16.527      18.316    
  21.472      26.783      33.295      38.764      40.908      38.764      33.295      26.783      21.472      18.316    
  16.527      15.182      14.447      14.324      14.611      15.042      15.421      15.660      22.371      21.721    
  20.130      18.388      17.056      15.994      15.182      14.878      15.182      15.994      17.056      18.388    
  20.130      21.721      22.371      21.721      20.130      18.388      17.056      15.994      15.182      14.878    
  15.182      15.994      17.056      18.388      20.130      21.721      40.908      38.764      33.295      26.783    
  21.472      18.316      16.527      15.182      14.447      14.324      14.611      15.042      15.421      15.660    
  15.747      15.660      15.421      15.042      14.611      14.324      14.447      15.182      16.527      18.316    
  21.472      26.783      33.295      38.764      77.219      72.593      60.525      45.406      31.898      22.842    
  18.316      15.994      14.324      13.393      13.019      12.923      12.924      12.949      12.961      12.949    
  12.924      12.923      13.019      13.393      14.324      15.994      18.316      22.842      31.898      45.406    
  60.525      72.593      132.07      124.09      103.05      75.985      50.541      31.898      21.472      17.056    
  14.611      13.019      12.151      11.679      11.419      11.307      11.282      11.307      11.419      11.679    
  12.151      13.019      14.611      17.056      21.472      31.898      50.541      75.985      103.05      124.09    
  200.22      188.30      156.74      115.65      75.985      45.406      26.783      18.388      15.042      12.923    
  11.679      10.940      10.508      10.324      10.286      10.324      10.508      10.940      11.679      12.923    
  15.042      18.388      26.783      45.406      75.985      115.65      156.74      188.30      269.57      253.72    
  211.69      156.74      103.05      60.525      33.295      20.130      15.421      12.924      11.419      10.508    
  9.9806      9.7752      9.7421      9.7752      9.9806      10.508      11.419      12.924      15.421      20.130    
  33.295      60.525      103.05      156.74      211.69      253.72      322.57      303.72      253.72      188.30    
  124.09      72.593      38.764      21.721      15.660      12.949      11.307      10.324      9.7752      9.5893    
  9.5727      9.5893      9.7752      10.324      11.307      12.949      15.660      21.721      38.764      72.593    
  124.09      188.30      253.72      303.72      322.57      303.72      253.72      188.30      124.09      72.593    
  38.764      21.721      15.660      12.949      11.307      10.324      9.7752      9.5893      9.5727      9.5893    
  9.7752      10.324      11.307      12.949      15.660      21.721      38.764      72.593      124.09      188.30    
  253.72      303.72      303.72      285.93      238.77      177.07      116.59      68.266      36.781      21.132    
  15.578      12.938      11.336      10.367      9.8156      9.6148      9.5893      9.6148      9.8156      10.367    
  11.336      12.938      15.578      21.132      36.781      68.266      116.59      177.07      238.77      285.93    
  253.72      238.77      199.12      147.32      96.808      56.992      31.732      19.694      15.341      12.918    
  11.455      10.561      10.033      9.8156      9.7752      9.8156      10.033      10.561      11.455      12.918    
  15.341      19.694      31.732      56.992      96.808      147.32      199.12      238.77      188.30      177.07    
  147.32      108.65      71.432      42.921      25.753      18.119      14.963      12.918      11.715      10.993    
  10.561      10.367      10.324      10.367      10.561      10.993      11.715      12.918      14.963      18.119    
  25.753      42.921      71.432      108.65      147.32      177.07      124.09      116.59      96.808      71.432    
  47.685      30.434      20.916      16.885      14.533      13.008      12.174      11.715      11.455      11.336    
  11.307      11.336      11.455      11.715      12.174      13.008      14.533      16.885      20.916      30.434    
  47.685      71.432      96.808      116.59      72.593      68.266      56.992      42.921      30.434      22.154    
  18.050      15.841      14.245      13.361      13.008      12.918      12.918      12.938      12.949      12.938    
  12.918      12.918      13.008      13.361      14.245      15.841      18.050      22.154      30.434      42.921    
  56.992      68.266      38.764      36.781      31.732      25.753      20.916      18.050      16.342      15.047    
  14.350      14.245      14.533      14.963      15.341      15.578      15.660      15.578      15.341      14.963    
  14.533      14.245      14.350      15.047      16.342      18.050      20.916      25.753      31.732      36.781    
  21.721      21.132      19.694      18.119      16.885      15.841      15.047      14.750      15.047      15.841    
  16.885      18.119      19.694      21.132      21.721      21.132      19.694      18.119      16.885      15.841    
  15.047      14.750      15.047      15.841      16.885      18.119      19.694      21.132      15.660      15.578    
  15.341      14.963      14.533      14.245      14.350      15.047      16.342      18.050      20.916      25.753    
  31.732      36.781      38.764      36.781      31.732      25.753      20.916      18.050      16.342      15.047    
  14.350      14.245      14.533      14.963      15.341      15.578      12.949      12.938      12.918      12.918    
  13.008      13.361      14.245      15.841      18.050      22.154      30.434      42.921      56.992      68.266    
  72.593      68.266      56.992      42.921      30.434      22.154      18.050      15.841      14.245      13.361    
  13.008      12.918      12.918      12.938      11.307      11.336      11.455      11.715      12.174      13.008    
  14.533      16.885      20.916      30.434      47.685      71.432      96.808      116.59      124.09      116.59    
  96.808      71.432      47.685      30.434      20.916      16.885      14.533      13.008      12.174      11.715    
  11.455      11.336      10.324      10.367      10.561      10.993      11.715      12.918      14.963      18.119    
  25.753      42.921      71.432      108.65      147.32      177.07      188.30      177.07      147.32      108.65    
  71.432      42.921      25.753      18.119      14.963      12.918      11.715      10.993      10.561      10.367    
  9.7752      9.8156      10.033      10.561      11.455      12.918      15.341      19.694      31.732      56.992    
  96.808      147.32      199.12      238.77      253.72      238.77      199.12      147.32      96.808      56.992    
  31.732      19.694      15.341      12.918      11.455      10.561      10.033      9.8156      9.5893      9.6148    
  9.8156      10.367      11.336      12.938      15.578      21.132      36.781      68.266      116.59      177.07    
  238.77      285.93      303.72      285.93      238.77      177.07      116.59      68.266      36.781      21.132    
  15.578      12.938      11.336      10.367      9.8156      9.6148      9.5727      9.5893      9.7752      10.324    
  11.307      12.949      15.660      21.721      38.764      72.593      124.09      188.30      253.72      303.72    
  322.57      303.72      253.72      188.30      124.09      72.593      38.764      21.721      15.660      12.949    
  11.307      10.324      9.7752      9.5893      9.5893      9.6148      9.8156      10.367      11.336      12.938    
  15.578      21.132      36.781      68.266      116.59      177.07      238.77      285.93      303.72      285.93    
  238.77      177.07      116.59      68.266      36.781      21.132      15.578      12.938      11.336      10.367    
  9.8156      9.6148      9.7752      9.8156      10.033      10.561      11.455      12.918      15.341      19.694    
  31.732      56.992      96.808      147.32      199.12      238.77      253.72      238.77      199.12      147.32    
  96.808      56.992      31.732      19.694      15.341      12.918      11.455      10.561      10.033      9.8156    
  10.324      10.367      10.561      10.993      11.715      12.918      14.963      18.119      25.753      42.921    
  71.432      108.65      147.32      177.07      188.30      177.07      147.32      108.65      71.432      42.921    
  25.753      18.119      14.963      12.918      11.715      10.993      10.561      10.367      11.307      11.336    
  11.455      11.715      12.174      13.008      14.533      16.885      20.916      30.434      47.685      71.432    
  96.808      116.59      124.09      116.59      96.808      71.432      47.685      30.434      20.916      16.885    
  14.533      13.008      12.174      11.715      11.455      11.336      12.949      12.938      12.918      12.918    
  13.008      13.361      14.245      15.841      18.050      22.154      30.434      42.921      56.992      68.266    
  72.593      68.266      56.992      42.921      30.434      22.154      18.050      15.841      14.245      13.361    
  13.008      12.918      12.918      12.938      15.660      15.578      15.341      14.963      14.533      14.245    
  14.350      15.047      16.342      18.050      20.916      25.753      31.732      36.781      38.764      36.781    
  31.732      25.753      20.916      18.050      16.342      15.047      14.350      14.245      14.533      14.963    
  15.341      15.578      21.721      21.132      19.694      18.119      16.885      15.841      15.047      14.750    
  15.047      15.841      16.885      18.119      19.694      21.132      21.721      21.132      19.694      18.119    
  16.885      15.841      15.047      14.750      15.047      15.841      16.885      18.119      19.694      21.132    
  38.764      36.781      31.732      25.753      20.916      18.050      16.342      15.047      14.350      14.245    
  14.533      14.963      15.341      15.578      15.660      15.578      15.341      14.963      14.533      14.245    
  14.350      15.047      16.342      18.050      20.916      25.753      31.732      36.781      72.593      68.266    
  56.992      42.921      30.434      22.154      18.050      15.841      14.245      13.361      13.008      12.918    
  12.918      12.938      12.949      12.938      12.918      12.918      13.008      13.361      14.245      15.841    
  18.050      22.154      30.434      42.921      56.992      68.266      124.09      116.59      96.808      71.432    
  47.685      30.434      20.916      16.885      14.533      13.008      12.174      11.715      11.455      11.336    
  11.307      11.336      11.455      11.715      12.174      13.008      14.533      16.885      20.916      30.434    
  47.685      71.432      96.808      116.59      188.30      177.07      147.32      108.65      71.432      42.921    
  25.753      18.119      14.963      12.918      11.715      10.993      10.561      10.367      10.324      10.367    
  10.561      10.993      11.715      12.918      14.963      18.119      25.753      42.921      71.432      108.65    
  147.32      177.07      253.72      238.77      199.12      147.32      96.808      56.992      31.732      19.694    
  15.341      12.918      11.455      10.561      10.033      9.8156      9.7752      9.8156      10.033      10.561    
  11.455      12.918      15.341      19.694      31.732      56.992      96.808      147.32      199.12      238.77    
  303.72      285.93      238.77      177.07      116.59      68.266      36.781      21.132      15.578      12.938    
  11.336      10.367      9.8156      9.6148      9.5893      9.6148      9.8156      10.367      11.336      12.938    
  15.578      21.132      36.781      68.266      116.59      177.07      238.77      285.93      269.57      253.72    
  211.69      156.74      103.05      60.525      33.295      20.130      15.421      12.924      11.419      10.508    
  9.9806      9.7752      9.7421      9.7752      9.9806      10.508      11.419      12.924      15.421      20.130    
  33.295      60.525      103.05      156.74      211.69      253.72      253.72      238.77      199.12      147.32    
  96.808      56.992      31.732      19.694      15.341      12.918      11.455      10.561      10.033      9.8156    
  9.7752      9.8156      10.033      10.561      11.455      12.918      15.341      19.694      31.732      56.992    
  96.808      147.32      199.12      238.77      211.69      199.12      165.82      122.43      80.419      47.837    
  27.785      18.632      15.104      12.906      11.582      10.763      10.261      10.033      9.9806      10.033    
  10.261      10.763      11.582      12.906      15.104      18.632      27.785      47.837      80.419      122.43    
  165.82      199.12      156.74      147.32      122.43      90.220      59.554      36.547      23.187      17.454    
  14.733      12.906      11.831      11.173      10.763      10.561      10.508      10.561      10.763      11.173    
  11.831      12.906      14.733      17.454      23.187      36.547      59.554      90.220      122.43      147.32    
  103.05      96.808      80.419      59.554      40.328      26.746      19.554      16.415      14.317      12.978    
  12.245      11.831      11.582      11.455      11.419      11.455      11.582      11.831      12.245      12.978    
  14.317      16.415      19.554      26.746      40.328      59.554      80.419      96.808      60.525      56.992    
  47.837      36.547      26.746      20.466      17.374      15.427      14.030      13.274      12.978      12.906    
  12.906      12.918      12.924      12.918      12.906      12.906      12.978      13.274      14.030      15.427    
  17.374      20.466      26.746      36.547      47.837      56.992      33.295      31.732      27.785      23.187    
  19.554      17.374      15.844      14.692      14.096      14.030      14.317      14.733      15.104      15.341    
  15.421      15.341      15.104      14.733      14.317      14.030      14.096      14.692      15.844      17.374    
  19.554      23.187      27.785      31.732      20.130      19.694      18.632      17.454      16.415      15.427    
  14.692      14.421      14.692      15.427      16.415      17.454      18.632      19.694      20.130      19.694    
  18.632      17.454      16.415      15.427      14.692      14.421      14.692      15.427      16.415      17.454    
  18.632      19.694      15.421      15.341      15.104      14.733      14.317      14.030      14.096      14.692    
  15.844      17.374      19.554      23.187      27.785      31.732      33.295      31.732      27.785      23.187    
  19.554      17.374      15.844      14.692      14.096      14.030      14.317      14.733      15.104      15.341    
  12.924      12.918      12.906      12.906      12.978      13.274      14.030      15.427      17.374      20.466    
  26.746      36.547      47.837      56.992      60.525      56.992      47.837      36.547      26.746      20.466    
  17.374      15.427      14.030      13.274      12.978      12.906      12.906      12.918      11.419      11.455    
  11.582      11.831      12.245      12.978      14.317      16.415      19.554      26.746      40.328      59.554    
  80.419      96.808      103.05      96.808      80.419      59.554      40.328      26.746      19.554      16.415    
  14.317      12.978      12.245      11.831      11.582      11.455      10.508      10.561      10.763      11.173    
  11.831      12.906      14.733      17.454      23.187      36.547      59.554      90.220      122.43      147.32    
  156.74      147.32      122.43      90.220      59.554      36.547      23.187      17.454      14.733      12.906    
  11.831      11.173      10.763      10.561      9.9806      10.033      10.261      10.763      11.582      12.906    
  15.104      18.632      27.785      47.837      80.419      122.43      165.82      199.12      211.69      199.12    
  165.82      122.43      80.419      47.837      27.785      18.632      15.104      12.906      11.582      10.763    
  10.261      10.033      9.7752      9.8156      10.033      10.561      11.455      12.918      15.341      19.694    
  31.732      56.992      96.808      147.32      199.12      238.77      253.72      238.77      199.12      147.32    
  96.808      56.992      31.732      19.694      15.341      12.918      11.455      10.561      10.033      9.8156    
  9.7421      9.7752      9.9806      10.508      11.419      12.924      15.421      20.130      33.295      60.525    
  103.05      156.74      211.69      253.72      269.57      253.72      211.69      156.74      103.05      60.525    
  33.295      20.130      15.421      12.924      11.419      10.508      9.9806      9.7752      9.7752      9.8156    
  10.033      10.561      11.455      12.918      15.341      19.694      31.732      56.992      96.808      147.32    
  199.12      238.77      253.72      238.77      199.12      147.32      96.808      56.992      31.732      19.694    
  15.341      12.918      11.455      10.561      10.033      9.8156      9.9806      10.033      10.261      10.763    
  11.582      12.906      15.104      18.632      27.785      47.837      80.419      122.43      165.82      199.12    
  211.69      199.12      165.82      122.43      80.419      47.837      27.785      18.632      15.104      12.906    
  11.582      10.763      10.261      10.033      10.508      10.561      10.763      11.173      11.831      12.906    
  14.733      17.454      23.187      36.547      59.554      90.220      122.43      147.32      156.74      147.32    
  122.43      90.220      59.554      36.547      23.187      17.454      14.733      12.906      11.831      11.173    
  10.763      10.561      11.419      11.455      11.582      11.831      12.245      12.978      14.317      16.415    
  19.554      26.746      40.328      59.554      80.419      96.808      103.05      96.808      80.419      59.554    
  40.328      26.746      19.554      16.415      14.317      12.978      12.245      11.831      11.582      11.455    
  12.924      12.918      12.906      12.906      12.978      13.274      14.030      15.427      17.374      20.466    
  26.746      36.547      47.837      56.992      60.525      56.992      47.837      36.547      26.746      20.466    
  17.374      15.427      14.030      13.274      12.978      12.906      12.906      12.918      15.421      15.341    
  15.104      14.733      14.317      14.030      14.096      14.692      15.844      17.374      19.554      23.187    
  27.785      31.732      33.295      31.732      27.785      23.187      19.554      17.374      15.844      14.692    
  14.096      14.030      14.317      14.733      15.104      15.341      20.130      19.694      18.632      17.454    
  16.415      15.427      14.692      14.421      14.692      15.427      16.415      17.454      18.632      19.694    
  20.130      19.694      18.632      17.454      16.415      15.427      14.692      14.421      14.692      15.427    
  16.415      17.454      18.632      19.694      33.295      31.732      27.785      23.187      19.554      17.374    
  15.844      14.692      14.096      14.030      14.317      14.733      15.104      15.341      15.421      15.341    
  15.104      14.733      14.317      14.030      14.096      14.692      15.844      17.374      19.554      23.187    
  27.785      31.732      60.525      56.992      47.837      36.547      26.746      20.466      17.374      15.427    
  14.030      13.274      12.978      12.906      12.906      12.918      12.924      12.918      12.906      12.906    
  12.978      13.274      14.030      15.427      17.374      20.466      26.746      36.547      47.837      56.992    
  103.05      96.808      80.419      59.554      40.328      26.746      19.554      16.415      14.317      12.978    
  12.245      11.831      11.582      11.455      11.419      11.455      11.582      11.831      12.245      12.978    
  14.317      16.415      19.554      26.746      40.328      59.554      80.419      96.808      156.74      147.32    
  122.43      90.220      59.554      36.547      23.187      17.454      14.733      12.906      11.831      11.173    
  10.763      10.561      10.508      10.561      10.763      11.173      11.831      12.906      14.733      17.454    
  23.187      36.547      59.554      90.220      122.43      147.32      211.69      199.12      165.82      122.43    
  80.419      47.837      27.785      18.632      15.104      12.906      11.582      10.763      10.261      10.033    
  9.9806      10.033      10.261      10.763      11.582      12.906      15.104      18.632      27.785      47.837    
  80.419      122.43      165.82      199.12      253.72      238.77      199.12      147.32      96.808      56.992    
  31.732      19.694      15.341      12.918      11.455      10.561      10.033      9.8156      9.7752      9.8156    
  10.033      10.561      11.455      12.918      15.341      19.694      31.732      56.992      96.808      147.32    
  199.12      238.77      200.22      188.30      156.74      115.65      75.985      45.406      26.783      18.388    
  15.042      12.923      11.679      10.940      10.508      10.324      10.286      10.324      10.508      10.940    
  11.679      12.923      15.042      18.388      26.783      45.406      75.985      115.65      156.74      188.30    
  188.30      177.07      147.32      108.65      71.432      42.921      25.753      18.119      14.963      12.918    
  11.715      10.993      10.561      10.367      10.324      10.367      10.561      10.993      11.715      12.918    
  14.963      18.119      25.753      42.921      71.432      108.65      147.32      177.07      156.74      147.32    
  122.43      90.220      59.554      36.547      23.187      17.454      14.733      12.906      11.831      11.173    
  10.763      10.561      10.508      10.561      10.763      11.173      11.831      12.906      14.733      17.454    
  23.187      36.547      59.554      90.220      122.43      147.32      115.65      108.65      90.220      66.636    
  44.675      28.869      20.281      16.638      14.386      12.898      12.036      11.511      11.173      10.993    