unknown system                          
   1.00000000000000     
     3.445083    0.000000    0.000000
     0.000000    3.445083    0.000000
     0.000000    0.000000    3.445083
   Fe
     4
Direct
  0.000000  0.000000  0.000000
  0.500000  0.500000  0.000000
  0.500000  0.000000  0.500000
  0.000000  0.500000  0.500000
 
   28   28   28
 0.34255913149E+03 0.32257024841E+03 0.26957014135E+03 0.20021986668E+03 0.13207043461E+03
 0.77218661139E+02 0.40907856547E+02 0.22371468876E+02 0.15747097959E+02 0.12961411509E+02
 0.11282202318E+02 0.10285675973E+02 0.97420890180E+01 0.95726883124E+01 0.95655305212E+01
 0.95726883124E+01 0.97420890180E+01 0.10285675973E+02 0.11282202318E+02 0.12961411509E+02
 0.15747097959E+02 0.22371468876E+02 0.40907856547E+02 0.77218661139E+02 0.13207043461E+03
 0.20021986668E+03 0.26957014135E+03 0.32257024841E+03 0.32257024841E+03 0.30371757238E+03
 0.25372146954E+03 0.18830443232E+03 0.12409192989E+03 0.72593268103E+02 0.38764405931E+02
 0.21720866139E+02 0.15660442662E+02 0.12948715026E+02 0.11307069126E+02 0.10323734397E+02
 0.97752110374E+01 0.95893409204E+01 0.95726883124E+01 0.95893409204E+01 0.97752110374E+01
 0.10323734397E+02 0.11307069126E+02 0.12948715026E+02 0.15660442662E+02 0.21720866139E+02
 0.38764405931E+02 0.72593268103E+02 0.12409192989E+03 0.18830443232E+03 0.25372146954E+03
 0.30371757238E+03 0.26957014135E+03 0.25372146954E+03 0.21168595575E+03 0.15673576594E+03
 0.10304749115E+03 0.60524951643E+02 0.33295000233E+02 0.20129884051E+02 0.15420744296E+02
 0.12924308432E+02 0.11419071626E+02 0.10507993389E+02 0.99805720662E+01 0.97752110374E+01
 0.97420890180E+01 0.97752110374E+01 0.99805720662E+01 0.10507993389E+02 0.11419071626E+02
 0.12924308432E+02 0.15420744296E+02 0.20129884051E+02 0.33295000233E+02 0.60524951643E+02
 0.10304749115E+03 0.15673576594E+03 0.21168595575E+03 0.25372146954E+03 0.20021986668E+03
 0.18830443232E+03 0.15673576594E+03 0.11564645868E+03 0.75984625502E+02 0.45406328228E+02
 0.26783360951E+02 0.18388039449E+02 0.15042468902E+02 0.12922603501E+02 0.11679167076E+02
 0.10940175034E+02 0.10507993389E+02 0.10323734397E+02 0.10285675973E+02 0.10323734397E+02
 0.10507993389E+02 0.10940175034E+02 0.11679167076E+02 0.12922603501E+02 0.15042468902E+02
 0.18388039449E+02 0.26783360951E+02 0.45406328228E+02 0.75984625502E+02 0.11564645868E+03
 0.15673576594E+03 0.18830443232E+03 0.13207043461E+03 0.12409192989E+03 0.10304749115E+03
 0.75984625502E+02 0.50541191942E+02 0.31898119333E+02 0.21471594308E+02 0.17055551719E+02
 0.14610631464E+02 0.13018738162E+02 0.12150718250E+02 0.11679167076E+02 0.11419071626E+02
 0.11307069126E+02 0.11282202318E+02 0.11307069126E+02 0.11419071626E+02 0.11679167076E+02
 0.12150718250E+02 0.13018738162E+02 0.14610631464E+02 0.17055551719E+02 0.21471594308E+02
 0.31898119333E+02 0.50541191942E+02 0.75984625502E+02 0.10304749115E+03 0.12409192989E+03
 0.77218661139E+02 0.72593268103E+02 0.60524951643E+02 0.45406328228E+02 0.31898119333E+02
 0.22841619433E+02 0.18315749379E+02 0.15994251774E+02 0.14324403618E+02 0.13393076033E+02
 0.13018738162E+02 0.12922603501E+02 0.12924308432E+02 0.12948715026E+02 0.12961411509E+02
 0.12948715026E+02 0.12924308432E+02 0.12922603501E+02 0.13018738162E+02 0.13393076033E+02
 0.14324403618E+02 0.15994251774E+02 0.18315749379E+02 0.22841619433E+02 0.31898119333E+02
 0.45406328228E+02 0.60524951643E+02 0.72593268103E+02 0.40907856547E+02 0.38764405931E+02
 0.33295000233E+02 0.26783360951E+02 0.21471594308E+02 0.18315749379E+02 0.16526936040E+02
 0.15182131155E+02 0.14447294055E+02 0.14324403618E+02 0.14610631464E+02 0.15042468902E+02
 0.15420744296E+02 0.15660442662E+02 0.15747097959E+02 0.15660442662E+02 0.15420744296E+02
 0.15042468902E+02 0.14610631464E+02 0.14324403618E+02 0.14447294055E+02 0.15182131155E+02
 0.16526936040E+02 0.18315749379E+02 0.21471594308E+02 0.26783360951E+02 0.33295000233E+02
 0.38764405931E+02 0.22371468876E+02 0.21720866139E+02 0.20129884051E+02 0.18388039449E+02
 0.17055551719E+02 0.15994251774E+02 0.15182131155E+02 0.14877515298E+02 0.15182131155E+02
 0.15994251774E+02 0.17055551719E+02 0.18388039449E+02 0.20129884051E+02 0.21720866139E+02
 0.22371468876E+02 0.21720866139E+02 0.20129884051E+02 0.18388039449E+02 0.17055551719E+02
 0.15994251774E+02 0.15182131155E+02 0.14877515298E+02 0.15182131155E+02 0.15994251774E+02
 0.17055551719E+02 0.18388039449E+02 0.20129884051E+02 0.21720866139E+02 0.15747097959E+02
 0.15660442662E+02 0.15420744296E+02 0.15042468902E+02 0.14610631464E+02 0.14324403618E+02
 0.14447294055E+02 0.15182131155E+02 0.16526936040E+02 0.18315749379E+02 0.21471594308E+02
 0.26783360951E+02 0.33295000233E+02 0.38764405931E+02 0.40907856547E+02 0.38764405931E+02
 0.33295000233E+02 0.26783360951E+02 0.21471594308E+02 0.18315749379E+02 0.16526936040E+02
 0.15182131155E+02 0.14447294055E+02 0.14324403618E+02 0.14610631464E+02 0.15042468902E+02
 0.15420744296E+02 0.15660442662E+02 0.12961411509E+02 0.12948715026E+02 0.12924308432E+02
 0.12922603501E+02 0.13018738162E+02 0.13393076033E+02 0.14324403618E+02 0.15994251774E+02
 0.18315749379E+02 0.22841619433E+02 0.31898119333E+02 0.45406328228E+02 0.60524951643E+02
 0.72593268103E+02 0.77218661139E+02 0.72593268103E+02 0.60524951643E+02 0.45406328228E+02
 0.31898119333E+02 0.22841619433E+02 0.18315749379E+02 0.15994251774E+02 0.14324403618E+02
 0.13393076033E+02 0.13018738162E+02 0.12922603501E+02 0.12924308432E+02 0.12948715026E+02
 0.11282202318E+02 0.11307069126E+02 0.11419071626E+02 0.11679167076E+02 0.12150718250E+02
 0.13018738162E+02 0.14610631464E+02 0.17055551719E+02 0.21471594308E+02 0.31898119333E+02
 0.50541191942E+02 0.75984625502E+02 0.10304749115E+03 0.12409192989E+03 0.13207043461E+03
 0.12409192989E+03 0.10304749115E+03 0.75984625502E+02 0.50541191942E+02 0.31898119333E+02
 0.21471594308E+02 0.17055551719E+02 0.14610631464E+02 0.13018738162E+02 0.12150718250E+02
 0.11679167076E+02 0.11419071626E+02 0.11307069126E+02 0.10285675973E+02 0.10323734397E+02
 0.10507993389E+02 0.10940175034E+02 0.11679167076E+02 0.12922603501E+02 0.15042468902E+02
 0.18388039449E+02 0.26783360951E+02 0.45406328228E+02 0.75984625502E+02 0.11564645868E+03
 0.15673576594E+03 0.18830443232E+03 0.20021986668E+03 0.18830443232E+03 0.15673576594E+03
 0.11564645868E+03 0.75984625502E+02 0.45406328228E+02 0.26783360951E+02 0.18388039449E+02
 0.15042468902E+02 0.12922603501E+02 0.11679167076E+02 0.10940175034E+02 0.10507993389E+02
 0.10323734397E+02 0.97420890180E+01 0.97752110374E+01 0.99805720662E+01 0.10507993389E+02
 0.11419071626E+02 0.12924308432E+02 0.15420744296E+02 0.20129884051E+02 0.33295000233E+02
 0.60524951643E+02 0.10304749115E+03 0.15673576594E+03 0.21168595575E+03 0.25372146954E+03
 0.26957014135E+03 0.25372146954E+03 0.21168595575E+03 0.15673576594E+03 0.10304749115E+03
 0.60524951643E+02 0.33295000233E+02 0.20129884051E+02 0.15420744296E+02 0.12924308432E+02
 0.11419071626E+02 0.10507993389E+02 0.99805720662E+01 0.97752110374E+01 0.95726883124E+01
 0.95893409204E+01 0.97752110374E+01 0.10323734397E+02 0.11307069126E+02 0.12948715026E+02
 0.15660442662E+02 0.21720866139E+02 0.38764405931E+02 0.72593268103E+02 0.12409192989E+03
 0.18830443232E+03 0.25372146954E+03 0.30371757238E+03 0.32257024841E+03 0.30371757238E+03
 0.25372146954E+03 0.18830443232E+03 0.12409192989E+03 0.72593268103E+02 0.38764405931E+02
 0.21720866139E+02 0.15660442662E+02 0.12948715026E+02 0.11307069126E+02 0.10323734397E+02
 0.97752110374E+01 0.95893409204E+01 0.95655305212E+01 0.95726883124E+01 0.97420890180E+01
 0.10285675973E+02 0.11282202318E+02 0.12961411509E+02 0.15747097959E+02 0.22371468876E+02
 0.40907856547E+02 0.77218661139E+02 0.13207043461E+03 0.20021986668E+03 0.26957014135E+03
 0.32257024841E+03 0.34255913149E+03 0.32257024841E+03 0.26957014135E+03 0.20021986668E+03
 0.13207043461E+03 0.77218661139E+02 0.40907856547E+02 0.22371468876E+02 0.15747097959E+02
 0.12961411509E+02 0.11282202318E+02 0.10285675973E+02 0.97420890180E+01 0.95726883124E+01
 0.95726883124E+01 0.95893409204E+01 0.97752110374E+01 0.10323734397E+02 0.11307069126E+02
 0.12948715026E+02 0.15660442662E+02 0.21720866139E+02 0.38764405931E+02 0.72593268103E+02
 0.12409192989E+03 0.18830443232E+03 0.25372146954E+03 0.30371757238E+03 0.32257024841E+03
 0.30371757238E+03 0.25372146954E+03 0.18830443232E+03 0.12409192989E+03 0.72593268103E+02
 0.38764405931E+02 0.21720866139E+02 0.15660442662E+02 0.12948715026E+02 0.11307069126E+02
 0.10323734397E+02 0.97752110374E+01 0.95893409204E+01 0.97420890180E+01 0.97752110374E+01
 0.99805720662E+01 0.10507993389E+02 0.11419071626E+02 0.12924308432E+02 0.15420744296E+02
 0.20129884051E+02 0.33295000233E+02 0.60524951643E+02 0.10304749115E+03 0.15673576594E+03
 0.21168595575E+03 0.25372146954E+03 0.26957014135E+03 0.25372146954E+03 0.21168595575E+03
 0.15673576594E+03 0.10304749115E+03 0.60524951643E+02 0.33295000233E+02 0.20129884051E+02
 0.15420744296E+02 0.12924308432E+02 0.11419071626E+02 0.10507993389E+02 0.99805720662E+01
 0.97752110374E+01 0.10285675973E+02 0.10323734397E+02 0.10507993389E+02 0.10940175034E+02
 0.11679167076E+02 0.12922603501E+02 0.15042468902E+02 0.18388039449E+02 0.26783360951E+02
 0.45406328228E+02 0.75984625502E+02 0.11564645868E+03 0.15673576594E+03 0.18830443232E+03
 0.20021986668E+03 0.18830443232E+03 0.15673576594E+03 0.11564645868E+03 0.75984625502E+02
 0.45406328228E+02 0.26783360951E+02 0.18388039449E+02 0.15042468902E+02 0.12922603501E+02
 0.11679167076E+02 0.10940175034E+02 0.10507993389E+02 0.10323734397E+02 0.11282202318E+02
 0.11307069126E+02 0.11419071626E+02 0.11679167076E+02 0.12150718250E+02 0.13018738162E+02
 0.14610631464E+02 0.17055551719E+02 0.21471594308E+02 0.31898119333E+02 0.50541191942E+02
 0.75984625502E+02 0.10304749115E+03 0.12409192989E+03 0.13207043461E+03 0.12409192989E+03
 0.10304749115E+03 0.75984625502E+02 0.50541191942E+02 0.31898119333E+02 0.21471594308E+02
 0.17055551719E+02 0.14610631464E+02 0.13018738162E+02 0.12150718250E+02 0.11679167076E+02
 0.11419071626E+02 0.11307069126E+02 0.12961411509E+02 0.12948715026E+02 0.12924308432E+02
 0.12922603501E+02 0.13018738162E+02 0.13393076033E+02 0.14324403618E+02 0.15994251774E+02
 0.18315749379E+02 0.22841619433E+02 0.31898119333E+02 0.45406328228E+02 0.60524951643E+02
 0.72593268103E+02 0.77218661139E+02 0.72593268103E+02 0.60524951643E+02 0.45406328228E+02
 0.31898119333E+02 0.22841619433E+02 0.18315749379E+02 0.15994251774E+02 0.14324403618E+02
 0.13393076033E+02 0.13018738162E+02 0.12922603501E+02 0.12924308432E+02 0.12948715026E+02
 0.15747097959E+02 0.15660442662E+02 0.15420744296E+02 0.15042468902E+02 0.14610631464E+02
 0.14324403618E+02 0.14447294055E+02 0.15182131155E+02 0.16526936040E+02 0.18315749379E+02
 0.21471594308E+02 0.26783360951E+02 0.33295000233E+02 0.38764405931E+02 0.40907856547E+02
 0.38764405931E+02 0.33295000233E+02 0.26783360951E+02 0.21471594308E+02 0.18315749379E+02
 0.16526936040E+02 0.15182131155E+02 0.14447294055E+02 0.14324403618E+02 0.14610631464E+02
 0.15042468902E+02 0.15420744296E+02 0.15660442662E+02 0.22371468876E+02 0.21720866139E+02
 0.20129884051E+02 0.18388039449E+02 0.17055551719E+02 0.15994251774E+02 0.15182131155E+02
 0.14877515298E+02 0.15182131155E+02 0.15994251774E+02 0.17055551719E+02 0.18388039449E+02
 0.20129884051E+02 0.21720866139E+02 0.22371468876E+02 0.21720866139E+02 0.20129884051E+02
 0.18388039449E+02 0.17055551719E+02 0.15994251774E+02 0.15182131155E+02 0.14877515298E+02
 0.15182131155E+02 0.15994251774E+02 0.17055551719E+02 0.18388039449E+02 0.20129884051E+02
 0.21720866139E+02 0.40907856547E+02 0.38764405931E+02 0.33295000233E+02 0.26783360951E+02
 0.21471594308E+02 0.18315749379E+02 0.16526936040E+02 0.15182131155E+02 0.14447294055E+02
 0.14324403618E+02 0.14610631464E+02 0.15042468902E+02 0.15420744296E+02 0.15660442662E+02
 0.15747097959E+02 0.15660442662E+02 0.15420744296E+02 0.15042468902E+02 0.14610631464E+02
 0.14324403618E+02 0.14447294055E+02 0.15182131155E+02 0.16526936040E+02 0.18315749379E+02
 0.21471594308E+02 0.26783360951E+02 0.33295000233E+02 0.38764405931E+02 0.77218661139E+02
 0.72593268103E+02 0.60524951643E+02 0.45406328228E+02 0.31898119333E+02 0.22841619433E+02
 0.18315749379E+02 0.15994251774E+02 0.14324403618E+02 0.13393076033E+02 0.13018738162E+02
 0.12922603501E+02 0.12924308432E+02 0.12948715026E+02 0.12961411509E+02 0.12948715026E+02
 0.12924308432E+02 0.12922603501E+02 0.13018738162E+02 0.13393076033E+02 0.14324403618E+02
 0.15994251774E+02 0.18315749379E+02 0.22841619433E+02 0.31898119333E+02 0.45406328228E+02
 0.60524951643E+02 0.72593268103E+02 0.13207043461E+03 0.12409192989E+03 0.10304749115E+03
 0.75984625502E+02 0.50541191942E+02 0.31898119333E+02 0.21471594308E+02 0.17055551719E+02
 0.14610631464E+02 0.13018738162E+02 0.12150718250E+02 0.11679167076E+02 0.11419071626E+02
 0.11307069126E+02 0.11282202318E+02 0.11307069126E+02 0.11419071626E+02 0.11679167076E+02
 0.12150718250E+02 0.13018738162E+02 0.14610631464E+02 0.17055551719E+02 0.21471594308E+02
 0.31898119333E+02 0.50541191942E+02 0.75984625502E+02 0.10304749115E+03 0.12409192989E+03
 0.20021986668E+03 0.18830443232E+03 0.15673576594E+03 0.11564645868E+03 0.75984625502E+02
 0.45406328228E+02 0.26783360951E+02 0.18388039449E+02 0.15042468902E+02 0.12922603501E+02
 0.11679167076E+02 0.10940175034E+02 0.10507993389E+02 0.10323734397E+02 0.10285675973E+02
 0.10323734397E+02 0.10507993389E+02 0.10940175034E+02 0.11679167076E+02 0.12922603501E+02
 0.15042468902E+02 0.18388039449E+02 0.26783360951E+02 0.45406328228E+02 0.75984625502E+02
 0.11564645868E+03 0.15673576594E+03 0.18830443232E+03 0.26957014135E+03 0.25372146954E+03
 0.21168595575E+03 0.15673576594E+03 0.10304749115E+03 0.60524951643E+02 0.33295000233E+02
 0.20129884051E+02 0.15420744296E+02 0.12924308432E+02 0.11419071626E+02 0.10507993389E+02
 0.99805720662E+01 0.97752110374E+01 0.97420890180E+01 0.97752110374E+01 0.99805720662E+01
 0.10507993389E+02 0.11419071626E+02 0.12924308432E+02 0.15420744296E+02 0.20129884051E+02
 0.33295000233E+02 0.60524951643E+02 0.10304749115E+03 0.15673576594E+03 0.21168595575E+03
 0.25372146954E+03 0.32257024841E+03 0.30371757238E+03 0.25372146954E+03 0.18830443232E+03
 0.12409192989E+03 0.72593268103E+02 0.38764405931E+02 0.21720866139E+02 0.15660442662E+02
 0.12948715026E+02 0.11307069126E+02 0.10323734397E+02 0.97752110374E+01 0.95893409204E+01
 0.95726883124E+01 0.95893409204E+01 0.97752110374E+01 0.10323734397E+02 0.11307069126E+02
 0.12948715026E+02 0.15660442662E+02 0.21720866139E+02 0.38764405931E+02 0.72593268103E+02
 0.12409192989E+03 0.18830443232E+03 0.25372146954E+03 0.30371757238E+03 0.32257024841E+03
 0.30371757238E+03 0.25372146954E+03 0.18830443232E+03 0.12409192989E+03 0.72593268103E+02
 0.38764405931E+02 0.21720866139E+02 0.15660442662E+02 0.12948715026E+02 0.11307069126E+02
 0.10323734397E+02 0.97752110374E+01 0.95893409204E+01 0.95726883124E+01 0.95893409204E+01
 0.97752110374E+01 0.10323734397E+02 0.11307069126E+02 0.12948715026E+02 0.15660442662E+02
 0.21720866139E+02 0.38764405931E+02 0.72593268103E+02 0.12409192989E+03 0.18830443232E+03
 0.25372146954E+03 0.30371757238E+03 0.30371757238E+03 0.28593484602E+03 0.23877102720E+03
 0.17707052607E+03 0.11658666158E+03 0.68265771547E+02 0.36780955047E+02 0.21131647098E+02
 0.15578488806E+02 0.12938307320E+02 0.11336035243E+02 0.10367440175E+02 0.98155637867E+01
 0.96147776202E+01 0.95893409204E+01 0.96147776202E+01 0.98155637867E+01 0.10367440175E+02
 0.11336035243E+02 0.12938307320E+02 0.15578488806E+02 0.21131647098E+02 0.36780955047E+02
 0.68265771547E+02 0.11658666158E+03 0.17707052607E+03 0.23877102720E+03 0.28593484602E+03
 0.25372146954E+03 0.23877102720E+03 0.19912131741E+03 0.14732013284E+03 0.96808460315E+02
 0.56992337154E+02 0.31732087792E+02 0.19693625776E+02 0.15341325166E+02 0.12918277432E+02
 0.11454999706E+02 0.10560847309E+02 0.10032712641E+02 0.98155637867E+01 0.97752110374E+01
 0.98155637867E+01 0.10032712641E+02 0.10560847309E+02 0.11454999706E+02 0.12918277432E+02
 0.15341325166E+02 0.19693625776E+02 0.31732087792E+02 0.56992337154E+02 0.96808460315E+02
 0.14732013284E+03 0.19912131741E+03 0.23877102720E+03 0.18830443232E+03 0.17707052607E+03
 0.14732013284E+03 0.10864707446E+03 0.71431931879E+02 0.42920838455E+02 0.25752954977E+02
 0.18119316722E+02 0.14963238496E+02 0.12918155099E+02 0.11715485354E+02 0.10992818629E+02
 0.10560847309E+02 0.10367440175E+02 0.10323734397E+02 0.10367440175E+02 0.10560847309E+02
 0.10992818629E+02 0.11715485354E+02 0.12918155099E+02 0.14963238496E+02 0.18119316722E+02
 0.25752954977E+02 0.42920838455E+02 0.71431931879E+02 0.10864707446E+03 0.14732013284E+03
 0.17707052607E+03 0.12409192989E+03 0.11658666158E+03 0.96808460315E+02 0.71431931879E+02
 0.47684679808E+02 0.30433606490E+02 0.20915839427E+02 0.16884757032E+02 0.14533358288E+02
 0.13008159439E+02 0.12174370925E+02 0.11715485354E+02 0.11454999706E+02 0.11336035243E+02
 0.11307069126E+02 0.11336035243E+02 0.11454999706E+02 0.11715485354E+02 0.12174370925E+02
 0.13008159439E+02 0.14533358288E+02 0.16884757032E+02 0.20915839427E+02 0.30433606490E+02
 0.47684679808E+02 0.71431931879E+02 0.96808460315E+02 0.11658666158E+03 0.72593268103E+02
 0.68265771547E+02 0.56992337154E+02 0.42920838455E+02 0.30433606490E+02 0.22154472646E+02
 0.18049851577E+02 0.15841356104E+02 0.14244597210E+02 0.13360838290E+02 0.13008159439E+02
 0.12918155099E+02 0.12918277432E+02 0.12938307320E+02 0.12948715026E+02 0.12938307320E+02
 0.12918277432E+02 0.12918155099E+02 0.13008159439E+02 0.13360838290E+02 0.14244597210E+02
 0.15841356104E+02 0.18049851577E+02 0.22154472646E+02 0.30433606490E+02 0.42920838455E+02
 0.56992337154E+02 0.68265771547E+02 0.38764405931E+02 0.36780955047E+02 0.31732087792E+02
 0.25752954977E+02 0.20915839427E+02 0.18049851577E+02 0.16341542310E+02 0.15046975920E+02
 0.14350127581E+02 0.14244597210E+02 0.14533358288E+02 0.14963238496E+02 0.15341325166E+02
 0.15578488806E+02 0.15660442662E+02 0.15578488806E+02 0.15341325166E+02 0.14963238496E+02
 0.14533358288E+02 0.14244597210E+02 0.14350127581E+02 0.15046975920E+02 0.16341542310E+02
 0.18049851577E+02 0.20915839427E+02 0.25752954977E+02 0.31732087792E+02 0.36780955047E+02
 0.21720866139E+02 0.21131647098E+02 0.19693625776E+02 0.18119316722E+02 0.16884757032E+02
 0.15841356104E+02 0.15046975920E+02 0.14750241529E+02 0.15046975920E+02 0.15841356104E+02
 0.16884757032E+02 0.18119316722E+02 0.19693625776E+02 0.21131647098E+02 0.21720866139E+02
 0.21131647098E+02 0.19693625776E+02 0.18119316722E+02 0.16884757032E+02 0.15841356104E+02
 0.15046975920E+02 0.14750241529E+02 0.15046975920E+02 0.15841356104E+02 0.16884757032E+02
 0.18119316722E+02 0.19693625776E+02 0.21131647098E+02 0.15660442662E+02 0.15578488806E+02
 0.15341325166E+02 0.14963238496E+02 0.14533358288E+02 0.14244597210E+02 0.14350127581E+02
 0.15046975920E+02 0.16341542310E+02 0.18049851577E+02 0.20915839427E+02 0.25752954977E+02
 0.31732087792E+02 0.36780955047E+02 0.38764405931E+02 0.36780955047E+02 0.31732087792E+02
 0.25752954977E+02 0.20915839427E+02 0.18049851577E+02 0.16341542310E+02 0.15046975920E+02
 0.14350127581E+02 0.14244597210E+02 0.14533358288E+02 0.14963238496E+02 0.15341325166E+02
 0.15578488806E+02 0.12948715026E+02 0.12938307320E+02 0.12918277432E+02 0.12918155099E+02
 0.13008159439E+02 0.13360838290E+02 0.14244597210E+02 0.15841356104E+02 0.18049851577E+02
 0.22154472646E+02 0.30433606490E+02 0.42920838455E+02 0.56992337154E+02 0.68265771547E+02
 0.72593268103E+02 0.68265771547E+02 0.56992337154E+02 0.42920838455E+02 0.30433606490E+02
 0.22154472646E+02 0.18049851577E+02 0.15841356104E+02 0.14244597210E+02 0.13360838290E+02
 0.13008159439E+02 0.12918155099E+02 0.12918277432E+02 0.12938307320E+02 0.11307069126E+02
 0.11336035243E+02 0.11454999706E+02 0.11715485354E+02 0.12174370925E+02 0.13008159439E+02
 0.14533358288E+02 0.16884757032E+02 0.20915839427E+02 0.30433606490E+02 0.47684679808E+02
 0.71431931879E+02 0.96808460315E+02 0.11658666158E+03 0.12409192989E+03 0.11658666158E+03
 0.96808460315E+02 0.71431931879E+02 0.47684679808E+02 0.30433606490E+02 0.20915839427E+02
 0.16884757032E+02 0.14533358288E+02 0.13008159439E+02 0.12174370925E+02 0.11715485354E+02
 0.11454999706E+02 0.11336035243E+02 0.10323734397E+02 0.10367440175E+02 0.10560847309E+02
 0.10992818629E+02 0.11715485354E+02 0.12918155099E+02 0.14963238496E+02 0.18119316722E+02
 0.25752954977E+02 0.42920838455E+02 0.71431931879E+02 0.10864707446E+03 0.14732013284E+03
 0.17707052607E+03 0.18830443232E+03 0.17707052607E+03 0.14732013284E+03 0.10864707446E+03
 0.71431931879E+02 0.42920838455E+02 0.25752954977E+02 0.18119316722E+02 0.14963238496E+02
 0.12918155099E+02 0.11715485354E+02 0.10992818629E+02 0.10560847309E+02 0.10367440175E+02
 0.97752110374E+01 0.98155637867E+01 0.10032712641E+02 0.10560847309E+02 0.11454999706E+02
 0.12918277432E+02 0.15341325166E+02 0.19693625776E+02 0.31732087792E+02 0.56992337154E+02
 0.96808460315E+02 0.14732013284E+03 0.19912131741E+03 0.23877102720E+03 0.25372146954E+03
 0.23877102720E+03 0.19912131741E+03 0.14732013284E+03 0.96808460315E+02 0.56992337154E+02
 0.31732087792E+02 0.19693625776E+02 0.15341325166E+02 0.12918277432E+02 0.11454999706E+02
 0.10560847309E+02 0.10032712641E+02 0.98155637867E+01 0.95893409204E+01 0.96147776202E+01
 0.98155637867E+01 0.10367440175E+02 0.11336035243E+02 0.12938307320E+02 0.15578488806E+02
 0.21131647098E+02 0.36780955047E+02 0.68265771547E+02 0.11658666158E+03 0.17707052607E+03
 0.23877102720E+03 0.28593484602E+03 0.30371757238E+03 0.28593484602E+03 0.23877102720E+03
 0.17707052607E+03 0.11658666158E+03 0.68265771547E+02 0.36780955047E+02 0.21131647098E+02
 0.15578488806E+02 0.12938307320E+02 0.11336035243E+02 0.10367440175E+02 0.98155637867E+01
 0.96147776202E+01 0.95726883124E+01 0.95893409204E+01 0.97752110374E+01 0.10323734397E+02
 0.11307069126E+02 0.12948715026E+02 0.15660442662E+02 0.21720866139E+02 0.38764405931E+02
 0.72593268103E+02 0.12409192989E+03 0.18830443232E+03 0.25372146954E+03 0.30371757238E+03
 0.32257024841E+03 0.30371757238E+03 0.25372146954E+03 0.18830443232E+03 0.12409192989E+03
 0.72593268103E+02 0.38764405931E+02 0.21720866139E+02 0.15660442662E+02 0.12948715026E+02
 0.11307069126E+02 0.10323734397E+02 0.97752110374E+01 0.95893409204E+01 0.95893409204E+01
 0.96147776202E+01 0.98155637867E+01 0.10367440175E+02 0.11336035243E+02 0.12938307320E+02
 0.15578488806E+02 0.21131647098E+02 0.36780955047E+02 0.68265771547E+02 0.11658666158E+03
 0.17707052607E+03 0.23877102720E+03 0.28593484602E+03 0.30371757238E+03 0.28593484602E+03
 0.23877102720E+03 0.17707052607E+03 0.11658666158E+03 0.68265771547E+02 0.36780955047E+02
 0.21131647098E+02 0.15578488806E+02 0.12938307320E+02 0.11336035243E+02 0.10367440175E+02
 0.98155637867E+01 0.96147776202E+01 0.97752110374E+01 0.98155637867E+01 0.10032712641E+02
 0.10560847309E+02 0.11454999706E+02 0.12918277432E+02 0.15341325166E+02 0.19693625776E+02
 0.31732087792E+02 0.56992337154E+02 0.96808460315E+02 0.14732013284E+03 0.19912131741E+03
 0.23877102720E+03 0.25372146954E+03 0.23877102720E+03 0.19912131741E+03 0.14732013284E+03
 0.96808460315E+02 0.56992337154E+02 0.31732087792E+02 0.19693625776E+02 0.15341325166E+02
 0.12918277432E+02 0.11454999706E+02 0.10560847309E+02 0.10032712641E+02 0.98155637867E+01
 0.10323734397E+02 0.10367440175E+02 0.10560847309E+02 0.10992818629E+02 0.11715485354E+02
 0.12918155099E+02 0.14963238496E+02 0.18119316722E+02 0.25752954977E+02 0.42920838455E+02
 0.71431931879E+02 0.10864707446E+03 0.14732013284E+03 0.17707052607E+03 0.18830443232E+03
 0.17707052607E+03 0.14732013284E+03 0.10864707446E+03 0.71431931879E+02 0.42920838455E+02
 0.25752954977E+02 0.18119316722E+02 0.14963238496E+02 0.12918155099E+02 0.11715485354E+02
 0.10992818629E+02 0.10560847309E+02 0.10367440175E+02 0.11307069126E+02 0.11336035243E+02
 0.11454999706E+02 0.11715485354E+02 0.12174370925E+02 0.13008159439E+02 0.14533358288E+02
 0.16884757032E+02 0.20915839427E+02 0.30433606490E+02 0.47684679808E+02 0.71431931879E+02
 0.96808460315E+02 0.11658666158E+03 0.12409192989E+03 0.11658666158E+03 0.96808460315E+02
 0.71431931879E+02 0.47684679808E+02 0.30433606490E+02 0.20915839427E+02 0.16884757032E+02
 0.14533358288E+02 0.13008159439E+02 0.12174370925E+02 0.11715485354E+02 0.11454999706E+02
 0.11336035243E+02 0.12948715026E+02 0.12938307320E+02 0.12918277432E+02 0.12918155099E+02
 0.13008159439E+02 0.13360838290E+02 0.14244597210E+02 0.15841356104E+02 0.18049851577E+02
 0.22154472646E+02 0.30433606490E+02 0.42920838455E+02 0.56992337154E+02 0.68265771547E+02
 0.72593268103E+02 0.68265771547E+02 0.56992337154E+02 0.42920838455E+02 0.30433606490E+02
 0.22154472646E+02 0.18049851577E+02 0.15841356104E+02 0.14244597210E+02 0.13360838290E+02
 0.13008159439E+02 0.12918155099E+02 0.12918277432E+02 0.12938307320E+02 0.15660442662E+02
 0.15578488806E+02 0.15341325166E+02 0.14963238496E+02 0.14533358288E+02 0.14244597210E+02
 0.14350127581E+02 0.15046975920E+02 0.16341542310E+02 0.18049851577E+02 0.20915839427E+02
 0.25752954977E+02 0.31732087792E+02 0.36780955047E+02 0.38764405931E+02 0.36780955047E+02
 0.31732087792E+02 0.25752954977E+02 0.20915839427E+02 0.18049851577E+02 0.16341542310E+02
 0.15046975920E+02 0.14350127581E+02 0.14244597210E+02 0.14533358288E+02 0.14963238496E+02
 0.15341325166E+02 0.15578488806E+02 0.21720866139E+02 0.21131647098E+02 0.19693625776E+02
 0.18119316722E+02 0.16884757032E+02 0.15841356104E+02 0.15046975920E+02 0.14750241529E+02
 0.15046975920E+02 0.15841356104E+02 0.16884757032E+02 0.18119316722E+02 0.19693625776E+02
 0.21131647098E+02 0.21720866139E+02 0.21131647098E+02 0.19693625776E+02 0.18119316722E+02
 0.16884757032E+02 0.15841356104E+02 0.15046975920E+02 0.14750241529E+02 0.15046975920E+02
 0.15841356104E+02 0.16884757032E+02 0.18119316722E+02 0.19693625776E+02 0.21131647098E+02
 0.38764405931E+02 0.36780955047E+02 0.31732087792E+02 0.25752954977E+02 0.20915839427E+02
 0.18049851577E+02 0.16341542310E+02 0.15046975920E+02 0.14350127581E+02 0.14244597210E+02
 0.14533358288E+02 0.14963238496E+02 0.15341325166E+02 0.15578488806E+02 0.15660442662E+02
 0.15578488806E+02 0.15341325166E+02 0.14963238496E+02 0.14533358288E+02 0.14244597210E+02
 0.14350127581E+02 0.15046975920E+02 0.16341542310E+02 0.18049851577E+02 0.20915839427E+02
 0.25752954977E+02 0.31732087792E+02 0.36780955047E+02 0.72593268103E+02 0.68265771547E+02
 0.56992337154E+02 0.42920838455E+02 0.30433606490E+02 0.22154472646E+02 0.18049851577E+02
 0.15841356104E+02 0.14244597210E+02 0.13360838290E+02 0.13008159439E+02 0.12918155099E+02
 0.12918277432E+02 0.12938307320E+02 0.12948715026E+02 0.12938307320E+02 0.12918277432E+02
 0.12918155099E+02 0.13008159439E+02 0.13360838290E+02 0.14244597210E+02 0.15841356104E+02
 0.18049851577E+02 0.22154472646E+02 0.30433606490E+02 0.42920838455E+02 0.56992337154E+02
 0.68265771547E+02 0.12409192989E+03 0.11658666158E+03 0.96808460315E+02 0.71431931879E+02
 0.47684679808E+02 0.30433606490E+02 0.20915839427E+02 0.16884757032E+02 0.14533358288E+02
 0.13008159439E+02 0.12174370925E+02 0.11715485354E+02 0.11454999706E+02 0.11336035243E+02
 0.11307069126E+02 0.11336035243E+02 0.11454999706E+02 0.11715485354E+02 0.12174370925E+02
 0.13008159439E+02 0.14533358288E+02 0.16884757032E+02 0.20915839427E+02 0.30433606490E+02
 0.47684679808E+02 0.71431931879E+02 0.96808460315E+02 0.11658666158E+03 0.18830443232E+03
 0.17707052607E+03 0.14732013284E+03 0.10864707446E+03 0.71431931879E+02 0.42920838455E+02
 0.25752954977E+02 0.18119316722E+02 0.14963238496E+02 0.12918155099E+02 0.11715485354E+02
 0.10992818629E+02 0.10560847309E+02 0.10367440175E+02 0.10323734397E+02 0.10367440175E+02
 0.10560847309E+02 0.10992818629E+02 0.11715485354E+02 0.12918155099E+02 0.14963238496E+02
 0.18119316722E+02 0.25752954977E+02 0.42920838455E+02 0.71431931879E+02 0.10864707446E+03
 0.14732013284E+03 0.17707052607E+03 0.25372146954E+03 0.23877102720E+03 0.19912131741E+03
 0.14732013284E+03 0.96808460315E+02 0.56992337154E+02 0.31732087792E+02 0.19693625776E+02
 0.15341325166E+02 0.12918277432E+02 0.11454999706E+02 0.10560847309E+02 0.10032712641E+02
 0.98155637867E+01 0.97752110374E+01 0.98155637867E+01 0.10032712641E+02 0.10560847309E+02
 0.11454999706E+02 0.12918277432E+02 0.15341325166E+02 0.19693625776E+02 0.31732087792E+02
 0.56992337154E+02 0.96808460315E+02 0.14732013284E+03 0.19912131741E+03 0.23877102720E+03
 0.30371757238E+03 0.28593484602E+03 0.23877102720E+03 0.17707052607E+03 0.11658666158E+03
 0.68265771547E+02 0.36780955047E+02 0.21131647098E+02 0.15578488806E+02 0.12938307320E+02
 0.11336035243E+02 0.10367440175E+02 0.98155637867E+01 0.96147776202E+01 0.95893409204E+01
 0.96147776202E+01 0.98155637867E+01 0.10367440175E+02 0.11336035243E+02 0.12938307320E+02
 0.15578488806E+02 0.21131647098E+02 0.36780955047E+02 0.68265771547E+02 0.11658666158E+03
 0.17707052607E+03 0.23877102720E+03 0.28593484602E+03 0.26957014135E+03 0.25372146954E+03
 0.21168595575E+03 0.15673576594E+03 0.10304749115E+03 0.60524951643E+02 0.33295000233E+02
 0.20129884051E+02 0.15420744296E+02 0.12924308432E+02 0.11419071626E+02 0.10507993389E+02
 0.99805720662E+01 0.97752110374E+01 0.97420890180E+01 0.97752110374E+01 0.99805720662E+01
 0.10507993389E+02 0.11419071626E+02 0.12924308432E+02 0.15420744296E+02 0.20129884051E+02
 0.33295000233E+02 0.60524951643E+02 0.10304749115E+03 0.15673576594E+03 0.21168595575E+03
 0.25372146954E+03 0.25372146954E+03 0.23877102720E+03 0.19912131741E+03 0.14732013284E+03
 0.96808460315E+02 0.56992337154E+02 0.31732087792E+02 0.19693625776E+02 0.15341325166E+02
 0.12918277432E+02 0.11454999706E+02 0.10560847309E+02 0.10032712641E+02 0.98155637867E+01
 0.97752110374E+01 0.98155637867E+01 0.10032712641E+02 0.10560847309E+02 0.11454999706E+02
 0.12918277432E+02 0.15341325166E+02 0.19693625776E+02 0.31732087792E+02 0.56992337154E+02
 0.96808460315E+02 0.14732013284E+03 0.19912131741E+03 0.23877102720E+03 0.21168595575E+03