   4   4   0   0
  0.1022208E+02  0.3445083E-09  0.3445083E-09  0.3445083E-09  0.5000000E-15
  1.000000000000000E-004
  CAR 
 unknown system                          
     38.18864377     -4.03142542  301      6.74604370      1.00000000
     -4.031  0.0000E+00  0.0000E+00
     -3.891  0.0000E+00  0.0000E+00
     -3.750 -0.2369E-32 -0.3334E-33
     -3.609 -0.2367E-27 -0.3332E-28
     -3.468 -0.8717E-23 -0.1227E-23
     -3.328 -0.1181E-18 -0.1662E-19
     -3.187 -0.5683E-15 -0.7999E-16
     -3.046 -0.1028E-11 -0.1447E-12
     -2.906 -0.6715E-09 -0.9465E-10
     -2.765 -0.1571E-06 -0.2221E-07
     -2.624 -0.1286E-04 -0.1832E-05
     -2.483 -0.3468E-03 -0.5064E-04
     -2.343 -0.2494E-02 -0.4016E-03
     -2.202  0.2597E-02 -0.3611E-04
     -2.061  0.4289E-01  0.6000E-02
     -1.920  0.5731E-01  0.1407E-01
     -1.780  0.3407E-03  0.1411E-01
     -1.639  0.1424E-01  0.1612E-01
     -1.498  0.2603E+00  0.5276E-01
     -1.357  0.3475E+00  0.1017E+00
     -1.217  0.5447E-01  0.1093E+00
     -1.076  0.7785E-01  0.1203E+00
     -0.935  0.6222E+00  0.2078E+00
     -0.795  0.6154E+00  0.2945E+00
     -0.654  0.8375E-01  0.3062E+00
     -0.513  0.1952E+00  0.3337E+00
     -0.372  0.4949E+00  0.4034E+00
     -0.232  0.2083E+00  0.4327E+00
     -0.091  0.4800E-01  0.4394E+00
      0.050  0.3087E+00  0.4829E+00
      0.191  0.2361E+00  0.5161E+00
      0.331  0.9724E-01  0.5298E+00
      0.472  0.9893E+00  0.6690E+00
      0.613  0.1355E+01  0.8597E+00
      0.754  0.8126E+00  0.9741E+00
      0.894  0.1394E+01  0.1170E+01
      1.035  0.9266E+00  0.1301E+01
      1.176  0.2389E-01  0.1304E+01
      1.316 -0.1160E+00  0.1288E+01
      1.457 -0.1047E+00  0.1273E+01
      1.598  0.9525E+00  0.1407E+01
      1.739  0.2813E+01  0.1803E+01
      1.879  0.2350E+01  0.2134E+01
      2.020  0.1973E+01  0.2411E+01
      2.161  0.3886E+01  0.2958E+01
      2.302  0.4844E+01  0.3640E+01
      2.442  0.3737E+01  0.4166E+01
      2.583  0.4769E+01  0.4837E+01
      2.724  0.3930E+01  0.5390E+01
      2.865  0.3786E+01  0.5923E+01
      3.005  0.6683E+01  0.6864E+01
      3.146  0.8939E+01  0.8122E+01
      3.287  0.6149E+01  0.8987E+01
      3.427  0.2678E+01  0.9364E+01
      3.568  0.5985E+01  0.1021E+02
      3.709  0.8027E+01  0.1134E+02
      3.850  0.4914E+01  0.1203E+02
      3.990  0.2504E+01  0.1238E+02
      4.131  0.3351E+01  0.1285E+02
      4.272  0.6523E+01  0.1377E+02
      4.413  0.7717E+01  0.1486E+02
      4.553  0.4744E+01  0.1552E+02
      4.694  0.5926E+01  0.1636E+02
      4.835  0.1099E+02  0.1790E+02
      4.976  0.9222E+01  0.1920E+02
      5.116  0.7100E+01  0.2020E+02
      5.257  0.7440E+01  0.2125E+02
      5.398  0.8337E+01  0.2242E+02
      5.538  0.7362E+01  0.2346E+02
      5.679  0.6039E+01  0.2431E+02
      5.820  0.7268E+01  0.2533E+02
      5.961  0.8283E+01  0.2650E+02
      6.101  0.7430E+01  0.2754E+02
      6.242  0.7337E+01  0.2857E+02
      6.383  0.6909E+01  0.2955E+02
      6.524  0.3963E+01  0.3010E+02
      6.664  0.6830E+01  0.3107E+02
      6.805  0.1183E+02  0.3273E+02
      6.946  0.8996E+01  0.3400E+02
      7.087  0.3469E+01  0.3449E+02
      7.227  0.3837E+01  0.3503E+02
      7.368  0.6674E+01  0.3596E+02
      7.509  0.9157E+01  0.3725E+02
      7.649  0.1247E+02  0.3901E+02
      7.790  0.1104E+02  0.4056E+02
      7.931  0.5626E+01  0.4135E+02
      8.072  0.4442E+01  0.4198E+02
      8.212  0.4268E+01  0.4258E+02
      8.353  0.2535E+01  0.4294E+02
      8.494  0.3525E+00  0.4299E+02
      8.635 -0.1632E+00  0.4296E+02
      8.775 -0.1048E+00  0.4295E+02
      8.916  0.1761E+00  0.4297E+02
      9.057  0.1212E+01  0.4314E+02
      9.198  0.1122E+01  0.4330E+02
      9.338  0.5251E+00  0.4338E+02
      9.479  0.2572E+01  0.4374E+02
      9.620  0.3643E+01  0.4425E+02
      9.760  0.1659E+01  0.4448E+02
      9.901  0.2196E+00  0.4451E+02
     10.042  0.1101E+01  0.4467E+02
     10.183  0.1562E+01  0.4489E+02
     10.323  0.3818E+00  0.4494E+02
     10.464 -0.9803E-01  0.4493E+02
     10.605 -0.9896E-01  0.4492E+02
     10.746  0.2019E+00  0.4494E+02
     10.886  0.1246E+01  0.4512E+02
     11.027  0.1715E+01  0.4536E+02
     11.168  0.1641E+01  0.4559E+02
     11.309  0.7710E+00  0.4570E+02
     11.449  0.3358E-01  0.4570E+02
     11.590  0.4638E+00  0.4577E+02
     11.731  0.7274E+00  0.4587E+02
     11.871  0.6574E+00  0.4596E+02
     12.012  0.5047E+00  0.4604E+02
     12.153  0.6046E+00  0.4612E+02
     12.294  0.3076E+01  0.4655E+02
     12.434  0.3926E+01  0.4711E+02
     12.575  0.1139E+01  0.4727E+02
     12.716 -0.1781E+00  0.4724E+02
     12.857 -0.1090E+00  0.4723E+02
     12.997  0.1455E+00  0.4725E+02
     13.138  0.6873E+00  0.4734E+02
     13.279  0.5589E+00  0.4742E+02
     13.420  0.5162E-01  0.4743E+02
     13.560 -0.3228E-01  0.4742E+02
     13.701 -0.5093E-02  0.4742E+02
     13.842 -0.2112E-03  0.4742E+02
     13.982 -0.3720E-03  0.4742E+02
     14.123 -0.9456E-02  0.4742E+02
     14.264 -0.6409E-01  0.4741E+02
     14.405  0.6997E-01  0.4742E+02
     14.545  0.1056E+01  0.4757E+02
     14.686  0.1678E+01  0.4781E+02
     14.827  0.1081E+01  0.4796E+02
     14.968  0.3271E+00  0.4801E+02
     15.108 -0.8610E-01  0.4799E+02
     15.249 -0.2658E-01  0.4799E+02
     15.390  0.8425E+00  0.4811E+02
     15.531  0.2126E+01  0.4841E+02
     15.671  0.3072E+01  0.4884E+02
     15.812  0.2840E+01  0.4924E+02
     15.953  0.3032E+01  0.4967E+02
     16.093  0.1856E+01  0.4993E+02
     16.234  0.7217E-01  0.4994E+02
     16.375 -0.1157E+00  0.4992E+02
     16.516 -0.1644E-01  0.4992E+02
     16.656 -0.1464E-01  0.4992E+02
     16.797 -0.1072E-01  0.4992E+02
     16.938  0.2305E+00  0.4995E+02
     17.079  0.4343E+00  0.5001E+02
     17.219  0.2159E+00  0.5004E+02
     17.360  0.1180E+01  0.5021E+02
     17.501  0.3183E+01  0.5065E+02
     17.642  0.2415E+01  0.5099E+02
     17.782  0.8618E+00  0.5112E+02
     17.923  0.1141E+01  0.5128E+02
     18.064  0.7667E+00  0.5138E+02
     18.204 -0.2595E-01  0.5138E+02
     18.345  0.2115E+00  0.5141E+02
     18.486  0.1987E+01  0.5169E+02
     18.627  0.3427E+01  0.5217E+02
     18.767  0.2538E+01  0.5253E+02
     18.908  0.5606E+00  0.5261E+02
     19.049 -0.2640E-01  0.5260E+02
     19.190  0.5184E+00  0.5268E+02
     19.330  0.8721E+00  0.5280E+02
     19.471  0.1366E+01  0.5299E+02
     19.612  0.1243E+01  0.5317E+02
     19.753  0.1258E+01  0.5334E+02
     19.893  0.1265E+01  0.5352E+02
     20.034  0.1219E+00  0.5354E+02
     20.175  0.2507E+00  0.5357E+02
     20.315  0.2624E+01  0.5394E+02
     20.456  0.3494E+01  0.5444E+02
     20.597  0.2315E+01  0.5476E+02
     20.738  0.1739E+01  0.5501E+02
     20.878  0.5283E+00  0.5508E+02
     21.019  0.2298E+00  0.5511E+02
     21.160  0.1962E+01  0.5539E+02
     21.301  0.2291E+01  0.5571E+02
     21.441  0.4395E+00  0.5577E+02
     21.582 -0.3076E+00  0.5573E+02
     21.723  0.7429E+00  0.5583E+02
     21.864  0.3819E+01  0.5637E+02
     22.004  0.4135E+01  0.5695E+02
     22.145  0.1239E+01  0.5713E+02
     22.286 -0.1719E+00  0.5710E+02
     22.426 -0.2698E+00  0.5707E+02
     22.567  0.1240E+01  0.5724E+02
     22.708  0.4456E+01  0.5787E+02
     22.849  0.4652E+01  0.5852E+02
     22.989  0.2850E+01  0.5892E+02
     23.130  0.1786E+01  0.5917E+02
     23.271  0.9093E+00  0.5930E+02
     23.412  0.9467E-01  0.5932E+02
     23.552 -0.2343E+00  0.5928E+02
     23.693  0.4842E+00  0.5935E+02
     23.834  0.3126E+01  0.5979E+02
     23.975  0.4127E+01  0.6037E+02
     24.115  0.2914E+01  0.6078E+02
     24.256  0.2015E+01  0.6107E+02
     24.397  0.1135E+01  0.6123E+02
     24.537  0.3639E-01  0.6123E+02
     24.678 -0.1794E+00  0.6121E+02
     24.819  0.1555E+01  0.6142E+02
     24.960  0.3742E+01  0.6195E+02
     25.100  0.1876E+01  0.6221E+02
     25.241 -0.1463E+00  0.6219E+02
     25.382 -0.3034E+00  0.6215E+02
     25.523  0.1600E+01  0.6238E+02
     25.663  0.4923E+01  0.6307E+02
     25.804  0.3366E+01  0.6354E+02
     25.945  0.3214E+00  0.6359E+02
     26.086  0.5764E+00  0.6367E+02
     26.226  0.1359E+01  0.6386E+02
     26.367  0.7608E+00  0.6397E+02
     26.508  0.2061E+01  0.6426E+02
     26.648  0.3362E+01  0.6473E+02
     26.789  0.1360E+01  0.6492E+02
     26.930  0.5454E+00  0.6500E+02
     27.071  0.1428E+01  0.6520E+02
     27.211  0.7421E+00  0.6530E+02
     27.352 -0.9510E-01  0.6529E+02
     27.493 -0.1506E-01  0.6529E+02
     27.634  0.1040E+01  0.6544E+02
     27.774  0.2604E+01  0.6580E+02
     27.915  0.3323E+01  0.6627E+02
     28.056  0.2410E+01  0.6661E+02
     28.197  0.1270E+01  0.6679E+02
     28.337  0.4008E+00  0.6684E+02
     28.478  0.1913E+01  0.6711E+02
     28.619  0.3563E+01  0.6761E+02
     28.759  0.1878E+01  0.6788E+02
     28.900  0.4712E+00  0.6795E+02
     29.041  0.5925E+00  0.6803E+02
     29.182  0.9087E+00  0.6816E+02
     29.322  0.1030E+01  0.6830E+02
     29.463  0.9131E+00  0.6843E+02
     29.604  0.1498E+01  0.6864E+02
     29.745  0.3130E+01  0.6908E+02
     29.885  0.3603E+01  0.6959E+02
     30.026  0.1575E+01  0.6981E+02
     30.167  0.7990E+00  0.6992E+02
     30.308  0.1782E+01  0.7017E+02
     30.448  0.1339E+01  0.7036E+02
     30.589  0.1342E+00  0.7038E+02
     30.730  0.8316E+00  0.7050E+02
     30.870  0.2054E+01  0.7079E+02
     31.011  0.1888E+01  0.7105E+02
     31.152  0.3243E+01  0.7151E+02
     31.293  0.3300E+01  0.7197E+02
     31.433  0.2552E+01  0.7233E+02
     31.574  0.2557E+01  0.7269E+02
     31.715  0.1081E+01  0.7284E+02
     31.856  0.1053E+01  0.7299E+02
     31.996  0.1140E+01  0.7315E+02
     32.137  0.6046E+00  0.7324E+02
     32.278  0.2426E+01  0.7358E+02
     32.419  0.3635E+01  0.7409E+02
     32.559  0.1849E+01  0.7435E+02
     32.700  0.1328E+00  0.7437E+02
     32.841 -0.1308E+00  0.7435E+02
     32.982 -0.1426E+00  0.7433E+02
     33.122  0.2862E-01  0.7434E+02
     33.263  0.2097E+01  0.7463E+02
     33.404  0.5534E+01  0.7541E+02
     33.544  0.5561E+01  0.7619E+02
     33.685  0.4103E+01  0.7677E+02
     33.826  0.2754E+01  0.7716E+02
     33.967  0.1163E+01  0.7732E+02
     34.107  0.7095E+00  0.7742E+02
     34.248  0.3884E+00  0.7748E+02
     34.389  0.6241E+00  0.7756E+02
     34.530  0.4129E+00  0.7762E+02
     34.670  0.1057E+01  0.7777E+02
     34.811  0.2503E+01  0.7812E+02
     34.952  0.2237E+01  0.7844E+02
     35.093  0.8794E+00  0.7856E+02
     35.233  0.8358E+00  0.7868E+02
     35.374  0.1437E+01  0.7888E+02
     35.515  0.4813E+00  0.7895E+02
     35.655 -0.8711E-01  0.7894E+02
     35.796  0.8696E+00  0.7906E+02
     35.937  0.1858E+01  0.7932E+02
     36.078  0.1702E+01  0.7956E+02
     36.218  0.2053E+01  0.7985E+02
     36.359  0.1134E+01  0.8001E+02
     36.500  0.2192E-01  0.8001E+02
     36.641 -0.6958E-01  0.8000E+02
     36.781 -0.8861E-02  0.8000E+02
     36.922 -0.3180E-03  0.8000E+02
     37.063 -0.3829E-05  0.8000E+02
     37.204 -0.1624E-07  0.8000E+02
     37.344 -0.2476E-10  0.8000E+02
     37.485 -0.1333E-13  0.8000E+02
     37.626  0.0000E+00  0.8000E+02
     37.766  0.0000E+00  0.8000E+02
     37.907  0.0000E+00  0.8000E+02
     38.048  0.0000E+00  0.8000E+02
     38.189  0.0000E+00  0.8000E+02
