    4    4    1    1
  0.1022208E+02  0.3445083E-09  0.3445083E-09  0.3445083E-09  0.5000000E-15
  1.000000000000000E-004
  CAR 
 unknown system                          
     32     10     40
 
  0.0000000E+00  0.0000000E+00  0.0000000E+00  0.8000000E-02
    1       -2.031425   1.000000
    2        1.820930   1.000000
    3        1.820930   1.000000
    4        1.820930   1.000000
    5        2.561129   1.000000
    6        2.561129   1.000000
    7        2.561129   1.000000
    8        5.217591   1.000000
    9        5.217591   1.000000
   10        5.217591   1.000000
   11        6.729141   0.571241
   12        6.729141   0.571241
   13        7.692374  -0.000000
   14        7.692374  -0.000000
   15        7.692374  -0.000000
   16        7.981953  -0.000000
   17        7.981953  -0.000000
   18        7.981953  -0.000000
   19        7.981953  -0.000000
   20        7.981953  -0.000000
   21        7.981953  -0.000000
   22       10.072047  -0.000000
   23       10.072047  -0.000000
   24       10.072047  -0.000000
   25       18.545587   0.000000
   26       18.545587   0.000000
   27       18.545587   0.000000
   28       23.081004   0.000000
   29       23.081004   0.000000
   30       23.081004   0.000000
   31       23.081004   0.000000
   32       23.081004   0.000000
   33       23.081004   0.000000
   34       28.726623   0.000000
   35       28.726623   0.000000
   36       28.726623   0.000000
   37       30.170648   0.000000
   38       33.405526   0.000000
   39       33.405526   0.000000
   40       33.405526   0.000000
 
  0.2000000E+00  0.0000000E+00  0.0000000E+00  0.4800000E-01
    1       -1.470340   1.000000
    2        1.933264   1.000000
    3        2.157508   1.000000
    4        2.157508   1.000000
    5        2.778488   1.000000
    6        2.837144   1.000000
    7        2.837144   1.000000
    8        4.865578   1.000000
    9        5.335725   1.000000
   10        5.335725   1.000000
   11        6.421615   1.022045
   12        6.554491   1.020170
   13        6.554491   1.020170
   14        6.798281   0.287105
   15        7.362921  -0.000058
   16        7.362921  -0.000058
   17        7.590125  -0.000000
   18        7.610869  -0.000000
   19        7.610869  -0.000000
   20        7.985291  -0.000000
   21        7.985291  -0.000000
   22        8.235740  -0.000000
   23       11.896663  -0.000000
   24       11.896663  -0.000000
   25       18.554876   0.000000
   26       18.554876   0.000000
   27       21.135589   0.000000
   28       21.135589   0.000000
   29       21.159558   0.000000
   30       22.004351   0.000000
   31       22.004351   0.000000
   32       24.010083   0.000000
   33       24.010083   0.000000
   34       28.789218   0.000000
   35       29.891067   0.000000
   36       31.252476   0.000000
   37       31.252476   0.000000
   38       33.189955   0.000000
   39       33.461556   0.000000
   40       33.461571   0.000000
 
  0.4000000E+00  0.0000000E+00  0.0000000E+00  0.4800000E-01
    1        0.040148   1.000000
    2        1.621556   1.000000
    3        2.849952   1.000000
    4        2.849952   1.000000
    5        3.375849   1.000000
    6        3.597292   1.000000
    7        3.597292   1.000000
    8        4.166006   1.000000
    9        4.862797   1.000000
   10        4.862797   1.000000
   11        5.879973   1.000000
   12        5.909417   1.000000
   13        5.909417   1.000000
   14        6.051399   1.000005
   15        6.673109   0.787039
   16        6.673109   0.787039
   17        6.774024   0.382881
   18        6.774024   0.382881
   19        7.012667  -0.033903
   20        7.327335  -0.000156
   21        8.000322  -0.000000
   22        8.000322  -0.000000
   23       14.771619   0.000000
   24       14.771619   0.000000
   25       17.933247   0.000000
   26       17.933247   0.000000
   27       18.604576   0.000000
   28       18.604576   0.000000
   29       20.713188   0.000000
   30       20.713188   0.000000
   31       25.749830   0.000000
   32       26.474281   0.000000
   33       26.474281   0.000000
   34       29.009982   0.000000
   35       29.380121   0.000000
   36       29.801235   0.000000
   37       29.833149   0.000000
   38       29.833149   0.000000
   39       34.939940   0.000000
   40       35.828957   0.000000
 
  0.2000000E+00  0.2000000E+00  0.0000000E+00  0.9600000E-01
    1       -0.935260   1.000000
    2        2.299200   1.000000
    3        2.299200   1.000000
    4        2.449425   1.000000
    5        3.028605   1.000000
    6        3.031299   1.000000
    7        3.031299   1.000000
    8        4.725238   1.000000
    9        5.430436   1.000000
   10        5.437704   1.000000
   11        5.980899   1.000000
   12        6.003590   1.000001
   13        6.003590   1.000001
   14        6.368695   1.011327
   15        6.812950   0.233695
   16        7.095815  -0.016472
   17        7.335217  -0.000126
   18        7.335217  -0.000126
   19        7.623897  -0.000000
   20        7.623897  -0.000000
   21        7.736067  -0.000000
   22       10.066378  -0.000000
   23       10.066378  -0.000000
   24       13.119065   0.000000
   25       17.342594   0.000000
   26       19.187403   0.000000
   27       21.194561   0.000000
   28       21.194561   0.000000
   29       21.905139   0.000000
   30       21.905139   0.000000
   31       22.958487   0.000000
   32       22.958487   0.000000
   33       24.860778   0.000000
   34       28.443334   0.000000
   35       29.714271   0.000000
   36       30.165248   0.000000
   37       31.519766   0.000000
   38       31.519766   0.000000
   39       34.343289   0.000000
   40       36.095538   0.000000
 
  0.4000000E+00  0.2000000E+00  0.0000000E+00  0.1920000E+00
    1        0.501577   1.000000
    2        2.025335   1.000000
    3        3.075107   1.000000
    4        3.127776   1.000000
    5        3.536496   1.000000
    6        3.548477   1.000000
    7        3.701475   1.000000
    8        4.197077   1.000000
    9        4.496651   1.000000
   10        4.773091   1.000000
   11        5.186269   1.000000
   12        5.366252   1.000000
   13        5.930605   1.000000
   14        6.238330   1.000973
   15        6.559076   1.016977
   16        6.669591   0.798784
   17        6.770883   0.395788
   18        6.838568   0.151118
   19        7.255234  -0.000941
   20        7.614276  -0.000000
   21        7.622877  -0.000000
   22        8.109194  -0.000000
   23       12.251485   0.000000
   24       14.568581   0.000000
   25       15.661852   0.000000
   26       18.691359   0.000000
   27       19.458092   0.000000
   28       20.378061   0.000000
   29       22.817373   0.000000
   30       23.803711   0.000000
   31       24.047482   0.000000
   32       24.254536   0.000000
   33       26.145603   0.000000
   34       26.608435   0.000000
   35       27.009158   0.000000
   36       32.245177   0.000000
   37       32.320077   0.000000
   38       33.323027   0.000000
   39       33.547632   0.000000
   40       36.188644   0.000000
 
  0.4000000E+00  0.4000000E+00  0.0000000E+00  0.9600000E-01
    1        1.691265   1.000000
    2        2.933474   1.000000
    3        2.933474   1.000000
    4        3.433003   1.000000
    5        3.813091   1.000000
    6        3.938487   1.000000
    7        3.938487   1.000000
    8        4.168642   1.000000
    9        4.373376   1.000000
   10        4.373376   1.000000
   11        4.446960   1.000000
   12        5.017736   1.000000
   13        5.983584   1.000000
   14        6.168929   1.000175
   15        6.214548   1.000557
   16        6.300802   1.003601
   17        6.300802   1.003601
   18        6.805835   0.259100
   19        6.805835   0.259100
   20        7.059857  -0.024498
   21        8.179444  -0.000000
   22        9.633945  -0.000000
   23        9.633945  -0.000000
   24       11.612246  -0.000000
   25       17.802083   0.000000
   26       20.295457   0.000000
   27       20.590143   0.000000
   28       20.590143   0.000000
   29       21.806938   0.000000
   30       21.806938   0.000000
   31       23.164615   0.000000
   32       23.861196   0.000000
   33       28.086604   0.000000
   34       28.086604   0.000000
   35       29.287856   0.000000
   36       30.839289   0.000000
   37       33.276686   0.000000
   38       34.927506   0.000000
   39       35.864243   0.000000
   40       35.864243   0.000000
 
  0.2000000E+00  0.2000000E+00  0.2000000E+00  0.6400000E-01
    1       -0.443441   1.000000
    2        2.561753   1.000000
    3        2.561753   1.000000
    4        2.561753   1.000000
    5        3.215903   1.000000
    6        3.215903   1.000000
    7        3.215903   1.000000
    8        4.678526   1.000000
    9        5.425446   1.000000
   10        5.425446   1.000000
   11        5.575795   1.000000
   12        5.575795   1.000000
   13        5.575795   1.000000
   14        6.640921   0.883840
   15        6.640921   0.883840
   16        6.704992   0.669714
   17        6.704992   0.669714
   18        6.704992   0.669714
   19        7.826959  -0.000000
   20        7.826959  -0.000000
   21        7.826959  -0.000000
   22       10.878662  -0.000000
   23       10.878662  -0.000000
   24       10.878662  -0.000000
   25       18.458407   0.000000
   26       18.458407   0.000000
   27       18.458407   0.000000
   28       21.859568   0.000000
   29       21.859568   0.000000
   30       21.859568   0.000000
   31       25.634225   0.000000
   32       25.660142   0.000000
   33       25.660142   0.000000
   34       25.660142   0.000000
   35       30.314945   0.000000
   36       30.314945   0.000000
   37       30.314945   0.000000
   38       31.078717   0.000000
   39       34.809494   0.000000
   40       34.809494   0.000000
 
  0.4000000E+00  0.2000000E+00  0.2000000E+00  0.1920000E+00
    1        0.854776   1.000000
    2        2.223488   1.000000
    3        3.151648   1.000000
    4        3.151648   1.000000
    5        3.604116   1.000000
    6        3.604116   1.000000
    7        3.762366   1.000000
    8        4.341556   1.000000
    9        4.773525   1.000000
   10        4.773525   1.000000
   11        5.023508   1.000000
   12        5.294383   1.000000
   13        5.582499   1.000000
   14        6.056268   1.000006
   15        6.275109   1.002162
   16        6.275109   1.002162
   17        6.808700   0.248753
   18        7.180337  -0.004420
   19        7.657465  -0.000000
   20        7.659101  -0.000000
   21        7.659101  -0.000000
   22        8.242994  -0.000000
   23       12.348429   0.000000
   24       12.348429   0.000000
   25       15.917932   0.000000
   26       15.917932   0.000000
   27       20.311765   0.000000
   28       22.645785   0.000000
   29       22.645785   0.000000
   30       22.725924   0.000000
   31       24.905815   0.000000
   32       24.905815   0.000000
   33       26.547383   0.000000
   34       27.874907   0.000000
   35       29.606082   0.000000
   36       31.109806   0.000000
   37       31.164708   0.000000
   38       33.398303   0.000000
   39       33.398303   0.000000
   40       34.707108   0.000000
 
  0.4000000E+00  0.4000000E+00  0.2000000E+00  0.1920000E+00
    1        1.695290   1.000000
    2        2.563652   1.000000
    3        2.563652   1.000000
    4        2.866280   1.000000
    5        4.111988   1.000000
    6        4.315776   1.000000
    7        4.315776   1.000000
    8        4.667921   1.000000
    9        4.845174   1.000000
   10        4.845174   1.000000
   11        5.024779   1.000000
   12        5.108268   1.000000
   13        5.435461   1.000000
   14        5.732584   1.000000
   15        5.732584   1.000000
   16        5.753921   1.000000
   17        6.878826   0.053363
   18        7.414186  -0.000012
   19        7.414186  -0.000012
   20        7.457439  -0.000003
   21        7.945436  -0.000000
   22        9.478726  -0.000000
   23        9.478726  -0.000000
   24       11.119132  -0.000000
   25       15.626334   0.000000
   26       17.488916   0.000000
   27       17.488916   0.000000
   28       19.769084   0.000000
   29       23.840974   0.000000
   30       25.597736   0.000000
   31       25.597736   0.000000
   32       27.652040   0.000000
   33       28.553131   0.000000
   34       28.553131   0.000000
   35       29.815449   0.000000
   36       30.789795   0.000000
   37       32.430646   0.000000
   38       33.698823   0.000000
   39       33.698823   0.000000
   40       35.286291   0.000000
 
  0.4000000E+00  0.4000000E+00  0.4000000E+00  0.6400000E-01
    1        1.797876   1.000000
    2        2.187189   1.000000
    3        2.187189   1.000000
    4        2.187189   1.000000
    5        4.757315   1.000000
    6        4.757315   1.000000
    7        4.757315   1.000000
    8        5.110822   1.000000
    9        5.110822   1.000000
   10        5.264600   1.000000
   11        5.264600   1.000000
   12        5.264600   1.000000
   13        5.826285   1.000000
   14        5.826285   1.000000
   15        5.826285   1.000000
   16        5.921558   1.000000
   17        7.516924  -0.000000
   18        7.516924  -0.000000
   19        7.743725  -0.000000
   20        7.743725  -0.000000
   21        7.743725  -0.000000
   22        9.059228  -0.000000
   23        9.059228  -0.000000
   24        9.059228  -0.000000
   25       15.424992   0.000000
   26       15.424992   0.000000
   27       15.424992   0.000000
   28       17.003607   0.000000
   29       27.826179   0.000000
   30       27.826179   0.000000
   31       27.826179   0.000000
   32       29.096592   0.000000
   33       31.431552   0.000000
   34       31.431552   0.000000
   35       31.431552   0.000000
   36       31.868190   0.000000
   37       31.868190   0.000000
   38       31.868190   0.000000
   39       33.982794   0.000000
   40       33.982794   0.000000
