 vasp.6.2.0 18Jan21 (build Mar 17 2021 09:06:54) complex                        
  
 executed on             LinuxIFC date 2021.09.09  09:02:22
 serial version


--------------------------------------------------------------------------------------------------------


 INCAR:
   ENCUT = 240.000000
   SIGMA = 0.200000
   EDIFF = 1.00e-06
   GGA = PE
   PREC = normal
   IBRION = -1
   ICHARG = 1
   ISMEAR = 1
   KPAR = 1
   NBANDS = 40
   NSW = 0
   NCORE = 1
   LCHARG = .TRUE.

 POTCAR:    PAW_PBE Fe 06Sep2000                  
 POTCAR:    PAW_PBE Fe 06Sep2000                  
   SHA256 =  cd5a22d9368cc8b5cc476bea79732366149640da08ac9009b0e1b7fc627eea28 Fe/POTCAR             
   COPYR  = (c) Copyright 06Sep2000 Georg Kresse                                                    
   COPYR  = This file is part of the software VASP. Any use, copying, and all other rights are regul
   COPYR  = If you do not have a valid VASP license, you may not use, copy or distribute this file. 
   VRHFIN =Fe:  d7 s1                                                                               
   LEXCH  = PE                                                                                      
   EATOM  =   594.3153 eV,   43.6809 Ry                                                             
                                                                                                    
   TITEL  = PAW_PBE Fe 06Sep2000                                                                    
   LULTRA =        F    use ultrasoft PP ?                                                          
   IUNSCR =        1    unscreen: 0-lin 1-nonlin 2-no                                               
   RPACOR =    2.000    partial core radius                                                         
   POMASS =   55.847; ZVAL   =    8.000    mass and valenz                                          
   RCORE  =    2.300    outmost cutoff radius                                                       
   RWIGS  =    2.460; RWIGS  =    1.302    wigner-seitz radius (au A)                               
   ENMAX  =  267.882; ENMIN  =  200.911 eV                                                          
   RCLOC  =    1.701    cutoff for local pot                                                        
   LCOR   =        T    correct aug charges                                                         
   LPAW   =        T    paw PP                                                                      
   EAUG   =  511.368                                                                                
   DEXC   =    0.000                                                                                
   RMAX   =    2.356    core radius for proj-oper                                                   
   RAUG   =    1.300    factor for augmentation sphere                                              
   RDEP   =    2.442    radius for radial grids                                                     
   RDEPT  =    1.890    core radius for aug-charge                                                  
                                                                                                    
   Atomic configuration                                                                             
    9 entries                                                                                       
     n  l   j            E        occ.                                                              
     1  0  0.50     -6993.8440   2.0000                                                             
     2  0  0.50      -814.6047   2.0000                                                             
     2  1  1.50      -693.3689   6.0000                                                             
     3  0  0.50       -89.4732   2.0000                                                             
     3  1  1.50       -55.6373   6.0000                                                             
     3  2  2.50        -3.8151   7.0000                                                             
     4  0  0.50        -4.2551   1.0000                                                             
     4  1  1.50        -3.4015   0.0000                                                             
     4  3  2.50        -1.3606   0.0000                                                             
   Description                                                                                      
     l       E           TYP  RCUT    TYP  RCUT                                                     
     2     -3.8151135     23  2.300                                                                 
     2     -5.1756961     23  2.300                                                                 
     0     -4.2550963     23  2.300                                                                 
     0      7.2035603     23  2.300                                                                 
     1     -2.7211652     23  2.300                                                                 
     1     18.4316424     23  2.300                                                                 
  local pseudopotential read in
  partial core-charges read in
  partial kinetic energy density read in
  atomic valenz-charges read in
  non local Contribution for L=           2  read in
    real space projection operators read in
  non local Contribution for L=           2  read in
    real space projection operators read in
  non local Contribution for L=           0  read in
    real space projection operators read in
  non local Contribution for L=           0  read in
    real space projection operators read in
  non local Contribution for L=           1  read in
    real space projection operators read in
  non local Contribution for L=           1  read in
    real space projection operators read in
    PAW grid and wavefunctions read in
 
   number of l-projection  operators is LMAX  =           6
   number of lm-projection operators is LMMAX =          18
 
  PAW_PBE Fe 06Sep2000                  :
 energy of atom  1       EATOM= -594.3153
 kinetic energy error for atom=    0.1044 (will be added to EATOM!!)
 
 
 POSCAR: Fe
  positions in cartesian coordinates
  No initial velocities read in
 exchange correlation table for  LEXCH =        8
   RHO(1)=    0.500       N(1)  =     2000
   RHO(2)=  100.500       N(2)  =     4000
 


--------------------------------------------------------------------------------------------------------


 ion  position               nearest neighbor table
   1  0.000  0.000  0.000-   2 2.44   3 2.44   4 2.44   3 2.44   4 2.44   2 2.44   4 2.44   4 2.44
                             2 2.44   3 2.44   3 2.44   2 2.44
   2  0.500  0.500  0.000-   1 2.44   3 2.44   4 2.44   3 2.44   4 2.44   1 2.44   3 2.44   3 2.44
                             1 2.44   4 2.44   4 2.44   1 2.44
   3  0.500  0.000  0.500-   1 2.44   2 2.44   4 2.44   1 2.44   2 2.44   2 2.44   4 2.44   2 2.44
                             1 2.44   4 2.44   1 2.44   4 2.44
   4  0.000  0.500  0.500-   1 2.44   2 2.44   3 2.44   1 2.44   2 2.44   1 2.44   3 2.44   1 2.44
                             2 2.44   3 2.44   2 2.44   3 2.44
 
  LATTYP: Found a simple cubic cell.
 ALAT       =     3.4450830000
  
  Lattice vectors:
  
 A1 = (   3.4450830000,   0.0000000000,   0.0000000000)
 A2 = (   0.0000000000,   3.4450830000,   0.0000000000)
 A3 = (   0.0000000000,   0.0000000000,   3.4450830000)


Analysis of symmetry for initial positions (statically):
=====================================================================
 Subroutine PRICEL returns following result:
 
  LATTYP: Found a face centered cubic cell.
 ALAT       =     3.4450830000
  
  Lattice vectors:
  
 A1 = (   1.7225415000,  -1.7225415000,   0.0000000000)
 A2 = (   1.7225415000,   0.0000000000,   1.7225415000)
 A3 = (   0.0000000000,  -1.7225415000,   1.7225415000)
 
   4 primitive cells build up your supercell.
 

 Routine SETGRP: Setting up the symmetry group for a 
 simple cubic supercell.


 Subroutine GETGRP returns: Found 48 space group operations
 (whereof 48 operations were pure point group operations)
 out of a pool of 48 trial point group operations.


The static configuration has the point symmetry O_h .


Analysis of symmetry for dynamics (positions and initial velocities):
=====================================================================
 Subroutine PRICEL returns following result:
 
  LATTYP: Found a face centered cubic cell.
 ALAT       =     3.4450830000
  
  Lattice vectors:
  
 A1 = (   1.7225415000,  -1.7225415000,   0.0000000000)
 A2 = (   1.7225415000,   0.0000000000,   1.7225415000)
 A3 = (   0.0000000000,  -1.7225415000,   1.7225415000)
 
   4 primitive cells build up your supercell.
 

 Routine SETGRP: Setting up the symmetry group for a 
 simple cubic supercell.


 Subroutine GETGRP returns: Found 48 space group operations
 (whereof 48 operations were pure point group operations)
 out of a pool of 48 trial point group operations.


The dynamic configuration has the point symmetry O_h .


 Subroutine INISYM returns: Found 48 space group operations
 (whereof 48 operations are pure point group operations),
 and found     4 'primitive' translations


----------------------------------------------------------------------------------------

                                     Primitive cell                                     

  volume of cell :      10.2221

  direct lattice vectors                    reciprocal lattice vectors
     1.722541500 -1.722541500  0.000000000     0.290268769 -0.290268769 -0.290268769
     1.722541500  0.000000000  1.722541500     0.290268769  0.290268769  0.290268769
     0.000000000 -1.722541500  1.722541500    -0.290268769 -0.290268769  0.290268769

  length of vectors
     2.436041551  2.436041551  2.436041551     0.502760255  0.502760255  0.502760255

  position of ions in fractional coordinates (direct lattice)
     0.000000000  0.000000000  0.000000000

  ion indices of the primitive-cell ions
   primitive index   ion index
                 1           1

----------------------------------------------------------------------------------------

 
 
 KPOINTS: KPOINTS created by Atomic Simulation Env

Automatic generation of k-mesh.
 Grid dimensions read from file:
 generate k-points for:    5    5    5

 Generating k-lattice:

  Cartesian coordinates                     Fractional coordinates (reciprocal lattice)
     0.058053754  0.000000000  0.000000000     0.200000000  0.000000000  0.000000000
     0.000000000  0.058053754  0.000000000     0.000000000  0.200000000  0.000000000
     0.000000000  0.000000000  0.058053754     0.000000000  0.000000000  0.200000000

  Length of vectors
     0.058053754  0.058053754  0.058053754

  Shift w.r.t. Gamma in fractional coordinates (k-lattice)
     0.000000000  0.000000000  0.000000000

 
 Subroutine IBZKPT returns following result:
 ===========================================
 
 Found     10 irreducible k-points:
 
 Following reciprocal coordinates:
            Coordinates               Weight
  0.000000  0.000000  0.000000      1.000000
  0.200000  0.000000  0.000000      6.000000
  0.400000  0.000000  0.000000      6.000000
  0.200000  0.200000  0.000000     12.000000
  0.400000  0.200000  0.000000     24.000000
  0.400000  0.400000  0.000000     12.000000
  0.200000  0.200000  0.200000      8.000000
  0.400000  0.200000  0.200000     24.000000
  0.400000  0.400000  0.200000     24.000000
  0.400000  0.400000  0.400000      8.000000
 
 Following cartesian coordinates:
            Coordinates               Weight
  0.000000  0.000000  0.000000      1.000000
  0.058054  0.000000  0.000000      6.000000
  0.116108  0.000000  0.000000      6.000000
  0.058054  0.058054  0.000000     12.000000
  0.116108  0.058054  0.000000     24.000000
  0.116108  0.116108  0.000000     12.000000
  0.058054  0.058054  0.058054      8.000000
  0.116108  0.058054  0.058054     24.000000
  0.116108  0.116108  0.058054     24.000000
  0.116108  0.116108  0.116108      8.000000
 


--------------------------------------------------------------------------------------------------------




 Dimension of arrays:
   k-points           NKPTS =     10   k-points in BZ     NKDIM =     10   number of bands    NBANDS=     40
   number of dos      NEDOS =    301   number of ions     NIONS =      4
   non local maximal  LDIM  =      6   non local SUM 2l+1 LMDIM =     18
   total plane-waves  NPLWV =   2744
   max r-space proj   IRMAX =      1   max aug-charges    IRDMAX=   2590
   dimension x,y,z NGX =    14 NGY =   14 NGZ =   14
   dimension x,y,z NGXF=    28 NGYF=   28 NGZF=   28
   support grid    NGXF=    28 NGYF=   28 NGZF=   28
   ions per type =               4
   NGX,Y,Z   is equivalent  to a cutoff of   6.76,  6.76,  6.76 a.u.
   NGXF,Y,Z  is equivalent  to a cutoff of  13.51, 13.51, 13.51 a.u.

 SYSTEM =  unknown system                          
 POSCAR =  Fe                                      

 Startparameter for this run:
   NWRITE =      2    write-flag & timer
   PREC   = normal    normal or accurate (medium, high low for compatibility)
   ISTART =      0    job   : 0-new  1-cont  2-samecut
   ICHARG =      1    charge: 1-file 2-atom 10-const
   ISPIN  =      1    spin polarized calculation?
   LNONCOLLINEAR =      F non collinear calculations
   LSORBIT =      F    spin-orbit coupling
   INIWAV =      1    electr: 0-lowe 1-rand  2-diag
   LASPH  =      F    aspherical Exc in radial PAW
   METAGGA=      F    non-selfconsistent MetaGGA calc.

 Electronic Relaxation 1
   ENCUT  =  240.0 eV  17.64 Ry    4.20 a.u.   4.35  4.35  4.35*2*pi/ulx,y,z
   ENINI  =  240.0     initial cutoff
   ENAUG  =  511.4 eV  augmentation charge cutoff
   NELM   =     60;   NELMIN=  2; NELMDL= -5     # of ELM steps 
   EDIFF  = 0.1E-05   stopping-criterion for ELM
   LREAL  =      F    real-space projection
   NLSPLINE    = F    spline interpolate recip. space projectors
   LCOMPAT=      F    compatible to vasp.4.4
   GGA_COMPAT  = T    GGA compatible to vasp.4.4-vasp.4.6
   LMAXPAW     = -100 max onsite density
   LMAXMIX     =    2 max onsite mixed and CHGCAR
   VOSKOWN=      0    Vosko Wilk Nusair interpolation
   ROPT   =    0.00000
 Ionic relaxation
   EDIFFG = 0.1E-04   stopping-criterion for IOM
   NSW    =      0    number of steps for IOM
   NBLOCK =      1;   KBLOCK =      1    inner block; outer block 
   IBRION =     -1    ionic relax: 0-MD 1-quasi-New 2-CG
   NFREE  =      0    steps in history (QN), initial steepest desc. (CG)
   ISIF   =      2    stress and relaxation
   IWAVPR =      0    prediction:  0-non 1-charg 2-wave 3-comb
   ISYM   =      2    0-nonsym 1-usesym 2-fastsym
   LCORR  =      T    Harris-Foulkes like correction to forces

   POTIM  = 0.5000    time-step for ionic-motion
   TEIN   =    0.0    initial temperature
   TEBEG  =    0.0;   TEEND  =   0.0 temperature during run
   SMASS  =  -3.00    Nose mass-parameter (am)
   estimated Nose-frequenzy (Omega)   =  0.10E-29 period in steps = 0.13E+47 mass=  -0.271E-27a.u.
   SCALEE = 1.0000    scale energy and forces
   NPACO  =    256;   APACO  = 16.0  distance and # of slots for P.C.
   PSTRESS=    0.0 pullay stress

  Mass of Ions in am
   POMASS =  55.85
  Ionic Valenz
   ZVAL   =   8.00
  Atomic Wigner-Seitz radii
   RWIGS  =  -1.00
  virtual crystal weights 
   VCA    =   1.00
   NELECT =      32.0000    total number of electrons
   NUPDOWN=      -1.0000    fix difference up-down

 DOS related values:
   EMIN   =  10.00;   EMAX   =-10.00  energy-range for DOS
   EFERMI =   0.00
   ISMEAR =     1;   SIGMA  =   0.20  broadening in eV -4-tet -1-fermi 0-gaus

 Electronic relaxation 2 (details)
   IALGO  =     38    algorithm
   LDIAG  =      T    sub-space diagonalisation (order eigenvalues)
   LSUBROT=      F    optimize rotation matrix (better conditioning)
   TURBO    =      0    0=normal 1=particle mesh
   IRESTART =      0    0=no restart 2=restart with 2 vectors
   NREBOOT  =      0    no. of reboots
   NMIN     =      0    reboot dimension
   EREF     =   0.00    reference energy to select bands
   IMIX   =      4    mixing-type and parameters
     AMIX     =   0.40;   BMIX     =  1.00
     AMIX_MAG =   1.60;   BMIX_MAG =  1.00
     AMIN     =   0.10
     WC   =   100.;   INIMIX=   1;  MIXPRE=   1;  MAXMIX= -45

 Intra band minimization:
   WEIMIN = 0.0000     energy-eigenvalue tresh-hold
   EBREAK =  0.62E-08  absolut break condition
   DEPER  =   0.30     relativ break condition  

   TIME   =   0.40     timestep for ELM

  volume/ion in A,a.u.               =      10.22        68.98
  Fermi-wavevector in a.u.,A,eV,Ry     =   1.508661  2.850957 30.967669  2.276059
  Thomas-Fermi vector in A             =   2.619086
 
 Write flags
   LWAVE        =      T    write WAVECAR
   LDOWNSAMPLE  =      F    k-point downsampling of WAVECAR
   LCHARG       =      T    write CHGCAR
   LVTOT        =      F    write LOCPOT, total local potential
   LVHAR        =      F    write LOCPOT, Hartree potential only
   LELF         =      F    write electronic localiz. function (ELF)
   LORBIT       =      0    0 simple, 1 ext, 2 COOP (PROOUT), +10 PAW based schemes


 Dipole corrections
   LMONO  =      F    monopole corrections only (constant potential shift)
   LDIPOL =      F    correct potential (dipole corrections)
   IDIPOL =      0    1-x, 2-y, 3-z, 4-all directions 
   EPSILON=  1.0000000 bulk dielectric constant

 Exchange correlation treatment:
   GGA     =    PE    GGA type
   LEXCH   =     8    internal setting for exchange type
   VOSKOWN=      0    Vosko Wilk Nusair interpolation
   LHFCALC =     F    Hartree Fock is set to
   LHFONE  =     F    Hartree Fock one center treatment
   AEXX    =    0.0000 exact exchange contribution

 Linear response parameters
   LEPSILON=     F    determine dielectric tensor
   LRPA    =     F    only Hartree local field effects (RPA)
   LNABLA  =     F    use nabla operator in PAW spheres
   LVEL    =     F    velocity operator in full k-point grid
   LINTERFAST=   F  fast interpolation
   KINTER  =     0    interpolate to denser k-point grid
   CSHIFT  =0.1000    complex shift for real part using Kramers Kronig
   OMEGAMAX=  -1.0    maximum frequency
   DEG_THRESHOLD= 0.2000000E-02 threshold for treating states as degnerate
   RTIME   =   -0.100 relaxation time in fs
  (WPLASMAI=    0.000 imaginary part of plasma frequency in eV, 0.658/RTIME)
   DFIELD  = 0.0000000 0.0000000 0.0000000 field for delta impulse in time
 
 Orbital magnetization related:
   ORBITALMAG=     F  switch on orbital magnetization
   LCHIMAG   =     F  perturbation theory with respect to B field
   DQ        =  0.001000  dq finite difference perturbation B field
   LLRAUG    =     F  two centre corrections for induced B field



--------------------------------------------------------------------------------------------------------


 Static calculation
 charge density and potential will be updated during run
 non-spin polarized calculation
 Variant of blocked Davidson
 Davidson routine will perform the subspace rotation
 perform sub-space diagonalisation
    after iterative eigenvector-optimisation
 modified Broyden-mixing scheme, WC =      100.0
 initial mixing is a Kerker type mixing with AMIX =  0.4000 and BMIX =      1.0000
 Hartree-type preconditioning will be used
 using additional bands           24
 reciprocal scheme for non local part
 use partial core corrections
 calculate Harris-corrections to forces 
   (improved forces if not selfconsistent)
 use gradient corrections 
 use of overlap-Matrix (Vanderbilt PP)
 Methfessel and Paxton  Order N= 1 SIGMA  =   0.20


--------------------------------------------------------------------------------------------------------


  energy-cutoff  :      240.00
  volume of cell :       40.89
      direct lattice vectors                 reciprocal lattice vectors
     3.445083000  0.000000000  0.000000000     0.290268769  0.000000000  0.000000000
     0.000000000  3.445083000  0.000000000     0.000000000  0.290268769  0.000000000
     0.000000000  0.000000000  3.445083000     0.000000000  0.000000000  0.290268769

  length of vectors
     3.445083000  3.445083000  3.445083000     0.290268769  0.290268769  0.290268769


 
 k-points in units of 2pi/SCALE and weight: KPOINTS created by Atomic Simulation Env
   0.00000000  0.00000000  0.00000000       0.008
   0.05805375  0.00000000  0.00000000       0.048
   0.11610751  0.00000000  0.00000000       0.048
   0.05805375  0.05805375  0.00000000       0.096
   0.11610751  0.05805375  0.00000000       0.192
   0.11610751  0.11610751  0.00000000       0.096
   0.05805375  0.05805375  0.05805375       0.064
   0.11610751  0.05805375  0.05805375       0.192
   0.11610751  0.11610751  0.05805375       0.192
   0.11610751  0.11610751  0.11610751       0.064
 
 k-points in reciprocal lattice and weights: KPOINTS created by Atomic Simulation Env
   0.00000000  0.00000000  0.00000000       0.008
   0.20000000  0.00000000  0.00000000       0.048
   0.40000000  0.00000000  0.00000000       0.048
   0.20000000  0.20000000  0.00000000       0.096
   0.40000000  0.20000000  0.00000000       0.192
   0.40000000  0.40000000  0.00000000       0.096
   0.20000000  0.20000000  0.20000000       0.064
   0.40000000  0.20000000  0.20000000       0.192
   0.40000000  0.40000000  0.20000000       0.192
   0.40000000  0.40000000  0.40000000       0.064
 
 position of ions in fractional coordinates (direct lattice) 
   0.00000000  0.00000000  0.00000000
   0.50000000  0.50000000  0.00000000
   0.50000000  0.00000000  0.50000000
   0.00000000  0.50000000  0.50000000
 
 position of ions in cartesian coordinates  (Angst):
   0.00000000  0.00000000  0.00000000
   1.72254150  1.72254150  0.00000000
   1.72254150  0.00000000  1.72254150
   0.00000000  1.72254150  1.72254150
 


--------------------------------------------------------------------------------------------------------


 k-point   1 :   0.0000 0.0000 0.0000  plane waves:     341
 k-point   2 :   0.2000 0.0000 0.0000  plane waves:     349
 k-point   3 :   0.4000 0.0000 0.0000  plane waves:     344
 k-point   4 :   0.2000 0.2000 0.0000  plane waves:     342
 k-point   5 :   0.4000 0.2000 0.0000  plane waves:     348
 k-point   6 :   0.4000 0.4000 0.0000  plane waves:     354
 k-point   7 :   0.2000 0.2000 0.2000  plane waves:     347
 k-point   8 :   0.4000 0.2000 0.2000  plane waves:     345
 k-point   9 :   0.4000 0.4000 0.2000  plane waves:     341
 k-point  10 :   0.4000 0.4000 0.4000  plane waves:     338

 maximum number of plane-waves:       354
 maximum index in each direction: 
   IXMAX=    4   IYMAX=    4   IZMAX=    4
   IXMIN=   -4   IYMIN=   -4   IZMIN=   -4


 total amount of memory used by VASP MPI-rank0    34536. kBytes
=======================================================================

   base      :      30000. kBytes
   nonl-proj :        532. kBytes
   grid      :       1216. kBytes
   one-center:         62. kBytes
   wavefun   :       2726. kBytes
 
     INWAV:  cpu time    0.0000: real time    0.0000
 Broyden mixing: mesh for mixing (old mesh)
   NGX =  9   NGY =  9   NGZ =  9
  (NGX  = 28   NGY  = 28   NGZ  = 28)
  gives a total of    729 points

 initial charge density was supplied:
 charge density of overlapping atoms calculated
 number of electron      32.0000000 magnetization 
 keeping initial charge density in first step


--------------------------------------------------------------------------------------------------------


 Maximum index for augmentation-charges         2325 (set IRDMAX)


--------------------------------------------------------------------------------------------------------


 First call to EWALD:  gamma=   0.514
 Maximum number of real-space cells 3x 3x 3
 Maximum number of reciprocal cells 3x 3x 3

    FEWALD:  cpu time    0.0009: real time    0.0009


--------------------------------------- Iteration      1(   1)  ---------------------------------------


    POTLOK:  cpu time    0.0050: real time    0.0050
    SETDIJ:  cpu time    0.0040: real time    0.0040
     EDDAV:  cpu time    0.1340: real time    0.1545
       DOS:  cpu time    0.0009: real time    0.0009
    --------------------------------------------
      LOOP:  cpu time    0.1439: real time    0.1645

 eigenvalue-minimisations  :   872
 total energy-change (2. order) : 0.1236374E+03  (-0.7442452E+03)
 number of electron      32.0000000 magnetization 
 augmentation part       32.0000000 magnetization 

 Free energy of the ion-electron system (eV)
  ---------------------------------------------------
  alpha Z        PSCENC =       270.44909666
  Ewald energy   TEWEN  =     -2452.97223925
  -Hartree energ DENC   =      -414.53988404
  -exchange      EXHF   =         0.00000000
  -V(xc)+E(xc)   XCENC  =        16.92970068
  PAW double counting   =      2219.38341365    -2250.19294531
  entropy T*S    EENTRO =        -0.02596029
  eigenvalues    EBANDS =       357.76261673
  atomic energy  EATOM  =      2376.84357397
  Solvation  Ediel_sol  =         0.00000000
  ---------------------------------------------------
  free energy    TOTEN  =       123.63737282 eV

  energy without entropy =      123.66333311  energy(sigma->0) =      123.64602625


--------------------------------------------------------------------------------------------------------




--------------------------------------- Iteration      1(   2)  ---------------------------------------


     EDDAV:  cpu time    0.1100: real time    0.1100
       DOS:  cpu time    0.0010: real time    0.0010
    --------------------------------------------
      LOOP:  cpu time    0.1110: real time    0.1110

 eigenvalue-minimisations  :   848
 total energy-change (2. order) :-0.1541036E+03  (-0.1352952E+03)
 number of electron      32.0000000 magnetization 
 augmentation part       32.0000000 magnetization 

 Free energy of the ion-electron system (eV)
  ---------------------------------------------------
  alpha Z        PSCENC =       270.44909666
  Ewald energy   TEWEN  =     -2452.97223925
  -Hartree energ DENC   =      -414.53988404
  -exchange      EXHF   =         0.00000000
  -V(xc)+E(xc)   XCENC  =        16.92970068
  PAW double counting   =      2219.38341365    -2250.19294531
  entropy T*S    EENTRO =        -0.01040319
  eigenvalues    EBANDS =       203.64341942
  atomic energy  EATOM  =      2376.84357397
  Solvation  Ediel_sol  =         0.00000000
  ---------------------------------------------------
  free energy    TOTEN  =       -30.46626740 eV

  energy without entropy =      -30.45586421  energy(sigma->0) =      -30.46279967


--------------------------------------------------------------------------------------------------------




--------------------------------------- Iteration      1(   3)  ---------------------------------------


     EDDAV:  cpu time    0.1176: real time    0.1178
       DOS:  cpu time    0.0010: real time    0.0010
    --------------------------------------------
      LOOP:  cpu time    0.1186: real time    0.1188

 eigenvalue-minimisations  :   912
 total energy-change (2. order) :-0.8024759E+01  (-0.7547583E+01)
 number of electron      32.0000000 magnetization 
 augmentation part       32.0000000 magnetization 

 Free energy of the ion-electron system (eV)
  ---------------------------------------------------
  alpha Z        PSCENC =       270.44909666
  Ewald energy   TEWEN  =     -2452.97223925
  -Hartree energ DENC   =      -414.53988404
  -exchange      EXHF   =         0.00000000
  -V(xc)+E(xc)   XCENC  =        16.92970068
  PAW double counting   =      2219.38341365    -2250.19294531
  entropy T*S    EENTRO =        -0.03156496
  eigenvalues    EBANDS =       195.63982228
  atomic energy  EATOM  =      2376.84357397
  Solvation  Ediel_sol  =         0.00000000
  ---------------------------------------------------
  free energy    TOTEN  =       -38.49102630 eV

  energy without entropy =      -38.45946134  energy(sigma->0) =      -38.48050465


--------------------------------------------------------------------------------------------------------




--------------------------------------- Iteration      1(   4)  ---------------------------------------


     EDDAV:  cpu time    0.1225: real time    0.1225
       DOS:  cpu time    0.0010: real time    0.0010
    --------------------------------------------
      LOOP:  cpu time    0.1235: real time    0.1235

 eigenvalue-minimisations  :   872
 total energy-change (2. order) :-0.6085540E-01  (-0.6081631E-01)
 number of electron      32.0000000 magnetization 
 augmentation part       32.0000000 magnetization 

 Free energy of the ion-electron system (eV)
  ---------------------------------------------------
  alpha Z        PSCENC =       270.44909666
  Ewald energy   TEWEN  =     -2452.97223925
  -Hartree energ DENC   =      -414.53988404
  -exchange      EXHF   =         0.00000000
  -V(xc)+E(xc)   XCENC  =        16.92970068
  PAW double counting   =      2219.38341365    -2250.19294531
  entropy T*S    EENTRO =        -0.03156007
  eigenvalues    EBANDS =       195.57896199
  atomic energy  EATOM  =      2376.84357397
  Solvation  Ediel_sol  =         0.00000000
  ---------------------------------------------------
  free energy    TOTEN  =       -38.55188171 eV

  energy without entropy =      -38.52032164  energy(sigma->0) =      -38.54136168


--------------------------------------------------------------------------------------------------------




--------------------------------------- Iteration      1(   5)  ---------------------------------------


     EDDAV:  cpu time    0.1137: real time    0.1137
       DOS:  cpu time    0.0010: real time    0.0010
    CHARGE:  cpu time    0.0072: real time    0.0072
    MIXING:  cpu time    0.0002: real time    0.0002
    --------------------------------------------
      LOOP:  cpu time    0.1221: real time    0.1222

 eigenvalue-minimisations  :   904
 total energy-change (2. order) :-0.5034128E-03  (-0.5034080E-03)
 number of electron      32.0000958 magnetization 
 augmentation part       14.0700048 magnetization 

 Broyden mixing:
  rms(total) = 0.25012E+01    rms(broyden)= 0.25005E+01
  rms(prec ) = 0.48123E+01
  weight for this iteration     100.00

 Free energy of the ion-electron system (eV)
  ---------------------------------------------------
  alpha Z        PSCENC =       270.44909666
  Ewald energy   TEWEN  =     -2452.97223925
  -Hartree energ DENC   =      -414.53988404
  -exchange      EXHF   =         0.00000000
  -V(xc)+E(xc)   XCENC  =        16.92970068
  PAW double counting   =      2219.38341365    -2250.19294531
  entropy T*S    EENTRO =        -0.03156031
  eigenvalues    EBANDS =       195.57845881
  atomic energy  EATOM  =      2376.84357397
  Solvation  Ediel_sol  =         0.00000000
  ---------------------------------------------------
  free energy    TOTEN  =       -38.55238512 eV

  energy without entropy =      -38.52082481  energy(sigma->0) =      -38.54186502


--------------------------------------------------------------------------------------------------------




--------------------------------------- Iteration      1(   6)  ---------------------------------------


    POTLOK:  cpu time    0.0049: real time    0.0049
    SETDIJ:  cpu time    0.0039: real time    0.0039
     EDDAV:  cpu time    0.1096: real time    0.1096
       DOS:  cpu time    0.0010: real time    0.0010
    CHARGE:  cpu time    0.0072: real time    0.0072
    MIXING:  cpu time    0.0003: real time    0.0003
    --------------------------------------------
      LOOP:  cpu time    0.1269: real time    0.1269

 eigenvalue-minimisations  :   872
 total energy-change (2. order) : 0.6173368E+01  (-0.1290307E+01)
 number of electron      32.0001014 magnetization 
 augmentation part       16.9041340 magnetization 

 Broyden mixing:
  rms(total) = 0.30065E+00    rms(broyden)= 0.29831E+00
  rms(prec ) = 0.63017E+00
  weight for this iteration     100.00

 eigenvalues of (default mixing * dielectric matrix)
  average eigenvalue GAMMA=   0.9173
  0.9173

 Free energy of the ion-electron system (eV)
  ---------------------------------------------------
  alpha Z        PSCENC =       270.44909666
  Ewald energy   TEWEN  =     -2452.97223925
  -Hartree energ DENC   =      -344.30967535
  -exchange      EXHF   =         0.00000000
  -V(xc)+E(xc)   XCENC  =        13.47126843
  PAW double counting   =      2516.31293890    -2537.46220343
  entropy T*S    EENTRO =        -0.05532267
  eigenvalues    EBANDS =       125.34354561
  atomic energy  EATOM  =      2376.84357397
  Solvation  Ediel_sol  =         0.00000000
  ---------------------------------------------------
  free energy    TOTEN  =       -32.37901713 eV

  energy without entropy =      -32.32369446  energy(sigma->0) =      -32.36057624


--------------------------------------------------------------------------------------------------------




--------------------------------------- Iteration      1(   7)  ---------------------------------------


    POTLOK:  cpu time    0.0047: real time    0.0047
    SETDIJ:  cpu time    0.0039: real time    0.0039
     EDDAV:  cpu time    0.1146: real time    0.1146
       DOS:  cpu time    0.0010: real time    0.0010
    CHARGE:  cpu time    0.0072: real time    0.0072
    MIXING:  cpu time    0.0002: real time    0.0002
    --------------------------------------------
      LOOP:  cpu time    0.1317: real time    0.1317

 eigenvalue-minimisations  :   920
 total energy-change (2. order) : 0.3133386E+00  (-0.9702016E-01)
 number of electron      32.0001018 magnetization 
 augmentation part       16.3415185 magnetization 

 Broyden mixing:
  rms(total) = 0.12740E+00    rms(broyden)= 0.12706E+00
  rms(prec ) = 0.27052E+00
  weight for this iteration     100.00

 eigenvalues of (default mixing * dielectric matrix)
  average eigenvalue GAMMA=   0.9198
  1.1112  0.7284

 Free energy of the ion-electron system (eV)
  ---------------------------------------------------
  alpha Z        PSCENC =       270.44909666
  Ewald energy   TEWEN  =     -2452.97223925
  -Hartree energ DENC   =      -352.27613376
  -exchange      EXHF   =         0.00000000
  -V(xc)+E(xc)   XCENC  =        13.92323440
  PAW double counting   =      2678.56870032    -2706.18999684
  entropy T*S    EENTRO =        -0.05112312
  eigenvalues    EBANDS =       139.63920904
  atomic energy  EATOM  =      2376.84357397
  Solvation  Ediel_sol  =         0.00000000
  ---------------------------------------------------
  free energy    TOTEN  =       -32.06567856 eV

  energy without entropy =      -32.01455544  energy(sigma->0) =      -32.04863752


--------------------------------------------------------------------------------------------------------




--------------------------------------- Iteration      1(   8)  ---------------------------------------


    POTLOK:  cpu time    0.0048: real time    0.0048
    SETDIJ:  cpu time    0.0040: real time    0.0040
     EDDAV:  cpu time    0.1244: real time    0.1244
       DOS:  cpu time    0.0010: real time    0.0010
    CHARGE:  cpu time    0.0071: real time    0.0071
    MIXING:  cpu time    0.0002: real time    0.0002
    --------------------------------------------
      LOOP:  cpu time    0.1416: real time    0.1416

 eigenvalue-minimisations  :   992
 total energy-change (2. order) : 0.4360547E-01  (-0.1002190E-02)
 number of electron      32.0001011 magnetization 
 augmentation part       16.3834153 magnetization 

 Broyden mixing:
  rms(total) = 0.63794E-01    rms(broyden)= 0.63765E-01
  rms(prec ) = 0.13487E+00
  weight for this iteration     100.00

 eigenvalues of (default mixing * dielectric matrix)
  average eigenvalue GAMMA=   1.4769
  0.8056  1.0533  2.5719

 Free energy of the ion-electron system (eV)
  ---------------------------------------------------
  alpha Z        PSCENC =       270.44909666
  Ewald energy   TEWEN  =     -2452.97223925
  -Hartree energ DENC   =      -349.01610939
  -exchange      EXHF   =         0.00000000
  -V(xc)+E(xc)   XCENC  =        13.78393908
  PAW double counting   =      2786.03262043    -2815.94870162
  entropy T*S    EENTRO =        -0.05248719
  eigenvalues    EBANDS =       138.85823421
  atomic energy  EATOM  =      2376.84357397
  Solvation  Ediel_sol  =         0.00000000
  ---------------------------------------------------
  free energy    TOTEN  =       -32.02207310 eV

  energy without entropy =      -31.96958591  energy(sigma->0) =      -32.00457737


--------------------------------------------------------------------------------------------------------




--------------------------------------- Iteration      1(   9)  ---------------------------------------


    POTLOK:  cpu time    0.0048: real time    0.0048
    SETDIJ:  cpu time    0.0038: real time    0.0038
     EDDAV:  cpu time    0.1163: real time    0.1163
       DOS:  cpu time    0.0010: real time    0.0010
    CHARGE:  cpu time    0.0071: real time    0.0071
    MIXING:  cpu time    0.0003: real time    0.0003
    --------------------------------------------
      LOOP:  cpu time    0.1332: real time    0.1333

 eigenvalue-minimisations  :   944
 total energy-change (2. order) : 0.2100864E-01  (-0.4216049E-03)
 number of electron      32.0001015 magnetization 
 augmentation part       16.4073715 magnetization 

 Broyden mixing:
  rms(total) = 0.53336E-02    rms(broyden)= 0.53186E-02
  rms(prec ) = 0.62824E-02
  weight for this iteration     100.00

 eigenvalues of (default mixing * dielectric matrix)
  average eigenvalue GAMMA=   1.3625
  2.7000  1.0953  0.8036  0.8510

 Free energy of the ion-electron system (eV)
  ---------------------------------------------------
  alpha Z        PSCENC =       270.44909666
  Ewald energy   TEWEN  =     -2452.97223925
  -Hartree energ DENC   =      -345.02452307
  -exchange      EXHF   =         0.00000000
  -V(xc)+E(xc)   XCENC  =        13.62569184
  PAW double counting   =      2948.03984306    -2981.45120535
  entropy T*S    EENTRO =        -0.05204204
  eigenvalues    EBANDS =       138.54073972
  atomic energy  EATOM  =      2376.84357397
  Solvation  Ediel_sol  =         0.00000000
  ---------------------------------------------------
  free energy    TOTEN  =       -32.00106446 eV

  energy without entropy =      -31.94902242  energy(sigma->0) =      -31.98371711


--------------------------------------------------------------------------------------------------------




--------------------------------------- Iteration      1(  10)  ---------------------------------------


    POTLOK:  cpu time    0.0047: real time    0.0047
    SETDIJ:  cpu time    0.0039: real time    0.0039
     EDDAV:  cpu time    0.1147: real time    0.1147
       DOS:  cpu time    0.0010: real time    0.0010
    CHARGE:  cpu time    0.0072: real time    0.0072
    MIXING:  cpu time    0.0003: real time    0.0003
    --------------------------------------------
      LOOP:  cpu time    0.1317: real time    0.1317

 eigenvalue-minimisations  :   912
 total energy-change (2. order) :-0.1865066E-04  (-0.2805359E-04)
 number of electron      32.0001014 magnetization 
 augmentation part       16.4105703 magnetization 

 Broyden mixing:
  rms(total) = 0.35803E-02    rms(broyden)= 0.35793E-02
  rms(prec ) = 0.70609E-02
  weight for this iteration     100.00

 eigenvalues of (default mixing * dielectric matrix)
  average eigenvalue GAMMA=   1.6950
  2.8155  2.8155  1.0931  0.9515  0.7993

 Free energy of the ion-electron system (eV)
  ---------------------------------------------------
  alpha Z        PSCENC =       270.44909666
  Ewald energy   TEWEN  =     -2452.97223925
  -Hartree energ DENC   =      -345.03231994
  -exchange      EXHF   =         0.00000000
  -V(xc)+E(xc)   XCENC  =        13.62622372
  PAW double counting   =      2948.25640540    -2981.56359263
  entropy T*S    EENTRO =        -0.05209377
  eigenvalues    EBANDS =       138.44386273
  atomic energy  EATOM  =      2376.84357397
  Solvation  Ediel_sol  =         0.00000000
  ---------------------------------------------------
  free energy    TOTEN  =       -32.00108311 eV

  energy without entropy =      -31.94898934  energy(sigma->0) =      -31.98371852


--------------------------------------------------------------------------------------------------------




--------------------------------------- Iteration      1(  11)  ---------------------------------------


    POTLOK:  cpu time    0.0049: real time    0.0049
    SETDIJ:  cpu time    0.0039: real time    0.0039
     EDDAV:  cpu time    0.1225: real time    0.1225
       DOS:  cpu time    0.0010: real time    0.0010
    CHARGE:  cpu time    0.0071: real time    0.0071
    MIXING:  cpu time    0.0003: real time    0.0003
    --------------------------------------------
      LOOP:  cpu time    0.1397: real time    0.1397

 eigenvalue-minimisations  :   992
 total energy-change (2. order) : 0.3927847E-04  (-0.3853893E-06)
 number of electron      32.0001015 magnetization 
 augmentation part       16.4089949 magnetization 

 Broyden mixing:
  rms(total) = 0.21976E-02    rms(broyden)= 0.21943E-02
  rms(prec ) = 0.50108E-02
  weight for this iteration     100.00

 eigenvalues of (default mixing * dielectric matrix)
  average eigenvalue GAMMA=   1.5019
  2.5745  2.5745  1.1526  0.7965  1.0041  0.9093

 Free energy of the ion-electron system (eV)
  ---------------------------------------------------
  alpha Z        PSCENC =       270.44909666
  Ewald energy   TEWEN  =     -2452.97223925
  -Hartree energ DENC   =      -345.40739592
  -exchange      EXHF   =         0.00000000
  -V(xc)+E(xc)   XCENC  =        13.64272475
  PAW double counting   =      2940.31529423    -2973.26662465
  entropy T*S    EENTRO =        -0.05204400
  eigenvalues    EBANDS =       138.44657037
  atomic energy  EATOM  =      2376.84357397
  Solvation  Ediel_sol  =         0.00000000
  ---------------------------------------------------
  free energy    TOTEN  =       -32.00104383 eV

  energy without entropy =      -31.94899983  energy(sigma->0) =      -31.98369583


--------------------------------------------------------------------------------------------------------




--------------------------------------- Iteration      1(  12)  ---------------------------------------


    POTLOK:  cpu time    0.0048: real time    0.0048
    SETDIJ:  cpu time    0.0039: real time    0.0039
     EDDAV:  cpu time    0.1173: real time    0.1173
       DOS:  cpu time    0.0010: real time    0.0010
    CHARGE:  cpu time    0.0071: real time    0.0071
    MIXING:  cpu time    0.0003: real time    0.0003
    --------------------------------------------
      LOOP:  cpu time    0.1344: real time    0.1344

 eigenvalue-minimisations  :   936
 total energy-change (2. order) : 0.6045343E-05  (-0.1805436E-06)
 number of electron      32.0001015 magnetization 
 augmentation part       16.4097527 magnetization 

 Broyden mixing:
  rms(total) = 0.16437E-03    rms(broyden)= 0.16312E-03
  rms(prec ) = 0.32329E-03
  weight for this iteration     100.00

 eigenvalues of (default mixing * dielectric matrix)
  average eigenvalue GAMMA=   1.5171
  2.5386  2.5386  1.6414  0.7975  0.9831  1.0093  1.1113

 Free energy of the ion-electron system (eV)
  ---------------------------------------------------
  alpha Z        PSCENC =       270.44909666
  Ewald energy   TEWEN  =     -2452.97223925
  -Hartree energ DENC   =      -345.26165684
  -exchange      EXHF   =         0.00000000
  -V(xc)+E(xc)   XCENC  =        13.63668081
  PAW double counting   =      2945.34108577    -2978.42710723
  entropy T*S    EENTRO =        -0.05205758
  eigenvalues    EBANDS =       138.44158590
  atomic energy  EATOM  =      2376.84357397
  Solvation  Ediel_sol  =         0.00000000
  ---------------------------------------------------
  free energy    TOTEN  =       -32.00103778 eV

  energy without entropy =      -31.94898020  energy(sigma->0) =      -31.98368526


--------------------------------------------------------------------------------------------------------




--------------------------------------- Iteration      1(  13)  ---------------------------------------


    POTLOK:  cpu time    0.0048: real time    0.0048
    SETDIJ:  cpu time    0.0039: real time    0.0039
     EDDAV:  cpu time    0.0772: real time    0.0772
       DOS:  cpu time    0.0010: real time    0.0010
    CHARGE:  cpu time    0.0070: real time    0.0070
    MIXING:  cpu time    0.0003: real time    0.0003
    --------------------------------------------
      LOOP:  cpu time    0.0942: real time    0.0942

 eigenvalue-minimisations  :   496
 total energy-change (2. order) :-0.1244742E-05  (-0.2780759E-07)
 number of electron      32.0001015 magnetization 
 augmentation part       16.4097398 magnetization 

 Broyden mixing:
  rms(total) = 0.10671E-03    rms(broyden)= 0.10634E-03
  rms(prec ) = 0.17000E-03
  weight for this iteration     100.00

 eigenvalues of (default mixing * dielectric matrix)
  average eigenvalue GAMMA=   1.5716
  2.8337  2.5233  2.5233  1.0862  1.0359  0.9565  0.7927  0.8210

 Free energy of the ion-electron system (eV)
  ---------------------------------------------------
  alpha Z        PSCENC =       270.44909666
  Ewald energy   TEWEN  =     -2452.97223925
  -Hartree energ DENC   =      -345.25456537
  -exchange      EXHF   =         0.00000000
  -V(xc)+E(xc)   XCENC  =        13.63639715
  PAW double counting   =      2945.59650419    -2978.68954801
  entropy T*S    EENTRO =        -0.05205287
  eigenvalues    EBANDS =       138.44179449
  atomic energy  EATOM  =      2376.84357397
  Solvation  Ediel_sol  =         0.00000000
  ---------------------------------------------------
  free energy    TOTEN  =       -32.00103903 eV

  energy without entropy =      -31.94898616  energy(sigma->0) =      -31.98368807


--------------------------------------------------------------------------------------------------------




--------------------------------------- Iteration      1(  14)  ---------------------------------------


    POTLOK:  cpu time    0.0048: real time    0.0048
    SETDIJ:  cpu time    0.0039: real time    0.0039
     EDDAV:  cpu time    0.0715: real time    0.0715
       DOS:  cpu time    0.0010: real time    0.0010
    --------------------------------------------
      LOOP:  cpu time    0.0812: real time    0.0812

 eigenvalue-minimisations  :   440
 total energy-change (2. order) :-0.2897737E-06  (-0.2538420E-08)
 number of electron      32.0001015 magnetization 
 augmentation part       16.4097398 magnetization 

 Free energy of the ion-electron system (eV)
  ---------------------------------------------------
  alpha Z        PSCENC =       270.44909666
  Ewald energy   TEWEN  =     -2452.97223925
  -Hartree energ DENC   =      -345.25244728
  -exchange      EXHF   =         0.00000000
  -V(xc)+E(xc)   XCENC  =        13.63631740
  PAW double counting   =      2945.74326763    -2978.83657784
  entropy T*S    EENTRO =        -0.05205241
  eigenvalues    EBANDS =       138.44002180
  atomic energy  EATOM  =      2376.84357397
  Solvation  Ediel_sol  =         0.00000000
  ---------------------------------------------------
  free energy    TOTEN  =       -32.00103932 eV

  energy without entropy =      -31.94898691  energy(sigma->0) =      -31.98368852


--------------------------------------------------------------------------------------------------------




 average (electrostatic) potential at core
  the test charge radii are     1.0103
  (the norm of the test charge is              1.0000)
       1 -42.7684       2 -42.7684       3 -42.7684       4 -42.7684
 
 
 
 E-fermi :   6.7460     XC(G=0): -13.7710     alpha+bet :-15.1637

 Fermi energy:         6.7460437044

 k-point     1 :       0.0000    0.0000    0.0000
  band No.  band energies     occupation 
      1      -2.0314      2.00000
      2       1.8209      2.00000
      3       1.8209      2.00000
      4       1.8209      2.00000
      5       2.5611      2.00000
      6       2.5611      2.00000
      7       2.5611      2.00000
      8       5.2176      2.00000
      9       5.2176      2.00000
     10       5.2176      2.00000
     11       6.7291      1.14248
     12       6.7291      1.14248
     13       7.6924     -0.00000
     14       7.6924     -0.00000
     15       7.6924     -0.00000
     16       7.9820     -0.00000
     17       7.9820     -0.00000
     18       7.9820     -0.00000
     19       7.9820     -0.00000
     20       7.9820     -0.00000
     21       7.9820     -0.00000
     22      10.0720     -0.00000
     23      10.0720     -0.00000
     24      10.0720     -0.00000
     25      18.5456      0.00000
     26      18.5456      0.00000
     27      18.5456      0.00000
     28      23.0810      0.00000
     29      23.0810      0.00000
     30      23.0810      0.00000
     31      23.0810      0.00000
     32      23.0810      0.00000
     33      23.0810      0.00000
     34      28.7266      0.00000
     35      28.7266      0.00000
     36      28.7266      0.00000
     37      30.1706      0.00000
     38      33.4055      0.00000
     39      33.4055      0.00000
     40      33.4055      0.00000

 k-point     2 :       0.2000    0.0000    0.0000
  band No.  band energies     occupation 
      1      -1.4703      2.00000
      2       1.9333      2.00000
      3       2.1575      2.00000
      4       2.1575      2.00000
      5       2.7785      2.00000
      6       2.8371      2.00000
      7       2.8371      2.00000
      8       4.8656      2.00000
      9       5.3357      2.00000
     10       5.3357      2.00000
     11       6.4216      2.04409
     12       6.5545      2.04034
     13       6.5545      2.04034
     14       6.7983      0.57421
     15       7.3629     -0.00012
     16       7.3629     -0.00012
     17       7.5901     -0.00000
     18       7.6109     -0.00000
     19       7.6109     -0.00000
     20       7.9853     -0.00000
     21       7.9853     -0.00000
     22       8.2357     -0.00000
     23      11.8967     -0.00000
     24      11.8967     -0.00000
     25      18.5549      0.00000
     26      18.5549      0.00000
     27      21.1356      0.00000
     28      21.1356      0.00000
     29      21.1596      0.00000
     30      22.0044      0.00000
     31      22.0044      0.00000
     32      24.0101      0.00000
     33      24.0101      0.00000
     34      28.7892      0.00000
     35      29.8911      0.00000
     36      31.2525      0.00000
     37      31.2525      0.00000
     38      33.1900      0.00000
     39      33.4616      0.00000
     40      33.4616      0.00000

 k-point     3 :       0.4000    0.0000    0.0000
  band No.  band energies     occupation 
      1       0.0401      2.00000
      2       1.6216      2.00000
      3       2.8500      2.00000
      4       2.8500      2.00000
      5       3.3758      2.00000
      6       3.5973      2.00000
      7       3.5973      2.00000
      8       4.1660      2.00000
      9       4.8628      2.00000
     10       4.8628      2.00000
     11       5.8800      2.00000
     12       5.9094      2.00000
     13       5.9094      2.00000
     14       6.0514      2.00001
     15       6.6731      1.57408
     16       6.6731      1.57408
     17       6.7740      0.76576
     18       6.7740      0.76576
     19       7.0127     -0.06781
     20       7.3273     -0.00031
     21       8.0003     -0.00000
     22       8.0003     -0.00000
     23      14.7716      0.00000
     24      14.7716      0.00000
     25      17.9332      0.00000
     26      17.9332      0.00000
     27      18.6046      0.00000
     28      18.6046      0.00000
     29      20.7132      0.00000
     30      20.7132      0.00000
     31      25.7498      0.00000
     32      26.4743      0.00000
     33      26.4743      0.00000
     34      29.0100      0.00000
     35      29.3801      0.00000
     36      29.8012      0.00000
     37      29.8331      0.00000
     38      29.8331      0.00000
     39      34.9399      0.00000
     40      35.8290      0.00000

 k-point     4 :       0.2000    0.2000    0.0000
  band No.  band energies     occupation 
      1      -0.9353      2.00000
      2       2.2992      2.00000
      3       2.2992      2.00000
      4       2.4494      2.00000
      5       3.0286      2.00000
      6       3.0313      2.00000
      7       3.0313      2.00000
      8       4.7252      2.00000
      9       5.4304      2.00000
     10       5.4377      2.00000
     11       5.9809      2.00000
     12       6.0036      2.00000
     13       6.0036      2.00000
     14       6.3687      2.02265
     15       6.8129      0.46739
     16       7.0958     -0.03294
     17       7.3352     -0.00025
     18       7.3352     -0.00025
     19       7.6239     -0.00000
     20       7.6239     -0.00000
     21       7.7361     -0.00000
     22      10.0664     -0.00000
     23      10.0664     -0.00000
     24      13.1191      0.00000
     25      17.3426      0.00000
     26      19.1874      0.00000
     27      21.1946      0.00000
     28      21.1946      0.00000
     29      21.9051      0.00000
     30      21.9051      0.00000
     31      22.9585      0.00000
     32      22.9585      0.00000
     33      24.8608      0.00000
     34      28.4433      0.00000
     35      29.7143      0.00000
     36      30.1652      0.00000
     37      31.5198      0.00000
     38      31.5198      0.00000
     39      34.3433      0.00000
     40      36.0955      0.00000

 k-point     5 :       0.4000    0.2000    0.0000
  band No.  band energies     occupation 
      1       0.5016      2.00000
      2       2.0253      2.00000
      3       3.0751      2.00000
      4       3.1278      2.00000
      5       3.5365      2.00000
      6       3.5485      2.00000
      7       3.7015      2.00000
      8       4.1971      2.00000
      9       4.4967      2.00000
     10       4.7731      2.00000
     11       5.1863      2.00000
     12       5.3663      2.00000
     13       5.9306      2.00000
     14       6.2383      2.00195
     15       6.5591      2.03395
     16       6.6696      1.59757
     17       6.7709      0.79158
     18       6.8386      0.30224
     19       7.2552     -0.00188
     20       7.6143     -0.00000
     21       7.6229     -0.00000
     22       8.1092     -0.00000
     23      12.2515      0.00000
     24      14.5686      0.00000
     25      15.6619      0.00000
     26      18.6914      0.00000
     27      19.4581      0.00000
     28      20.3781      0.00000
     29      22.8174      0.00000
     30      23.8037      0.00000
     31      24.0475      0.00000
     32      24.2545      0.00000
     33      26.1456      0.00000
     34      26.6084      0.00000
     35      27.0092      0.00000
     36      32.2452      0.00000
     37      32.3201      0.00000
     38      33.3230      0.00000
     39      33.5476      0.00000
     40      36.1886      0.00000

 k-point     6 :       0.4000    0.4000    0.0000
  band No.  band energies     occupation 
      1       1.6913      2.00000
      2       2.9335      2.00000
      3       2.9335      2.00000
      4       3.4330      2.00000
      5       3.8131      2.00000
      6       3.9385      2.00000
      7       3.9385      2.00000
      8       4.1686      2.00000
      9       4.3734      2.00000
     10       4.3734      2.00000
     11       4.4470      2.00000
     12       5.0177      2.00000
     13       5.9836      2.00000
     14       6.1689      2.00035
     15       6.2145      2.00111
     16       6.3008      2.00720
     17       6.3008      2.00720
     18       6.8058      0.51820
     19       6.8058      0.51820
     20       7.0599     -0.04900
     21       8.1794     -0.00000
     22       9.6339     -0.00000
     23       9.6339     -0.00000
     24      11.6122     -0.00000
     25      17.8021      0.00000
     26      20.2955      0.00000
     27      20.5901      0.00000
     28      20.5901      0.00000
     29      21.8069      0.00000
     30      21.8069      0.00000
     31      23.1646      0.00000
     32      23.8612      0.00000
     33      28.0866      0.00000
     34      28.0866      0.00000
     35      29.2879      0.00000
     36      30.8393      0.00000
     37      33.2767      0.00000
     38      34.9275      0.00000
     39      35.8642      0.00000
     40      35.8642      0.00000

 k-point     7 :       0.2000    0.2000    0.2000
  band No.  band energies     occupation 
      1      -0.4434      2.00000
      2       2.5618      2.00000
      3       2.5618      2.00000
      4       2.5618      2.00000
      5       3.2159      2.00000
      6       3.2159      2.00000
      7       3.2159      2.00000
      8       4.6785      2.00000
      9       5.4254      2.00000
     10       5.4254      2.00000
     11       5.5758      2.00000
     12       5.5758      2.00000
     13       5.5758      2.00000
     14       6.6409      1.76768
     15       6.6409      1.76768
     16       6.7050      1.33943
     17       6.7050      1.33943
     18       6.7050      1.33943
     19       7.8270     -0.00000
     20       7.8270     -0.00000
     21       7.8270     -0.00000
     22      10.8787     -0.00000
     23      10.8787     -0.00000
     24      10.8787     -0.00000
     25      18.4584      0.00000
     26      18.4584      0.00000
     27      18.4584      0.00000
     28      21.8596      0.00000
     29      21.8596      0.00000
     30      21.8596      0.00000
     31      25.6342      0.00000
     32      25.6601      0.00000
     33      25.6601      0.00000
     34      25.6601      0.00000
     35      30.3149      0.00000
     36      30.3149      0.00000
     37      30.3149      0.00000
     38      31.0787      0.00000
     39      34.8095      0.00000
     40      34.8095      0.00000

 k-point     8 :       0.4000    0.2000    0.2000
  band No.  band energies     occupation 
      1       0.8548      2.00000
      2       2.2235      2.00000
      3       3.1516      2.00000
      4       3.1516      2.00000
      5       3.6041      2.00000
      6       3.6041      2.00000
      7       3.7624      2.00000
      8       4.3416      2.00000
      9       4.7735      2.00000
     10       4.7735      2.00000
     11       5.0235      2.00000
     12       5.2944      2.00000
     13       5.5825      2.00000
     14       6.0563      2.00001
     15       6.2751      2.00432
     16       6.2751      2.00432
     17       6.8087      0.49751
     18       7.1803     -0.00884
     19       7.6575     -0.00000
     20       7.6591     -0.00000
     21       7.6591     -0.00000
     22       8.2430     -0.00000
     23      12.3484      0.00000
     24      12.3484      0.00000
     25      15.9179      0.00000
     26      15.9179      0.00000
     27      20.3118      0.00000
     28      22.6458      0.00000
     29      22.6458      0.00000
     30      22.7259      0.00000
     31      24.9058      0.00000
     32      24.9058      0.00000
     33      26.5474      0.00000
     34      27.8749      0.00000
     35      29.6061      0.00000
     36      31.1098      0.00000
     37      31.1647      0.00000
     38      33.3983      0.00000
     39      33.3983      0.00000
     40      34.7071      0.00000

 k-point     9 :       0.4000    0.4000    0.2000
  band No.  band energies     occupation 
      1       1.6953      2.00000
      2       2.5637      2.00000
      3       2.5637      2.00000
      4       2.8663      2.00000
      5       4.1120      2.00000
      6       4.3158      2.00000
      7       4.3158      2.00000
      8       4.6679      2.00000
      9       4.8452      2.00000
     10       4.8452      2.00000
     11       5.0248      2.00000
     12       5.1083      2.00000
     13       5.4355      2.00000
     14       5.7326      2.00000
     15       5.7326      2.00000
     16       5.7539      2.00000
     17       6.8788      0.10673
     18       7.4142     -0.00002
     19       7.4142     -0.00002
     20       7.4574     -0.00001
     21       7.9454     -0.00000
     22       9.4787     -0.00000
     23       9.4787     -0.00000
     24      11.1191     -0.00000
     25      15.6263      0.00000
     26      17.4889      0.00000
     27      17.4889      0.00000
     28      19.7691      0.00000
     29      23.8410      0.00000
     30      25.5977      0.00000
     31      25.5977      0.00000
     32      27.6520      0.00000
     33      28.5531      0.00000
     34      28.5531      0.00000
     35      29.8154      0.00000
     36      30.7898      0.00000
     37      32.4306      0.00000
     38      33.6988      0.00000
     39      33.6988      0.00000
     40      35.2863      0.00000

 k-point    10 :       0.4000    0.4000    0.4000
  band No.  band energies     occupation 
      1       1.7979      2.00000
      2       2.1872      2.00000
      3       2.1872      2.00000
      4       2.1872      2.00000
      5       4.7573      2.00000
      6       4.7573      2.00000
      7       4.7573      2.00000
      8       5.1108      2.00000
      9       5.1108      2.00000
     10       5.2646      2.00000
     11       5.2646      2.00000
     12       5.2646      2.00000
     13       5.8263      2.00000
     14       5.8263      2.00000
     15       5.8263      2.00000
     16       5.9216      2.00000
     17       7.5169     -0.00000
     18       7.5169     -0.00000
     19       7.7437     -0.00000
     20       7.7437     -0.00000
     21       7.7437     -0.00000
     22       9.0592     -0.00000
     23       9.0592     -0.00000
     24       9.0592     -0.00000
     25      15.4250      0.00000
     26      15.4250      0.00000
     27      15.4250      0.00000
     28      17.0036      0.00000
     29      27.8262      0.00000
     30      27.8262      0.00000
     31      27.8262      0.00000
     32      29.0966      0.00000
     33      31.4316      0.00000
     34      31.4316      0.00000
     35      31.4316      0.00000
     36      31.8682      0.00000
     37      31.8682      0.00000
     38      31.8682      0.00000
     39      33.9828      0.00000
     40      33.9828      0.00000


--------------------------------------------------------------------------------------------------------


 soft charge-density along one line, spin component           1
         0         1         2         3         4         5         6         7         8         9
x    15.5904    0.0000    0.0000    0.0000   -0.2364   -0.0000   -0.0000    0.0000   -0.1570   -0.0000
x    -0.0000    0.0000    0.0362    0.0000    0.0000    0.0000
y    15.5904    0.0000    0.0000    0.0000   -0.2364   -0.0000   -0.0000    0.0000   -0.1570   -0.0000
y    -0.0000    0.0000    0.0362    0.0000    0.0000    0.0000
z    15.5904    0.0000    0.0000    0.0000   -0.2364   -0.0000   -0.0000    0.0000   -0.1570   -0.0000
z    -0.0000    0.0000    0.0362    0.0000    0.0000    0.0000
 total charge-density along one line
x    32.0001    0.0000    0.0000    0.0000    9.1053    0.0000   -0.0000    0.0000    1.0346   -0.0000
x     0.0000    0.0000   -0.0056    0.0000    0.0000    0.0000    0.0101    0.0000   -0.0000   -0.0000
x    -0.0013    0.0000   -0.0000    0.0000   -0.0005    0.0000    0.0000   -0.0000    0.0009    0.0000
y    32.0001    0.0000    0.0000    0.0000    9.1053    0.0000   -0.0000    0.0000    1.0346   -0.0000
y    -0.0000    0.0000   -0.0056   -0.0000   -0.0000   -0.0000    0.0101   -0.0000   -0.0000   -0.0000
y    -0.0013   -0.0000   -0.0000   -0.0000   -0.0005    0.0000    0.0000   -0.0000    0.0009    0.0000
z    32.0001    0.0000   -0.0000    0.0000    9.1053    0.0000   -0.0000    0.0000    1.0346    0.0000
z    -0.0000    0.0000   -0.0056   -0.0000   -0.0000   -0.0000    0.0101    0.0000    0.0000    0.0000
z    -0.0013   -0.0000   -0.0000   -0.0000   -0.0005    0.0000   -0.0000   -0.0000    0.0009   -0.0000
 
 pseudopotential strength for first ion, spin component:           1
 -4.546   0.000   0.000   0.000   0.000  -5.107   0.000   0.000
  0.000  -4.546   0.000  -0.000  -0.000   0.000  -5.107   0.000
  0.000   0.000  -4.528  -0.000   0.000   0.000   0.000  -5.089
  0.000  -0.000  -0.000  -4.546   0.000   0.000  -0.000  -0.000
  0.000  -0.000   0.000   0.000  -4.528   0.000  -0.000   0.000
 -5.107   0.000   0.000   0.000   0.000  -5.624   0.000   0.000
  0.000  -5.107   0.000  -0.000  -0.000   0.000  -5.624   0.000
  0.000   0.000  -5.089  -0.000   0.000   0.000   0.000  -5.607
  0.000  -0.000  -0.000  -5.107   0.000   0.000  -0.000  -0.000
  0.000  -0.000   0.000   0.000  -5.089   0.000  -0.000   0.000
  0.000  -0.000  -0.000  -0.000   0.000   0.000  -0.000  -0.000
  0.000  -0.000  -0.000  -0.000   0.000   0.000  -0.000  -0.000
  0.000   0.000  -0.000  -0.000  -0.000   0.000   0.000  -0.000
 -0.000   0.000   0.000   0.000   0.000  -0.000   0.000   0.000
  0.000  -0.000  -0.000   0.000   0.000   0.000  -0.000  -0.000
  0.000   0.000  -0.000  -0.000  -0.000   0.000   0.000  -0.000
 -0.000   0.000   0.000   0.000   0.000  -0.000   0.000   0.000
  0.000  -0.000  -0.000   0.000   0.000   0.000  -0.000  -0.000
 total augmentation occupancy for first ion, spin component:           1
  1.204  -0.000  -0.000   0.000  -0.000  -0.761  -0.000  -0.000   0.000   0.000  -0.000  -0.000   0.000   0.000  -0.000   0.000
  0.000   1.204  -0.000   0.000  -0.000  -0.000  -0.761   0.000   0.000   0.000  -0.000   0.000  -0.000   0.000   0.000   0.000
  0.000  -0.000   2.126  -0.000   0.000  -0.000  -0.000  -1.236   0.000  -0.000   0.000  -0.000  -0.000  -0.000   0.000  -0.000
  0.000  -0.000  -0.000   1.204   0.000   0.000   0.000   0.000  -0.761   0.000   0.000  -0.000   0.000  -0.000   0.000   0.000
 -0.000  -0.000   0.000   0.000   2.126  -0.000   0.000  -0.000   0.000  -1.236   0.000  -0.000   0.000   0.000  -0.000   0.000
 -0.761  -0.000   0.000   0.000   0.000   1.651   0.000  -0.000  -0.000   0.000  -0.000   0.000   0.000  -0.000  -0.000   0.000
 -0.000  -0.761  -0.000   0.000   0.000   0.000   1.651   0.000  -0.000  -0.000  -0.000  -0.000   0.000  -0.000  -0.000  -0.000
 -0.000   0.000  -1.236   0.000  -0.000  -0.000   0.000   1.734  -0.000   0.000  -0.000  -0.000   0.000   0.000  -0.000   0.000
  0.000   0.000  -0.000  -0.761   0.000  -0.000  -0.000  -0.000   1.651  -0.000  -0.000  -0.000   0.000  -0.000  -0.000   0.000
 -0.000   0.000  -0.000   0.000  -1.236   0.000   0.000   0.000  -0.000   1.734   0.000   0.000   0.000   0.000   0.000   0.000
 -0.000  -0.000   0.000   0.000   0.000   0.000  -0.000  -0.000  -0.000   0.000   2.622  -0.295  -0.000  -0.000  -0.000   0.000
 -0.000   0.000   0.000  -0.000  -0.000   0.000  -0.000   0.000   0.000   0.000  -0.295   0.038  -0.000  -0.000   0.000   0.000
  0.000  -0.000  -0.000   0.000  -0.000  -0.000   0.000   0.000  -0.000   0.000  -0.000   0.000   0.343  -0.000  -0.000  -0.030
  0.000   0.000   0.000  -0.000   0.000   0.000   0.000  -0.000   0.000   0.000  -0.000  -0.000  -0.000   0.343   0.000  -0.000
 -0.000   0.000   0.000   0.000  -0.000  -0.000  -0.000   0.000  -0.000  -0.000   0.000  -0.000  -0.000   0.000   0.343  -0.000
  0.000   0.000  -0.000   0.000   0.000  -0.000   0.000   0.000   0.000   0.000  -0.000  -0.000  -0.030  -0.000  -0.000   0.003
  0.000  -0.000   0.000   0.000   0.000   0.000   0.000   0.000  -0.000  -0.000  -0.000  -0.000  -0.000  -0.030  -0.000  -0.000
  0.000  -0.000   0.000   0.000  -0.000  -0.000   0.000   0.000   0.000  -0.000   0.000  -0.000  -0.000   0.000  -0.030  -0.000


------------------------ aborting loop because EDIFF is reached ----------------------------------------


    CHARGE:  cpu time    0.0071: real time    0.0071
    FORLOC:  cpu time    0.0004: real time    0.0004
    FORNL :  cpu time    0.0333: real time    0.0333
    STRESS:  cpu time    0.0438: real time    0.0438
    FORCOR:  cpu time    0.0049: real time    0.0049
    FORHAR:  cpu time    0.0012: real time    0.0012
    MIXING:  cpu time    0.0003: real time    0.0003

  FORCE on cell =-STRESS in cart. coord.  units (eV):
  Direction    XX          YY          ZZ          XY          YZ          ZX
  --------------------------------------------------------------------------------------
  Alpha Z   270.44910   270.44910   270.44910
  Ewald    -817.65777  -817.65777  -817.65777    -0.00000    -0.00000    -0.00000
  Hartree   115.08435   115.08435   115.08435    -0.00000    -0.00000    -0.00000
  E(xc)    -156.99150  -156.99150  -156.99150    -0.00000    -0.00000    -0.00000
  Local     243.87674   243.87674   243.87674    -0.00000     0.00000     0.00000
  n-local  -117.51490  -115.66713  -110.55855     3.77956     1.08350     1.39688
  augment   151.68757   151.68757   151.68757     0.00000     0.00000     0.00000
  Kinetic   317.50156   298.53672   290.80915     2.75339     5.24469     4.12708
  Fock        0.00000     0.00000     0.00000     0.00000     0.00000     0.00000
  -------------------------------------------------------------------------------------
  Total      -5.84924    -5.84924    -5.84924    -0.00000    -0.00000    -0.00000
  in kB    -229.19791  -229.19791  -229.19791    -0.00000    -0.00000    -0.00000
  external pressure =     -229.20 kB  Pullay stress =        0.00 kB


 VOLUME and BASIS-vectors are now :
 -----------------------------------------------------------------------------
  energy-cutoff  :      240.00
  volume of cell :       40.89
      direct lattice vectors                 reciprocal lattice vectors
     3.445083000  0.000000000  0.000000000     0.290268769  0.000000000  0.000000000
     0.000000000  3.445083000  0.000000000     0.000000000  0.290268769  0.000000000
     0.000000000  0.000000000  3.445083000     0.000000000  0.000000000  0.290268769

  length of vectors
     3.445083000  3.445083000  3.445083000     0.290268769  0.290268769  0.290268769


 FORCES acting on ions
    electron-ion (+dipol)            ewald-force                    non-local-force                 convergence-correction
 -----------------------------------------------------------------------------------------------
   -.617E-13 -.653E-14 -.112E-13   0.950E-15 -.636E-14 -.192E-14   0.101E-23 0.332E-24 -.307E-24   -.120E-13 -.289E-14 -.126E-13
   0.142E-12 0.178E-12 -.132E-13   -.151E-14 0.210E-14 -.192E-14   0.192E-24 0.427E-24 -.543E-24   -.275E-13 -.130E-13 -.140E-13
   0.139E-12 -.124E-13 0.196E-12   0.725E-14 -.267E-14 0.266E-14   0.396E-24 0.960E-24 -.294E-23   -.341E-13 0.106E-13 -.236E-13
   -.606E-13 0.174E-12 0.196E-12   -.832E-14 0.579E-14 0.266E-14   -.968E-24 0.114E-24 -.261E-23   -.185E-13 -.247E-14 -.143E-13
 -----------------------------------------------------------------------------------------------
   0.158E-12 0.333E-12 0.368E-12   -.163E-14 -.114E-14 0.147E-14   0.632E-24 0.183E-23 -.640E-23   -.920E-13 -.767E-14 -.646E-13
 
 
 POSITION                                       TOTAL-FORCE (eV/Angst)
 -----------------------------------------------------------------------------------
      0.00000      0.00000      0.00000        -0.000000      0.000000      0.000000
      1.72254      1.72254      0.00000        -0.000000     -0.000000     -0.000000
      1.72254      0.00000      1.72254         0.000000      0.000000     -0.000000
      0.00000      1.72254      1.72254         0.000000     -0.000000      0.000000
 -----------------------------------------------------------------------------------
    total drift:                                0.000000      0.000000      0.000000


--------------------------------------------------------------------------------------------------------



  FREE ENERGIE OF THE ION-ELECTRON SYSTEM (eV)
  ---------------------------------------------------
  free  energy   TOTEN  =       -32.00103932 eV

  energy  without entropy=      -31.94898691  energy(sigma->0) =      -31.98368852
 


--------------------------------------------------------------------------------------------------------


    POTLOK:  cpu time    0.0087: real time    0.0087


--------------------------------------------------------------------------------------------------------


 writing wavefunctions
     LOOP+:  cpu time    1.8555: real time    1.8763
    4ORBIT:  cpu time    0.0000: real time    0.0000

 total amount of memory used by VASP MPI-rank0    34536. kBytes
=======================================================================

   base      :      30000. kBytes
   nonl-proj :        532. kBytes
   grid      :       1216. kBytes
   one-center:         62. kBytes
   wavefun   :       2726. kBytes
 
  
  
 General timing and accounting informations for this job:
 ========================================================
  
                  Total CPU time used (sec):        1.963
                            User time (sec):        1.935
                          System time (sec):        0.028
                         Elapsed time (sec):        1.975
  
                   Maximum memory used (kb):       39468.
                   Average memory used (kb):          N/A
  
                          Minor page faults:         3632
                          Major page faults:            0
                 Voluntary context switches:           26
