<?xml version="1.0" encoding="ISO-8859-1"?>
<modeling>
 <generator>
  <i name="program" type="string">vasp </i>
  <i name="version" type="string">6.2.0  </i>
  <i name="subversion" type="string">18Jan21 (build Mar 17 2021 09:06:54) complex                          serial </i>
  <i name="platform" type="string">LinuxIFC </i>
  <i name="date" type="string">2021 09 09 </i>
  <i name="time" type="string">09:02:22 </i>
 </generator>
 <incar>
  <i type="string" name="PREC">normal</i>
  <i type="int" name="ICHARG">     1</i>
  <i type="int" name="IBRION">    -1</i>
  <i name="EDIFF">      0.00000100</i>
  <i type="int" name="NSW">     0</i>
  <i name="ENCUT">    240.00000000</i>
  <i type="int" name="NBANDS">    40</i>
  <i type="int" name="ISMEAR">     1</i>
  <i name="SIGMA">      0.20000000</i>
  <i type="logical" name="LCHARG"> T  </i>
  <i type="int" name="KPAR">     1</i>
  <i type="int" name="NCORE">     1</i>
  <i type="string" name="GGA">PE</i>
 </incar>
 <primitive_cell>
  <structure name="primitive_cell" >
   <crystal>
    <varray name="basis" >
     <v>       1.72254150      -1.72254150       0.00000000 </v>
     <v>       1.72254150       0.00000000       1.72254150 </v>
     <v>       0.00000000      -1.72254150       1.72254150 </v>
    </varray>
    <i name="volume">     10.22207533 </i>
    <varray name="rec_basis" >
     <v>       0.29026877      -0.29026877      -0.29026877 </v>
     <v>       0.29026877       0.29026877       0.29026877 </v>
     <v>      -0.29026877      -0.29026877       0.29026877 </v>
    </varray>
   </crystal>
   <varray name="positions" >
    <v>       0.00000000       0.00000000       0.00000000 </v>
   </varray>
  </structure>
  <varray name="primitive_index" >
   <v type="int" >        1 </v>
  </varray>
 </primitive_cell>
 <kpoints>
  <generation param="Monkhorst-Pack">
   <v type="int" name="divisions">       5        5        5 </v>
   <v name="usershift">      0.00000000       0.00000000       0.00000000 </v>
   <v name="genvec1">      0.20000000       0.00000000       0.00000000 </v>
   <v name="genvec2">      0.00000000       0.20000000       0.00000000 </v>
   <v name="genvec3">      0.00000000       0.00000000       0.20000000 </v>
   <v name="shift">      0.00000000       0.00000000       0.00000000 </v>
  </generation>
  <varray name="kpointlist" >
   <v>       0.00000000       0.00000000       0.00000000 </v>
   <v>       0.20000000       0.00000000       0.00000000 </v>
   <v>       0.40000000       0.00000000       0.00000000 </v>
   <v>       0.20000000       0.20000000       0.00000000 </v>
   <v>       0.40000000       0.20000000       0.00000000 </v>
   <v>       0.40000000       0.40000000       0.00000000 </v>
   <v>       0.20000000       0.20000000       0.20000000 </v>
   <v>       0.40000000       0.20000000       0.20000000 </v>
   <v>       0.40000000       0.40000000       0.20000000 </v>
   <v>       0.40000000       0.40000000       0.40000000 </v>
  </varray>
  <varray name="weights" >
   <v>       0.00800000 </v>
   <v>       0.04800000 </v>
   <v>       0.04800000 </v>
   <v>       0.09600000 </v>
   <v>       0.19200000 </v>
   <v>       0.09600000 </v>
   <v>       0.06400000 </v>
   <v>       0.19200000 </v>
   <v>       0.19200000 </v>
   <v>       0.06400000 </v>
  </varray>
 </kpoints>
 <parameters>
  <separator name="general" >
   <i type="string" name="SYSTEM">unknown system</i>
   <i type="logical" name="LCOMPAT"> F  </i>
  </separator>
  <separator name="electronic" >
   <i type="string" name="PREC">normal</i>
   <i name="ENMAX">    240.00000000</i>
   <i name="ENAUG">    511.36800000</i>
   <i name="EDIFF">      0.00000100</i>
   <i type="int" name="IALGO">    38</i>
   <i type="int" name="IWAVPR">     0</i>
   <i type="int" name="NBANDS">    40</i>
   <i type="int" name="NBANDSLOW">    -1</i>
   <i type="int" name="NBANDSHIGH">    -1</i>
   <i name="NELECT">     32.00000000</i>
   <i type="int" name="TURBO">     0</i>
   <i type="int" name="IRESTART">     0</i>
   <i type="int" name="NREBOOT">     0</i>
   <i type="int" name="NMIN">     0</i>
   <i name="EREF">      0.00000000</i>
   <separator name="electronic smearing" >
    <i type="int" name="ISMEAR">     1</i>
    <i name="SIGMA">      0.20000000</i>
    <i name="KSPACING">      0.50000000</i>
    <i type="logical" name="KGAMMA"> T  </i>
    <i type="logical" name="KBLOWUP"> T  </i>
   </separator>
   <separator name="electronic projectors" >
    <i type="logical" name="LREAL"> F  </i>
    <v name="ROPT">      0.00000000</v>
    <i type="int" name="LMAXPAW">  -100</i>
    <i type="int" name="LMAXMIX">     2</i>
    <i type="logical" name="NLSPLINE"> F  </i>
   </separator>
   <separator name="electronic startup" >
    <i type="int" name="ISTART">     0</i>
    <i type="int" name="ICHARG">     1</i>
    <i type="int" name="INIWAV">     1</i>
   </separator>
   <separator name="electronic spin" >
    <i type="int" name="ISPIN">     1</i>
    <i type="logical" name="LNONCOLLINEAR"> F  </i>
    <v name="MAGMOM">      1.00000000      1.00000000      1.00000000      1.00000000</v>
    <i name="NUPDOWN">     -1.00000000</i>
    <i type="logical" name="LSORBIT"> F  </i>
    <v name="SAXIS">      0.00000000      0.00000000      1.00000000</v>
    <i type="logical" name="LSPIRAL"> F  </i>
    <v name="QSPIRAL">      0.00000000      0.00000000      0.00000000</v>
    <i type="logical" name="LZEROZ"> F  </i>
   </separator>
   <separator name="electronic exchange-correlation" >
    <i type="logical" name="LASPH"> F  </i>
    <i type="logical" name="LMETAGGA"> F  </i>
   </separator>
   <separator name="electronic convergence" >
    <i type="int" name="NELM">    60</i>
    <i type="int" name="NELMDL">    -5</i>
    <i type="int" name="NELMIN">     2</i>
    <i name="ENINI">    240.00000000</i>
    <separator name="electronic convergence detail" >
     <i type="logical" name="LDIAG"> T  </i>
     <i type="logical" name="LSUBROT"> F  </i>
     <i name="WEIMIN">      0.00000000</i>
     <i name="EBREAK">      0.00000001</i>
     <i name="DEPER">      0.30000000</i>
     <i type="int" name="NRMM">     4</i>
     <i name="TIME">      0.40000000</i>
    </separator>
   </separator>
   <separator name="electronic mixer" >
    <i name="AMIX">      0.40000000</i>
    <i name="BMIX">      1.00000000</i>
    <i name="AMIN">      0.10000000</i>
    <i name="AMIX_MAG">      1.60000000</i>
    <i name="BMIX_MAG">      1.00000000</i>
    <separator name="electronic mixer details" >
     <i type="int" name="IMIX">     4</i>
     <i type="logical" name="MIXFIRST"> F  </i>
     <i type="int" name="MAXMIX">   -45</i>
     <i name="WC">    100.00000000</i>
     <i type="int" name="INIMIX">     1</i>
     <i type="int" name="MIXPRE">     1</i>
     <i type="int" name="MREMOVE">     5</i>
    </separator>
   </separator>
   <separator name="electronic dipolcorrection" >
    <i type="logical" name="LDIPOL"> F  </i>
    <i type="logical" name="LMONO"> F  </i>
    <i type="int" name="IDIPOL">     0</i>
    <i name="EPSILON">      1.00000000</i>
    <v name="DIPOL">   -100.00000000   -100.00000000   -100.00000000</v>
    <i name="EFIELD">      0.00000000</i>
   </separator>
  </separator>
  <separator name="grids" >
   <i type="int" name="NGX">    14</i>
   <i type="int" name="NGY">    14</i>
   <i type="int" name="NGZ">    14</i>
   <i type="int" name="NGXF">    28</i>
   <i type="int" name="NGYF">    28</i>
   <i type="int" name="NGZF">    28</i>
   <i type="logical" name="ADDGRID"> F  </i>
  </separator>
  <separator name="ionic" >
   <i type="int" name="NSW">     0</i>
   <i type="int" name="IBRION">    -1</i>
   <i type="int" name="MDALGO">     0</i>
   <i type="int" name="ISIF">     2</i>
   <i name="PSTRESS">      0.00000000</i>
   <i name="EDIFFG">      0.00001000</i>
   <i type="int" name="NFREE">     0</i>
   <i name="POTIM">      0.50000000</i>
   <i name="SMASS">     -3.00000000</i>
   <i name="SCALEE">      1.00000000</i>
  </separator>
  <separator name="ionic md" >
   <i name="TEBEG">      0.00010000</i>
   <i name="TEEND">      0.00010000</i>
   <i type="int" name="NBLOCK">     1</i>
   <i type="int" name="KBLOCK">     1</i>
   <i type="int" name="NPACO">   256</i>
   <i name="APACO">     16.00000000</i>
  </separator>
  <separator name="symmetry" >
   <i type="int" name="ISYM">     2</i>
   <i name="SYMPREC">      0.00001000</i>
  </separator>
  <separator name="dos" >
   <i type="int" name="LORBIT">     0</i>
   <v name="RWIGS">     -1.00000000</v>
   <i type="int" name="NEDOS">   301</i>
   <i name="EMIN">     10.00000000</i>
   <i name="EMAX">    -10.00000000</i>
   <i name="EFERMI">      0.00000000</i>
  </separator>
  <separator name="writing" >
   <i type="int" name="NWRITE">     2</i>
   <i type="logical" name="LWAVE"> T  </i>
   <i type="logical" name="LDOWNSAMPLE"> F  </i>
   <i type="logical" name="LCHARG"> T  </i>
   <i type="logical" name="LPARD"> F  </i>
   <i type="logical" name="LVTOT"> F  </i>
   <i type="logical" name="LVHAR"> F  </i>
   <i type="logical" name="LELF"> F  </i>
   <i type="logical" name="LOPTICS"> F  </i>
   <v name="STM">      0.00000000      0.00000000      0.00000000      0.00000000      0.00000000      0.00000000      0.00000000</v>
  </separator>
  <separator name="performance" >
   <i type="int" name="NPAR">     1</i>
   <i type="int" name="NSIM">     4</i>
   <i type="int" name="NBLK">    -1</i>
   <i type="logical" name="LPLANE"> T  </i>
   <i type="logical" name="LSCALAPACK"> F  </i>
   <i type="logical" name="LSCAAWARE"> F  </i>
   <i type="logical" name="LSCALU"> F  </i>
   <i type="logical" name="LASYNC"> F  </i>
   <i type="logical" name="LORBITALREAL"> F  </i>
  </separator>
  <separator name="miscellaneous" >
   <i type="int" name="IDIOT">     3</i>
   <i type="int" name="PHON_NSTRUCT">    -1</i>
   <i type="logical" name="LMUSIC"> F  </i>
   <v name="POMASS">     55.84700000</v>
   <v name="DARWINR">      0.00000000</v>
   <v name="DARWINV">      1.00000000</v>
   <i type="logical" name="LCORR"> T  </i>
  </separator>
  <i type="logical" name="GGA_COMPAT"> T  </i>
  <i type="logical" name="LBERRY"> F  </i>
  <i type="int" name="ICORELEVEL">     0</i>
  <i type="logical" name="LDAU"> F  </i>
  <i type="int" name="I_CONSTRAINED_M">     0</i>
  <separator name="electronic exchange-correlation" >
   <i type="string" name="GGA">PE</i>
   <i type="int" name="VOSKOWN">     0</i>
   <i type="logical" name="LHFCALC"> F  </i>
   <i type="string" name="PRECFOCK"></i>
   <i type="logical" name="LSYMGRAD"> F  </i>
   <i type="logical" name="LHFONE"> F  </i>
   <i type="logical" name="LRHFCALC"> F  </i>
   <i type="logical" name="LTHOMAS"> F  </i>
   <i type="logical" name="LMODELHF"> F  </i>
   <i type="logical" name="LFOCKACE"> F  </i>
   <i name="ENCUT4O">     -1.00000000</i>
   <i type="int" name="EXXOEP">     0</i>
   <i type="int" name="FOURORBIT">     0</i>
   <i name="AEXX">      0.00000000</i>
   <i name="HFALPHA">      0.00000000</i>
   <i name="MCALPHA">      0.00000000</i>
   <i name="ALDAX">      1.00000000</i>
   <i name="AGGAX">      1.00000000</i>
   <i name="ALDAC">      1.00000000</i>
   <i name="AGGAC">      1.00000000</i>
   <i type="int" name="NKREDX">     1</i>
   <i type="int" name="NKREDY">     1</i>
   <i type="int" name="NKREDZ">     1</i>
   <i type="logical" name="SHIFTRED"> F  </i>
   <i type="logical" name="ODDONLY"> F  </i>
   <i type="logical" name="EVENONLY"> F  </i>
   <i type="int" name="LMAXFOCK">     0</i>
   <i type="int" name="NMAXFOCKAE">     0</i>
   <i type="logical" name="LFOCKAEDFT"> F  </i>
   <i name="HFSCREEN">      0.00000000</i>
   <i name="HFSCREENC">      0.00000000</i>
   <i type="int" name="NBANDSGWLOW">     0</i>
  </separator>
  <separator name="vdW DFT" >
   <i type="logical" name="LUSE_VDW"> F  </i>
   <i name="Zab_VDW">     -0.84910000</i>
   <i name="PARAM1">      0.12340000</i>
   <i name="PARAM2">      1.00000000</i>
   <i name="PARAM3">      0.00000000</i>
  </separator>
  <separator name="model GW" >
   <i type="int" name="MODEL_GW">     0</i>
   <i name="MODEL_EPS0">      6.13324520</i>
   <i name="MODEL_ALPHA">      1.00000000</i>
  </separator>
  <separator name="linear response parameters" >
   <i type="logical" name="LEPSILON"> F  </i>
   <i type="logical" name="LRPA"> F  </i>
   <i type="logical" name="LNABLA"> F  </i>
   <i type="logical" name="LVEL"> F  </i>
   <i type="int" name="KINTER">     0</i>
   <i name="CSHIFT">      0.10000000</i>
   <i name="OMEGAMAX">     -1.00000000</i>
   <i name="DEG_THRESHOLD">      0.00200000</i>
   <i name="RTIME">     -0.10000000</i>
   <i name="WPLASMAI">      0.00000000</i>
   <v name="DFIELD">      0.00000000      0.00000000      0.00000000</v>
   <v name="WPLASMA">      0.00000000      0.00000000      0.00000000      0.00000000      0.00000000      0.00000000      0.00000000      0.00000000      0.00000000</v>
  </separator>
  <separator name="orbital magnetization" >
   <i type="logical" name="NUCIND"> F  </i>
   <v name="MAGPOS">      0.00000000      0.00000000      0.00000000</v>
   <i type="logical" name="LNICSALL"> T  </i>
   <i type="logical" name="ORBITALMAG"> F  </i>
   <i type="logical" name="LMAGBLOCH"> F  </i>
   <i type="logical" name="LCHIMAG"> F  </i>
   <i type="logical" name="LGAUGE"> T  </i>
   <i type="int" name="MAGATOM">     0</i>
   <v name="MAGDIPOL">      0.00000000      0.00000000      0.00000000</v>
   <v name="AVECCONST">      0.00000000      0.00000000      0.00000000</v>
  </separator>
  <separator name="response functions" >
   <i type="logical" name="LFINITE_TEMPERATURE"> F  </i>
   <i type="logical" name="LADDER"> F  </i>
   <i type="logical" name="LRPAFORCE"> F  </i>
   <i type="logical" name="LFXC"> F  </i>
   <i type="logical" name="LHARTREE"> T  </i>
   <i type="int" name="IBSE">     0</i>
   <v type="int" name="KPOINT">    -1     0     0     0</v>
   <i type="logical" name="LTCTC"> F  </i>
   <i type="logical" name="LTCTE"> F  </i>
   <i type="logical" name="LTETE"> F  </i>
   <i type="logical" name="LTRIPLET"> F  </i>
   <i type="logical" name="LFXCEPS"> F  </i>
   <i type="logical" name="LFXHEG"> F  </i>
   <i type="int" name="NATURALO">     2</i>
   <i type="logical" name="LHOLEGF"> F  </i>
   <i type="logical" name="L2ORDER"> F  </i>
   <i type="logical" name="LDMP1"> F  </i>
   <i type="logical" name="LMP2LT"> F  </i>
   <i type="logical" name="LSMP2LT"> F  </i>
   <i type="logical" name="LGWLF"> F  </i>
   <i name="ENCUTGW">     -2.00000000</i>
   <i name="ENCUTGWSOFT">     -2.00000000</i>
   <i name="ENCUTLF">     -1.00000000</i>
   <i type="logical" name="LESF_SPLINES"> F  </i>
   <i type="int" name="LMAXMP2">    -1</i>
   <i name="SCISSOR">      0.00000000</i>
   <i type="int" name="NOMEGA">     0</i>
   <i type="int" name="NOMEGAR">     0</i>
   <i type="int" name="NBANDSGW">    -1</i>
   <i type="int" name="NBANDSO">    -1</i>
   <i type="int" name="NBANDSV">    -1</i>
   <i type="int" name="NELM">     1</i>
   <i type="int" name="NELMHF">     1</i>
   <i type="int" name="DIM">     3</i>
   <i type="int" name="IESPILON">     4</i>
   <i type="int" name="ANTIRES">     0</i>
   <i name="OMEGAMAX">    -30.00000000</i>
   <i name="OMEGAMIN">    -30.00000000</i>
   <i name="OMEGATL">   -200.00000000</i>
   <i type="int" name="OMEGAGRID">     0</i>
   <i name="CSHIFT">     -0.10000000</i>
   <i type="logical" name="LSELFENERGY"> F  </i>
   <i type="logical" name="LSPECTRAL"> F  </i>
   <i type="logical" name="LSPECTRALGW"> F  </i>
   <i type="logical" name="LSINGLES"> F  </i>
   <i type="logical" name="LFERMIGW"> F  </i>
   <i type="logical" name="ODDONLYGW"> F  </i>
   <i type="logical" name="EVENONLYGW"> F  </i>
   <i type="int" name="NKREDLFX">     1</i>
   <i type="int" name="NKREDLFY">     1</i>
   <i type="int" name="NKREDLFZ">     1</i>
   <i type="int" name="MAXMEM">  2800</i>
   <i type="int" name="TELESCOPE">     0</i>
   <i type="int" name="NTAUPAR">    -1</i>
   <i type="int" name="NOMEGAPAR">    -1</i>
   <i name="DAMP_NEWTON">      0.80000001</i>
   <i name="LAMBDA">      1.00000000</i>
  </separator>
  <separator name="External order field" >
   <i name="OFIELD_KAPPA">      0.00000000</i>
   <v name="OFIELD_K">      0.00000000      0.00000000      0.00000000</v>
   <i name="OFIELD_Q6_NEAR">      0.00000000</i>
   <i name="OFIELD_Q6_FAR">      0.00000000</i>
   <i name="OFIELD_A">      0.00000000</i>
  </separator>
 </parameters>
 <atominfo>
  <atoms>       4 </atoms>
  <types>       1 </types>
  <array name="atoms" >
   <dimension dim="1">ion</dimension>
   <field type="string">element</field>
   <field type="int">atomtype</field>
   <set>
    <rc><c>Fe</c><c>   1</c></rc>
    <rc><c>Fe</c><c>   1</c></rc>
    <rc><c>Fe</c><c>   1</c></rc>
    <rc><c>Fe</c><c>   1</c></rc>
   </set>
  </array>
  <array name="atomtypes" >
   <dimension dim="1">type</dimension>
   <field type="int">atomspertype</field>
   <field type="string">element</field>
   <field>mass</field>
   <field>valence</field>
   <field type="string">pseudopotential</field>
   <set>
    <rc><c>   4</c><c>Fe</c><c>     55.84700000</c><c>      8.00000000</c><c>  PAW_PBE Fe 06Sep2000                  </c></rc>
   </set>
  </array>
 </atominfo>
 <structure name="initialpos" >
  <crystal>
   <varray name="basis" >
    <v>       3.44508300       0.00000000       0.00000000 </v>
    <v>       0.00000000       3.44508300       0.00000000 </v>
    <v>       0.00000000       0.00000000       3.44508300 </v>
   </varray>
   <i name="volume">     40.88830133 </i>
   <varray name="rec_basis" >
    <v>       0.29026877       0.00000000       0.00000000 </v>
    <v>       0.00000000       0.29026877       0.00000000 </v>
    <v>       0.00000000       0.00000000       0.29026877 </v>
   </varray>
  </crystal>
  <varray name="positions" >
   <v>       0.00000000       0.00000000       0.00000000 </v>
   <v>       0.50000000       0.50000000       0.00000000 </v>
   <v>       0.50000000       0.00000000       0.50000000 </v>
   <v>       0.00000000       0.50000000       0.50000000 </v>
  </varray>
 </structure>
 <calculation>
  <scstep>
   <time name="dav">    0.13    0.15</time>
   <time name="total">    0.14    0.16</time>
   <energy>
    <i name="alphaZ">    270.44909666 </i>
    <i name="ewald">  -2452.97223925 </i>
    <i name="hartreedc">   -414.53988404 </i>
    <i name="XCdc">     16.92970068 </i>
    <i name="pawpsdc">   2219.38341365 </i>
    <i name="pawaedc">  -2250.19294531 </i>
    <i name="eentropy">     -0.02596029 </i>
    <i name="bandstr">    357.76261673 </i>
    <i name="atom">   2376.84357397 </i>
    <i name="e_fr_energy">    123.63737282 </i>
    <i name="e_wo_entrp">    123.66333311 </i>
    <i name="e_0_energy">    123.64602625 </i>
   </energy>
  </scstep>
  <scstep>
   <time name="dav">    0.11    0.11</time>
   <time name="total">    0.11    0.11</time>
   <energy>
    <i name="e_fr_energy">    -30.46626740 </i>
    <i name="e_wo_entrp">    -30.45586421 </i>
    <i name="e_0_energy">    -30.46279967 </i>
   </energy>
  </scstep>
  <scstep>
   <time name="dav">    0.12    0.12</time>
   <time name="total">    0.12    0.12</time>
   <energy>
    <i name="e_fr_energy">    -38.49102630 </i>
    <i name="e_wo_entrp">    -38.45946134 </i>
    <i name="e_0_energy">    -38.48050465 </i>
   </energy>
  </scstep>
  <scstep>
   <time name="dav">    0.12    0.12</time>
   <time name="total">    0.12    0.12</time>
   <energy>
    <i name="e_fr_energy">    -38.55188171 </i>
    <i name="e_wo_entrp">    -38.52032164 </i>
    <i name="e_0_energy">    -38.54136168 </i>
   </energy>
  </scstep>
  <scstep>
   <time name="dav">    0.11    0.11</time>
   <time name="total">    0.12    0.12</time>
   <energy>
    <i name="e_fr_energy">    -38.55238512 </i>
    <i name="e_wo_entrp">    -38.52082481 </i>
    <i name="e_0_energy">    -38.54186502 </i>
   </energy>
  </scstep>
  <scstep>
   <time name="dav">    0.11    0.11</time>
   <time name="total">    0.13    0.13</time>
   <energy>
    <i name="e_fr_energy">    -32.37901713 </i>
    <i name="e_wo_entrp">    -32.32369446 </i>
    <i name="e_0_energy">    -32.36057624 </i>
   </energy>
  </scstep>
  <scstep>
   <time name="dav">    0.11    0.11</time>
   <time name="total">    0.13    0.13</time>
   <energy>
    <i name="e_fr_energy">    -32.06567856 </i>
    <i name="e_wo_entrp">    -32.01455544 </i>
    <i name="e_0_energy">    -32.04863752 </i>
   </energy>
  </scstep>
  <scstep>
   <time name="dav">    0.12    0.12</time>
   <time name="total">    0.14    0.14</time>
   <energy>
    <i name="e_fr_energy">    -32.02207310 </i>
    <i name="e_wo_entrp">    -31.96958591 </i>
    <i name="e_0_energy">    -32.00457737 </i>
   </energy>
  </scstep>
  <scstep>
   <time name="dav">    0.12    0.12</time>
   <time name="total">    0.13    0.13</time>
   <energy>
    <i name="e_fr_energy">    -32.00106446 </i>
    <i name="e_wo_entrp">    -31.94902242 </i>
    <i name="e_0_energy">    -31.98371711 </i>
   </energy>
  </scstep>
  <scstep>
   <time name="dav">    0.11    0.11</time>
   <time name="total">    0.13    0.13</time>
   <energy>
    <i name="e_fr_energy">    -32.00108311 </i>
    <i name="e_wo_entrp">    -31.94898934 </i>
    <i name="e_0_energy">    -31.98371852 </i>
   </energy>
  </scstep>
  <scstep>
   <time name="dav">    0.12    0.12</time>
   <time name="total">    0.14    0.14</time>
   <energy>
    <i name="e_fr_energy">    -32.00104383 </i>
    <i name="e_wo_entrp">    -31.94899983 </i>
    <i name="e_0_energy">    -31.98369583 </i>
   </energy>
  </scstep>
  <scstep>
   <time name="dav">    0.12    0.12</time>
   <time name="total">    0.13    0.13</time>
   <energy>
    <i name="e_fr_energy">    -32.00103778 </i>
    <i name="e_wo_entrp">    -31.94898020 </i>
    <i name="e_0_energy">    -31.98368526 </i>
   </energy>
  </scstep>
  <scstep>
   <time name="dav">    0.08    0.08</time>
   <time name="total">    0.09    0.09</time>
   <energy>
    <i name="e_fr_energy">    -32.00103903 </i>
    <i name="e_wo_entrp">    -31.94898616 </i>
    <i name="e_0_energy">    -31.98368807 </i>
   </energy>
  </scstep>
  <scstep>
   <time name="dav">    0.07    0.07</time>
   <time name="total">    0.08    0.08</time>
   <energy>
    <i name="alphaZ">    270.44909666 </i>
    <i name="ewald">  -2452.97223925 </i>
    <i name="hartreedc">   -345.25244728 </i>
    <i name="XCdc">     13.63631740 </i>
    <i name="pawpsdc">   2945.74326763 </i>
    <i name="pawaedc">  -2978.83657784 </i>
    <i name="eentropy">     -0.05205241 </i>
    <i name="bandstr">    138.44002180 </i>
    <i name="atom">   2376.84357397 </i>
    <i name="e_fr_energy">    -32.00103932 </i>
    <i name="e_wo_entrp">    -31.94898691 </i>
    <i name="e_0_energy">    -31.98368852 </i>
   </energy>
  </scstep>
  <structure>
   <crystal>
    <varray name="basis" >
     <v>       3.44508300       0.00000000       0.00000000 </v>
     <v>       0.00000000       3.44508300       0.00000000 </v>
     <v>       0.00000000       0.00000000       3.44508300 </v>
    </varray>
    <i name="volume">     40.88830133 </i>
    <varray name="rec_basis" >
     <v>       0.29026877       0.00000000       0.00000000 </v>
     <v>       0.00000000       0.29026877       0.00000000 </v>
     <v>       0.00000000       0.00000000       0.29026877 </v>
    </varray>
   </crystal>
   <varray name="positions" >
    <v>       0.00000000       0.00000000       0.00000000 </v>
    <v>       0.50000000       0.50000000       0.00000000 </v>
    <v>       0.50000000       0.00000000       0.50000000 </v>
    <v>       0.00000000       0.50000000       0.50000000 </v>
   </varray>
  </structure>
  <varray name="forces" >
   <v>      -0.00000000       0.00000000       0.00000000 </v>
   <v>      -0.00000000      -0.00000000      -0.00000000 </v>
   <v>       0.00000000       0.00000000      -0.00000000 </v>
   <v>       0.00000000      -0.00000000       0.00000000 </v>
  </varray>
  <varray name="stress" >
   <v>    -229.19791093      -0.00000000      -0.00000000 </v>
   <v>      -0.00000000    -229.19791093       0.00000000 </v>
   <v>       0.00000000      -0.00000000    -229.19791093 </v>
  </varray>
  <energy>
   <i name="e_fr_energy">    -32.00103932 </i>
   <i name="e_wo_entrp">    -31.94898691 </i>
   <i name="e_0_energy">    -31.98368852 </i>
  </energy>
  <time name="totalsc">    1.86    1.88</time>
  <eigenvalues>
   <array>
    <dimension dim="1">band</dimension>
    <dimension dim="2">kpoint</dimension>
    <dimension dim="3">spin</dimension>
    <field>eigene</field>
    <field>occ</field>
    <set>
     <set comment="spin 1">
      <set comment="kpoint 1">
       <r>   -2.0314    1.0000 </r>
       <r>    1.8209    1.0000 </r>
       <r>    1.8209    1.0000 </r>
       <r>    1.8209    1.0000 </r>
       <r>    2.5611    1.0000 </r>
       <r>    2.5611    1.0000 </r>
       <r>    2.5611    1.0000 </r>
       <r>    5.2176    1.0000 </r>
       <r>    5.2176    1.0000 </r>
       <r>    5.2176    1.0000 </r>
       <r>    6.7291    0.5712 </r>
       <r>    6.7291    0.5712 </r>
       <r>    7.6924   -0.0000 </r>
       <r>    7.6924   -0.0000 </r>
       <r>    7.6924   -0.0000 </r>
       <r>    7.9820   -0.0000 </r>
       <r>    7.9820   -0.0000 </r>
       <r>    7.9820   -0.0000 </r>
       <r>    7.9820   -0.0000 </r>
       <r>    7.9820   -0.0000 </r>
       <r>    7.9820   -0.0000 </r>
       <r>   10.0720   -0.0000 </r>
       <r>   10.0720   -0.0000 </r>
       <r>   10.0720   -0.0000 </r>
       <r>   18.5456    0.0000 </r>
       <r>   18.5456    0.0000 </r>
       <r>   18.5456    0.0000 </r>
       <r>   23.0810    0.0000 </r>
       <r>   23.0810    0.0000 </r>
       <r>   23.0810    0.0000 </r>
       <r>   23.0810    0.0000 </r>
       <r>   23.0810    0.0000 </r>
       <r>   23.0810    0.0000 </r>
       <r>   28.7266    0.0000 </r>
       <r>   28.7266    0.0000 </r>
       <r>   28.7266    0.0000 </r>
       <r>   30.1706    0.0000 </r>
       <r>   33.4055    0.0000 </r>
       <r>   33.4055    0.0000 </r>
       <r>   33.4055    0.0000 </r>
      </set>
      <set comment="kpoint 2">
       <r>   -1.4703    1.0000 </r>
       <r>    1.9333    1.0000 </r>
       <r>    2.1575    1.0000 </r>
       <r>    2.1575    1.0000 </r>
       <r>    2.7785    1.0000 </r>
       <r>    2.8371    1.0000 </r>
       <r>    2.8371    1.0000 </r>
       <r>    4.8656    1.0000 </r>
       <r>    5.3357    1.0000 </r>
       <r>    5.3357    1.0000 </r>
       <r>    6.4216    1.0220 </r>
       <r>    6.5545    1.0202 </r>
       <r>    6.5545    1.0202 </r>
       <r>    6.7983    0.2871 </r>
       <r>    7.3629   -0.0001 </r>
       <r>    7.3629   -0.0001 </r>
       <r>    7.5901   -0.0000 </r>
       <r>    7.6109   -0.0000 </r>
       <r>    7.6109   -0.0000 </r>
       <r>    7.9853   -0.0000 </r>
       <r>    7.9853   -0.0000 </r>
       <r>    8.2357   -0.0000 </r>
       <r>   11.8967   -0.0000 </r>
       <r>   11.8967   -0.0000 </r>
       <r>   18.5549    0.0000 </r>
       <r>   18.5549    0.0000 </r>
       <r>   21.1356    0.0000 </r>
       <r>   21.1356    0.0000 </r>
       <r>   21.1596    0.0000 </r>
       <r>   22.0044    0.0000 </r>
       <r>   22.0044    0.0000 </r>
       <r>   24.0101    0.0000 </r>
       <r>   24.0101    0.0000 </r>
       <r>   28.7892    0.0000 </r>
       <r>   29.8911    0.0000 </r>
       <r>   31.2525    0.0000 </r>
       <r>   31.2525    0.0000 </r>
       <r>   33.1900    0.0000 </r>
       <r>   33.4616    0.0000 </r>
       <r>   33.4616    0.0000 </r>
      </set>
      <set comment="kpoint 3">
       <r>    0.0401    1.0000 </r>
       <r>    1.6216    1.0000 </r>
       <r>    2.8500    1.0000 </r>
       <r>    2.8500    1.0000 </r>
       <r>    3.3758    1.0000 </r>
       <r>    3.5973    1.0000 </r>
       <r>    3.5973    1.0000 </r>
       <r>    4.1660    1.0000 </r>
       <r>    4.8628    1.0000 </r>
       <r>    4.8628    1.0000 </r>
       <r>    5.8800    1.0000 </r>
       <r>    5.9094    1.0000 </r>
       <r>    5.9094    1.0000 </r>
       <r>    6.0514    1.0000 </r>
       <r>    6.6731    0.7870 </r>
       <r>    6.6731    0.7870 </r>
       <r>    6.7740    0.3829 </r>
       <r>    6.7740    0.3829 </r>
       <r>    7.0127   -0.0339 </r>
       <r>    7.3273   -0.0002 </r>
       <r>    8.0003   -0.0000 </r>
       <r>    8.0003   -0.0000 </r>
       <r>   14.7716    0.0000 </r>
       <r>   14.7716    0.0000 </r>
       <r>   17.9332    0.0000 </r>
       <r>   17.9332    0.0000 </r>
       <r>   18.6046    0.0000 </r>
       <r>   18.6046    0.0000 </r>
       <r>   20.7132    0.0000 </r>
       <r>   20.7132    0.0000 </r>
       <r>   25.7498    0.0000 </r>
       <r>   26.4743    0.0000 </r>
       <r>   26.4743    0.0000 </r>
       <r>   29.0100    0.0000 </r>
       <r>   29.3801    0.0000 </r>
       <r>   29.8012    0.0000 </r>
       <r>   29.8331    0.0000 </r>
       <r>   29.8331    0.0000 </r>
       <r>   34.9399    0.0000 </r>
       <r>   35.8290    0.0000 </r>
      </set>
      <set comment="kpoint 4">
       <r>   -0.9353    1.0000 </r>
       <r>    2.2992    1.0000 </r>
       <r>    2.2992    1.0000 </r>
       <r>    2.4494    1.0000 </r>
       <r>    3.0286    1.0000 </r>
       <r>    3.0313    1.0000 </r>
       <r>    3.0313    1.0000 </r>
       <r>    4.7252    1.0000 </r>
       <r>    5.4304    1.0000 </r>
       <r>    5.4377    1.0000 </r>
       <r>    5.9809    1.0000 </r>
       <r>    6.0036    1.0000 </r>
       <r>    6.0036    1.0000 </r>
       <r>    6.3687    1.0113 </r>
       <r>    6.8129    0.2337 </r>
       <r>    7.0958   -0.0165 </r>
       <r>    7.3352   -0.0001 </r>
       <r>    7.3352   -0.0001 </r>
       <r>    7.6239   -0.0000 </r>
       <r>    7.6239   -0.0000 </r>
       <r>    7.7361   -0.0000 </r>
       <r>   10.0664   -0.0000 </r>
       <r>   10.0664   -0.0000 </r>
       <r>   13.1191    0.0000 </r>
       <r>   17.3426    0.0000 </r>
       <r>   19.1874    0.0000 </r>
       <r>   21.1946    0.0000 </r>
       <r>   21.1946    0.0000 </r>
       <r>   21.9051    0.0000 </r>
       <r>   21.9051    0.0000 </r>
       <r>   22.9585    0.0000 </r>
       <r>   22.9585    0.0000 </r>
       <r>   24.8608    0.0000 </r>
       <r>   28.4433    0.0000 </r>
       <r>   29.7143    0.0000 </r>
       <r>   30.1652    0.0000 </r>
       <r>   31.5198    0.0000 </r>
       <r>   31.5198    0.0000 </r>
       <r>   34.3433    0.0000 </r>
       <r>   36.0955    0.0000 </r>
      </set>
      <set comment="kpoint 5">
       <r>    0.5016    1.0000 </r>
       <r>    2.0253    1.0000 </r>
       <r>    3.0751    1.0000 </r>
       <r>    3.1278    1.0000 </r>
       <r>    3.5365    1.0000 </r>
       <r>    3.5485    1.0000 </r>
       <r>    3.7015    1.0000 </r>
       <r>    4.1971    1.0000 </r>
       <r>    4.4967    1.0000 </r>
       <r>    4.7731    1.0000 </r>
       <r>    5.1863    1.0000 </r>
       <r>    5.3663    1.0000 </r>
       <r>    5.9306    1.0000 </r>
       <r>    6.2383    1.0010 </r>
       <r>    6.5591    1.0170 </r>
       <r>    6.6696    0.7988 </r>
       <r>    6.7709    0.3958 </r>
       <r>    6.8386    0.1511 </r>
       <r>    7.2552   -0.0009 </r>
       <r>    7.6143   -0.0000 </r>
       <r>    7.6229   -0.0000 </r>
       <r>    8.1092   -0.0000 </r>
       <r>   12.2515    0.0000 </r>
       <r>   14.5686    0.0000 </r>
       <r>   15.6619    0.0000 </r>
       <r>   18.6914    0.0000 </r>
       <r>   19.4581    0.0000 </r>
       <r>   20.3781    0.0000 </r>
       <r>   22.8174    0.0000 </r>
       <r>   23.8037    0.0000 </r>
       <r>   24.0475    0.0000 </r>
       <r>   24.2545    0.0000 </r>
       <r>   26.1456    0.0000 </r>
       <r>   26.6084    0.0000 </r>
       <r>   27.0092    0.0000 </r>
       <r>   32.2452    0.0000 </r>
       <r>   32.3201    0.0000 </r>
       <r>   33.3230    0.0000 </r>
       <r>   33.5476    0.0000 </r>
       <r>   36.1886    0.0000 </r>
      </set>
      <set comment="kpoint 6">
       <r>    1.6913    1.0000 </r>
       <r>    2.9335    1.0000 </r>
       <r>    2.9335    1.0000 </r>
       <r>    3.4330    1.0000 </r>
       <r>    3.8131    1.0000 </r>
       <r>    3.9385    1.0000 </r>
       <r>    3.9385    1.0000 </r>
       <r>    4.1686    1.0000 </r>
       <r>    4.3734    1.0000 </r>
       <r>    4.3734    1.0000 </r>
       <r>    4.4470    1.0000 </r>
       <r>    5.0177    1.0000 </r>
       <r>    5.9836    1.0000 </r>
       <r>    6.1689    1.0002 </r>
       <r>    6.2145    1.0006 </r>
       <r>    6.3008    1.0036 </r>
       <r>    6.3008    1.0036 </r>
       <r>    6.8058    0.2591 </r>
       <r>    6.8058    0.2591 </r>
       <r>    7.0599   -0.0245 </r>
       <r>    8.1794   -0.0000 </r>
       <r>    9.6339   -0.0000 </r>
       <r>    9.6339   -0.0000 </r>
       <r>   11.6122   -0.0000 </r>
       <r>   17.8021    0.0000 </r>
       <r>   20.2955    0.0000 </r>
       <r>   20.5901    0.0000 </r>
       <r>   20.5901    0.0000 </r>
       <r>   21.8069    0.0000 </r>
       <r>   21.8069    0.0000 </r>
       <r>   23.1646    0.0000 </r>
       <r>   23.8612    0.0000 </r>
       <r>   28.0866    0.0000 </r>
       <r>   28.0866    0.0000 </r>
       <r>   29.2879    0.0000 </r>
       <r>   30.8393    0.0000 </r>
       <r>   33.2767    0.0000 </r>
       <r>   34.9275    0.0000 </r>
       <r>   35.8642    0.0000 </r>
       <r>   35.8642    0.0000 </r>
      </set>
      <set comment="kpoint 7">
       <r>   -0.4434    1.0000 </r>
       <r>    2.5618    1.0000 </r>
       <r>    2.5618    1.0000 </r>
       <r>    2.5618    1.0000 </r>
       <r>    3.2159    1.0000 </r>
       <r>    3.2159    1.0000 </r>
       <r>    3.2159    1.0000 </r>
       <r>    4.6785    1.0000 </r>
       <r>    5.4254    1.0000 </r>
       <r>    5.4254    1.0000 </r>
       <r>    5.5758    1.0000 </r>
       <r>    5.5758    1.0000 </r>
       <r>    5.5758    1.0000 </r>
       <r>    6.6409    0.8838 </r>
       <r>    6.6409    0.8838 </r>
       <r>    6.7050    0.6697 </r>
       <r>    6.7050    0.6697 </r>
       <r>    6.7050    0.6697 </r>
       <r>    7.8270   -0.0000 </r>
       <r>    7.8270   -0.0000 </r>
       <r>    7.8270   -0.0000 </r>
       <r>   10.8787   -0.0000 </r>
       <r>   10.8787   -0.0000 </r>
       <r>   10.8787   -0.0000 </r>
       <r>   18.4584    0.0000 </r>
       <r>   18.4584    0.0000 </r>
       <r>   18.4584    0.0000 </r>
       <r>   21.8596    0.0000 </r>
       <r>   21.8596    0.0000 </r>
       <r>   21.8596    0.0000 </r>
       <r>   25.6342    0.0000 </r>
       <r>   25.6601    0.0000 </r>
       <r>   25.6601    0.0000 </r>
       <r>   25.6601    0.0000 </r>
       <r>   30.3149    0.0000 </r>
       <r>   30.3149    0.0000 </r>
       <r>   30.3149    0.0000 </r>
       <r>   31.0787    0.0000 </r>
       <r>   34.8095    0.0000 </r>
       <r>   34.8095    0.0000 </r>
      </set>
      <set comment="kpoint 8">
       <r>    0.8548    1.0000 </r>
       <r>    2.2235    1.0000 </r>
       <r>    3.1516    1.0000 </r>
       <r>    3.1516    1.0000 </r>
       <r>    3.6041    1.0000 </r>
       <r>    3.6041    1.0000 </r>
       <r>    3.7624    1.0000 </r>
       <r>    4.3416    1.0000 </r>
       <r>    4.7735    1.0000 </r>
       <r>    4.7735    1.0000 </r>
       <r>    5.0235    1.0000 </r>
       <r>    5.2944    1.0000 </r>
       <r>    5.5825    1.0000 </r>
       <r>    6.0563    1.0000 </r>
       <r>    6.2751    1.0022 </r>
       <r>    6.2751    1.0022 </r>
       <r>    6.8087    0.2488 </r>
       <r>    7.1803   -0.0044 </r>
       <r>    7.6575   -0.0000 </r>
       <r>    7.6591   -0.0000 </r>
       <r>    7.6591   -0.0000 </r>
       <r>    8.2430   -0.0000 </r>
       <r>   12.3484    0.0000 </r>
       <r>   12.3484    0.0000 </r>
       <r>   15.9179    0.0000 </r>
       <r>   15.9179    0.0000 </r>
       <r>   20.3118    0.0000 </r>
       <r>   22.6458    0.0000 </r>
       <r>   22.6458    0.0000 </r>
       <r>   22.7259    0.0000 </r>
       <r>   24.9058    0.0000 </r>
       <r>   24.9058    0.0000 </r>
       <r>   26.5474    0.0000 </r>
       <r>   27.8749    0.0000 </r>
       <r>   29.6061    0.0000 </r>
       <r>   31.1098    0.0000 </r>
       <r>   31.1647    0.0000 </r>
       <r>   33.3983    0.0000 </r>
       <r>   33.3983    0.0000 </r>
       <r>   34.7071    0.0000 </r>
      </set>
      <set comment="kpoint 9">
       <r>    1.6953    1.0000 </r>
       <r>    2.5637    1.0000 </r>
       <r>    2.5637    1.0000 </r>
       <r>    2.8663    1.0000 </r>
       <r>    4.1120    1.0000 </r>
       <r>    4.3158    1.0000 </r>
       <r>    4.3158    1.0000 </r>
       <r>    4.6679    1.0000 </r>
       <r>    4.8452    1.0000 </r>
       <r>    4.8452    1.0000 </r>
       <r>    5.0248    1.0000 </r>
       <r>    5.1083    1.0000 </r>
       <r>    5.4355    1.0000 </r>
       <r>    5.7326    1.0000 </r>
       <r>    5.7326    1.0000 </r>
       <r>    5.7539    1.0000 </r>
       <r>    6.8788    0.0534 </r>
       <r>    7.4142   -0.0000 </r>
       <r>    7.4142   -0.0000 </r>
       <r>    7.4574   -0.0000 </r>
       <r>    7.9454   -0.0000 </r>
       <r>    9.4787   -0.0000 </r>
       <r>    9.4787   -0.0000 </r>
       <r>   11.1191   -0.0000 </r>
       <r>   15.6263    0.0000 </r>
       <r>   17.4889    0.0000 </r>
       <r>   17.4889    0.0000 </r>
       <r>   19.7691    0.0000 </r>
       <r>   23.8410    0.0000 </r>
       <r>   25.5977    0.0000 </r>
       <r>   25.5977    0.0000 </r>
       <r>   27.6520    0.0000 </r>
       <r>   28.5531    0.0000 </r>
       <r>   28.5531    0.0000 </r>
       <r>   29.8154    0.0000 </r>
       <r>   30.7898    0.0000 </r>
       <r>   32.4306    0.0000 </r>
       <r>   33.6988    0.0000 </r>
       <r>   33.6988    0.0000 </r>
       <r>   35.2863    0.0000 </r>
      </set>
      <set comment="kpoint 10">
       <r>    1.7979    1.0000 </r>
       <r>    2.1872    1.0000 </r>
       <r>    2.1872    1.0000 </r>
       <r>    2.1872    1.0000 </r>
       <r>    4.7573    1.0000 </r>
       <r>    4.7573    1.0000 </r>
       <r>    4.7573    1.0000 </r>
       <r>    5.1108    1.0000 </r>
       <r>    5.1108    1.0000 </r>
       <r>    5.2646    1.0000 </r>
       <r>    5.2646    1.0000 </r>
       <r>    5.2646    1.0000 </r>
       <r>    5.8263    1.0000 </r>
       <r>    5.8263    1.0000 </r>
       <r>    5.8263    1.0000 </r>
       <r>    5.9216    1.0000 </r>
       <r>    7.5169   -0.0000 </r>
       <r>    7.5169   -0.0000 </r>
       <r>    7.7437   -0.0000 </r>
       <r>    7.7437   -0.0000 </r>
       <r>    7.7437   -0.0000 </r>
       <r>    9.0592   -0.0000 </r>
       <r>    9.0592   -0.0000 </r>
       <r>    9.0592   -0.0000 </r>
       <r>   15.4250    0.0000 </r>
       <r>   15.4250    0.0000 </r>
       <r>   15.4250    0.0000 </r>
       <r>   17.0036    0.0000 </r>
       <r>   27.8262    0.0000 </r>
       <r>   27.8262    0.0000 </r>
       <r>   27.8262    0.0000 </r>
       <r>   29.0966    0.0000 </r>
       <r>   31.4316    0.0000 </r>
       <r>   31.4316    0.0000 </r>
       <r>   31.4316    0.0000 </r>
       <r>   31.8682    0.0000 </r>
       <r>   31.8682    0.0000 </r>
       <r>   31.8682    0.0000 </r>
       <r>   33.9828    0.0000 </r>
       <r>   33.9828    0.0000 </r>
      </set>
     </set>
    </set>
   </array>
  </eigenvalues>
  <separator name="orbital magnetization" >
   <v name="MAGDIPOLOUT">      0.00000000      0.00000000      0.00000000</v>
  </separator>
  <dos>
   <i name="efermi">      6.74604370 </i>
   <total>
    <array>
     <dimension dim="1">gridpoints</dimension>
     <dimension dim="2">spin</dimension>
     <field>energy</field>
     <field>total</field>
     <field>integrated</field>
     <set>
      <set comment="spin 1">
       <r>    -4.0314     0.0000     0.0000 </r>
       <r>    -3.8907     0.0000     0.0000 </r>
       <r>    -3.7500    -0.0000    -0.0000 </r>
       <r>    -3.6092    -0.0000    -0.0000 </r>
       <r>    -3.4685    -0.0000    -0.0000 </r>
       <r>    -3.3278    -0.0000    -0.0000 </r>
       <r>    -3.1870    -0.0000    -0.0000 </r>
       <r>    -3.0463    -0.0000    -0.0000 </r>
       <r>    -2.9056    -0.0000    -0.0000 </r>
       <r>    -2.7648    -0.0000    -0.0000 </r>
       <r>    -2.6241    -0.0000    -0.0000 </r>
       <r>    -2.4834    -0.0003    -0.0001 </r>
       <r>    -2.3426    -0.0025    -0.0004 </r>
       <r>    -2.2019     0.0026    -0.0000 </r>
       <r>    -2.0612     0.0429     0.0060 </r>
       <r>    -1.9204     0.0573     0.0141 </r>
       <r>    -1.7797     0.0003     0.0141 </r>
       <r>    -1.6390     0.0142     0.0161 </r>
       <r>    -1.4982     0.2603     0.0528 </r>
       <r>    -1.3575     0.3475     0.1017 </r>
       <r>    -1.2168     0.0545     0.1093 </r>
       <r>    -1.0760     0.0778     0.1203 </r>
       <r>    -0.9353     0.6222     0.2078 </r>
       <r>    -0.7946     0.6154     0.2945 </r>
       <r>    -0.6538     0.0838     0.3062 </r>
       <r>    -0.5131     0.1952     0.3337 </r>
       <r>    -0.3724     0.4949     0.4034 </r>
       <r>    -0.2316     0.2083     0.4327 </r>
       <r>    -0.0909     0.0480     0.4394 </r>
       <r>     0.0498     0.3087     0.4829 </r>
       <r>     0.1906     0.2361     0.5161 </r>
       <r>     0.3313     0.0972     0.5298 </r>
       <r>     0.4720     0.9893     0.6690 </r>
       <r>     0.6128     1.3552     0.8597 </r>
       <r>     0.7535     0.8126     0.9741 </r>
       <r>     0.8942     1.3935     1.1702 </r>
       <r>     1.0350     0.9266     1.3006 </r>
       <r>     1.1757     0.0239     1.3040 </r>
       <r>     1.3165    -0.1160     1.2877 </r>
       <r>     1.4572    -0.1047     1.2729 </r>
       <r>     1.5979     0.9525     1.4070 </r>
       <r>     1.7387     2.8131     1.8029 </r>
       <r>     1.8794     2.3496     2.1335 </r>
       <r>     2.0201     1.9732     2.4112 </r>
       <r>     2.1609     3.8864     2.9582 </r>
       <r>     2.3016     4.8440     3.6399 </r>
       <r>     2.4423     3.7373     4.1658 </r>
       <r>     2.5831     4.7686     4.8370 </r>
       <r>     2.7238     3.9302     5.3901 </r>
       <r>     2.8645     3.7865     5.9230 </r>
       <r>     3.0053     6.6833     6.8635 </r>
       <r>     3.1460     8.9393     8.1216 </r>
       <r>     3.2867     6.1494     8.9870 </r>
       <r>     3.4275     2.6781     9.3639 </r>
       <r>     3.5682     5.9851    10.2062 </r>
       <r>     3.7089     8.0266    11.3358 </r>
       <r>     3.8497     4.9136    12.0273 </r>
       <r>     3.9904     2.5036    12.3797 </r>
       <r>     4.1311     3.3514    12.8513 </r>
       <r>     4.2719     6.5231    13.7693 </r>
       <r>     4.4126     7.7166    14.8553 </r>
       <r>     4.5533     4.7443    15.5230 </r>
       <r>     4.6941     5.9264    16.3570 </r>
       <r>     4.8348    10.9939    17.9043 </r>
       <r>     4.9755     9.2224    19.2022 </r>
       <r>     5.1163     7.1005    20.2014 </r>
       <r>     5.2570     7.4398    21.2485 </r>
       <r>     5.3977     8.3372    22.4218 </r>
       <r>     5.5385     7.3621    23.4579 </r>
       <r>     5.6792     6.0394    24.3078 </r>
       <r>     5.8199     7.2680    25.3307 </r>
       <r>     5.9607     8.2834    26.4964 </r>
       <r>     6.1014     7.4298    27.5421 </r>
       <r>     6.2421     7.3366    28.5746 </r>
       <r>     6.3829     6.9094    29.5470 </r>
       <r>     6.5236     3.9626    30.1046 </r>
       <r>     6.6643     6.8297    31.0658 </r>
       <r>     6.8051    11.8322    32.7310 </r>
       <r>     6.9458     8.9964    33.9971 </r>
       <r>     7.0865     3.4690    34.4853 </r>
       <r>     7.2273     3.8374    35.0253 </r>
       <r>     7.3680     6.6741    35.9646 </r>
       <r>     7.5087     9.1572    37.2533 </r>
       <r>     7.6495    12.4666    39.0078 </r>
       <r>     7.7902    11.0442    40.5621 </r>
       <r>     7.9309     5.6261    41.3539 </r>
       <r>     8.0717     4.4424    41.9791 </r>
       <r>     8.2124     4.2678    42.5797 </r>
       <r>     8.3531     2.5352    42.9365 </r>
       <r>     8.4939     0.3525    42.9861 </r>
       <r>     8.6346    -0.1632    42.9631 </r>
       <r>     8.7753    -0.1048    42.9484 </r>
       <r>     8.9161     0.1761    42.9731 </r>
       <r>     9.0568     1.2122    43.1437 </r>
       <r>     9.1975     1.1215    43.3016 </r>
       <r>     9.3383     0.5251    43.3755 </r>
       <r>     9.4790     2.5719    43.7374 </r>
       <r>     9.6197     3.6427    44.2501 </r>
       <r>     9.7605     1.6588    44.4835 </r>
       <r>     9.9012     0.2196    44.5144 </r>
       <r>    10.0419     1.1014    44.6695 </r>
       <r>    10.1827     1.5619    44.8893 </r>
       <r>    10.3234     0.3818    44.9430 </r>
       <r>    10.4641    -0.0980    44.9292 </r>
       <r>    10.6049    -0.0990    44.9153 </r>
       <r>    10.7456     0.2019    44.9437 </r>
       <r>    10.8863     1.2462    45.1191 </r>
       <r>    11.0271     1.7149    45.3604 </r>
       <r>    11.1678     1.6410    45.5914 </r>
       <r>    11.3085     0.7710    45.6999 </r>
       <r>    11.4493     0.0336    45.7046 </r>
       <r>    11.5900     0.4638    45.7699 </r>
       <r>    11.7307     0.7274    45.8722 </r>
       <r>    11.8715     0.6574    45.9647 </r>
       <r>    12.0122     0.5047    46.0358 </r>
       <r>    12.1529     0.6046    46.1208 </r>
       <r>    12.2937     3.0758    46.5537 </r>
       <r>    12.4344     3.9259    47.1062 </r>
       <r>    12.5751     1.1395    47.2666 </r>
       <r>    12.7159    -0.1781    47.2415 </r>
       <r>    12.8566    -0.1090    47.2262 </r>
       <r>    12.9973     0.1455    47.2466 </r>
       <r>    13.1381     0.6873    47.3434 </r>
       <r>    13.2788     0.5589    47.4220 </r>
       <r>    13.4195     0.0516    47.4293 </r>
       <r>    13.5603    -0.0323    47.4247 </r>
       <r>    13.7010    -0.0051    47.4240 </r>
       <r>    13.8417    -0.0002    47.4240 </r>
       <r>    13.9825    -0.0004    47.4239 </r>
       <r>    14.1232    -0.0095    47.4226 </r>
       <r>    14.2639    -0.0641    47.4136 </r>
       <r>    14.4047     0.0700    47.4234 </r>
       <r>    14.5454     1.0563    47.5721 </r>
       <r>    14.6861     1.6779    47.8082 </r>
       <r>    14.8269     1.0811    47.9604 </r>
       <r>    14.9676     0.3271    48.0064 </r>
       <r>    15.1083    -0.0861    47.9943 </r>
       <r>    15.2491    -0.0266    47.9906 </r>
       <r>    15.3898     0.8425    48.1091 </r>
       <r>    15.5305     2.1260    48.4083 </r>
       <r>    15.6713     3.0723    48.8407 </r>
       <r>    15.8120     2.8404    49.2404 </r>
       <r>    15.9527     3.0320    49.6671 </r>
       <r>    16.0935     1.8559    49.9283 </r>
       <r>    16.2342     0.0722    49.9385 </r>
       <r>    16.3749    -0.1157    49.9222 </r>
       <r>    16.5157    -0.0164    49.9199 </r>
       <r>    16.6564    -0.0146    49.9178 </r>
       <r>    16.7971    -0.0107    49.9163 </r>
       <r>    16.9379     0.2305    49.9488 </r>
       <r>    17.0786     0.4343    50.0099 </r>
       <r>    17.2193     0.2159    50.0403 </r>
       <r>    17.3601     1.1795    50.2063 </r>
       <r>    17.5008     3.1832    50.6542 </r>
       <r>    17.6415     2.4151    50.9941 </r>
       <r>    17.7823     0.8618    51.1154 </r>
       <r>    17.9230     1.1408    51.2760 </r>
       <r>    18.0637     0.7667    51.3839 </r>
       <r>    18.2045    -0.0259    51.3802 </r>
       <r>    18.3452     0.2115    51.4100 </r>
       <r>    18.4859     1.9870    51.6896 </r>
       <r>    18.6267     3.4270    52.1719 </r>
       <r>    18.7674     2.5384    52.5292 </r>
       <r>    18.9081     0.5606    52.6081 </r>
       <r>    19.0489    -0.0264    52.6043 </r>
       <r>    19.1896     0.5184    52.6773 </r>
       <r>    19.3303     0.8721    52.8000 </r>
       <r>    19.4711     1.3656    52.9922 </r>
       <r>    19.6118     1.2427    53.1671 </r>
       <r>    19.7525     1.2579    53.3442 </r>
       <r>    19.8933     1.2646    53.5221 </r>
       <r>    20.0340     0.1219    53.5393 </r>
       <r>    20.1747     0.2507    53.5746 </r>
       <r>    20.3155     2.6240    53.9438 </r>
       <r>    20.4562     3.4941    54.4356 </r>
       <r>    20.5969     2.3152    54.7614 </r>
       <r>    20.7377     1.7393    55.0062 </r>
       <r>    20.8784     0.5283    55.0805 </r>
       <r>    21.0191     0.2298    55.1129 </r>
       <r>    21.1599     1.9623    55.3890 </r>
       <r>    21.3006     2.2908    55.7114 </r>
       <r>    21.4413     0.4395    55.7733 </r>
       <r>    21.5821    -0.3076    55.7300 </r>
       <r>    21.7228     0.7429    55.8345 </r>
       <r>    21.8636     3.8187    56.3720 </r>
       <r>    22.0043     4.1349    56.9539 </r>
       <r>    22.1450     1.2389    57.1282 </r>
       <r>    22.2858    -0.1719    57.1040 </r>
       <r>    22.4265    -0.2698    57.0661 </r>
       <r>    22.5672     1.2396    57.2405 </r>
       <r>    22.7080     4.4559    57.8676 </r>
       <r>    22.8487     4.6517    58.5223 </r>
       <r>    22.9894     2.8497    58.9233 </r>
       <r>    23.1302     1.7863    59.1747 </r>
       <r>    23.2709     0.9093    59.3027 </r>
       <r>    23.4116     0.0947    59.3160 </r>
       <r>    23.5524    -0.2343    59.2830 </r>
       <r>    23.6931     0.4842    59.3512 </r>
       <r>    23.8338     3.1262    59.7911 </r>
       <r>    23.9746     4.1274    60.3720 </r>
       <r>    24.1153     2.9137    60.7821 </r>
       <r>    24.2560     2.0147    61.0656 </r>
       <r>    24.3968     1.1353    61.2254 </r>
       <r>    24.5375     0.0364    61.2305 </r>
       <r>    24.6782    -0.1794    61.2052 </r>
       <r>    24.8190     1.5546    61.4240 </r>
       <r>    24.9597     3.7423    61.9507 </r>
       <r>    25.1004     1.8756    62.2146 </r>
       <r>    25.2412    -0.1463    62.1941 </r>
       <r>    25.3819    -0.3034    62.1513 </r>
       <r>    25.5226     1.6003    62.3766 </r>
       <r>    25.6634     4.9235    63.0695 </r>
       <r>    25.8041     3.3657    63.5431 </r>
       <r>    25.9448     0.3214    63.5884 </r>
       <r>    26.0856     0.5764    63.6695 </r>
       <r>    26.2263     1.3590    63.8607 </r>
       <r>    26.3670     0.7608    63.9678 </r>
       <r>    26.5078     2.0613    64.2579 </r>
       <r>    26.6485     3.3619    64.7310 </r>
       <r>    26.7892     1.3596    64.9224 </r>
       <r>    26.9300     0.5454    64.9991 </r>
       <r>    27.0707     1.4283    65.2001 </r>
       <r>    27.2114     0.7421    65.3046 </r>
       <r>    27.3522    -0.0951    65.2912 </r>
       <r>    27.4929    -0.0151    65.2891 </r>
       <r>    27.6336     1.0401    65.4355 </r>
       <r>    27.7744     2.6036    65.8019 </r>
       <r>    27.9151     3.3226    66.2695 </r>
       <r>    28.0558     2.4099    66.6086 </r>
       <r>    28.1966     1.2701    66.7874 </r>
       <r>    28.3373     0.4008    66.8438 </r>
       <r>    28.4780     1.9135    67.1131 </r>
       <r>    28.6188     3.5635    67.6146 </r>
       <r>    28.7595     1.8781    67.8789 </r>
       <r>    28.9002     0.4712    67.9452 </r>
       <r>    29.0410     0.5925    68.0286 </r>
       <r>    29.1817     0.9087    68.1565 </r>
       <r>    29.3224     1.0301    68.3014 </r>
       <r>    29.4632     0.9131    68.4299 </r>
       <r>    29.6039     1.4976    68.6407 </r>
       <r>    29.7446     3.1302    69.0812 </r>
       <r>    29.8854     3.6034    69.5883 </r>
       <r>    30.0261     1.5748    69.8100 </r>
       <r>    30.1668     0.7990    69.9224 </r>
       <r>    30.3076     1.7820    70.1732 </r>
       <r>    30.4483     1.3395    70.3617 </r>
       <r>    30.5890     0.1342    70.3806 </r>
       <r>    30.7298     0.8316    70.4976 </r>
       <r>    30.8705     2.0538    70.7867 </r>
       <r>    31.0112     1.8875    71.0523 </r>
       <r>    31.1520     3.2427    71.5087 </r>
       <r>    31.2927     3.3003    71.9731 </r>
       <r>    31.4334     2.5525    72.3323 </r>
       <r>    31.5742     2.5567    72.6922 </r>
       <r>    31.7149     1.0810    72.8443 </r>
       <r>    31.8556     1.0534    72.9925 </r>
       <r>    31.9964     1.1403    73.1530 </r>
       <r>    32.1371     0.6046    73.2381 </r>
       <r>    32.2778     2.4259    73.5795 </r>
       <r>    32.4186     3.6350    74.0911 </r>
       <r>    32.5593     1.8492    74.3513 </r>
       <r>    32.7000     0.1328    74.3700 </r>
       <r>    32.8408    -0.1308    74.3516 </r>
       <r>    32.9815    -0.1426    74.3315 </r>
       <r>    33.1222     0.0286    74.3356 </r>
       <r>    33.2630     2.0975    74.6307 </r>
       <r>    33.4037     5.5338    75.4095 </r>
       <r>    33.5444     5.5613    76.1922 </r>
       <r>    33.6852     4.1029    76.7696 </r>
       <r>    33.8259     2.7544    77.1573 </r>
       <r>    33.9666     1.1628    77.3209 </r>
       <r>    34.1074     0.7095    77.4208 </r>
       <r>    34.2481     0.3884    77.4754 </r>
       <r>    34.3888     0.6241    77.5632 </r>
       <r>    34.5296     0.4129    77.6214 </r>
       <r>    34.6703     1.0571    77.7701 </r>
       <r>    34.8110     2.5025    78.1223 </r>
       <r>    34.9518     2.2369    78.4371 </r>
       <r>    35.0925     0.8794    78.5609 </r>
       <r>    35.2332     0.8358    78.6785 </r>
       <r>    35.3740     1.4370    78.8807 </r>
       <r>    35.5147     0.4813    78.9485 </r>
       <r>    35.6554    -0.0871    78.9362 </r>
       <r>    35.7962     0.8696    79.0586 </r>
       <r>    35.9369     1.8582    79.3201 </r>
       <r>    36.0776     1.7015    79.5596 </r>
       <r>    36.2184     2.0526    79.8485 </r>
       <r>    36.3591     1.1337    80.0080 </r>
       <r>    36.4998     0.0219    80.0111 </r>
       <r>    36.6406    -0.0696    80.0013 </r>
       <r>    36.7813    -0.0089    80.0000 </r>
       <r>    36.9220    -0.0003    80.0000 </r>
       <r>    37.0628    -0.0000    80.0000 </r>
       <r>    37.2035    -0.0000    80.0000 </r>
       <r>    37.3442    -0.0000    80.0000 </r>
       <r>    37.4850    -0.0000    80.0000 </r>
       <r>    37.6257     0.0000    80.0000 </r>
       <r>    37.7664     0.0000    80.0000 </r>
       <r>    37.9072     0.0000    80.0000 </r>
       <r>    38.0479     0.0000    80.0000 </r>
       <r>    38.1886     0.0000    80.0000 </r>
      </set>
     </set>
    </array>
   </total>
  </dos>
 </calculation>
 <structure name="finalpos" >
  <crystal>
   <varray name="basis" >
    <v>       3.44508300       0.00000000       0.00000000 </v>
    <v>       0.00000000       3.44508300       0.00000000 </v>
    <v>       0.00000000       0.00000000       3.44508300 </v>
   </varray>
   <i name="volume">     40.88830133 </i>
   <varray name="rec_basis" >
    <v>       0.29026877       0.00000000       0.00000000 </v>
    <v>       0.00000000       0.29026877       0.00000000 </v>
    <v>       0.00000000       0.00000000       0.29026877 </v>
   </varray>
  </crystal>
  <varray name="positions" >
   <v>       0.00000000       0.00000000       0.00000000 </v>
   <v>       0.50000000       0.50000000       0.00000000 </v>
   <v>       0.50000000       0.00000000       0.50000000 </v>
   <v>       0.00000000       0.50000000       0.50000000 </v>
  </varray>
 </structure>
</modeling>
