unknown system                          
   1.00000000000000     
     3.635000    0.000000    0.000000
     0.000000    3.635000    0.000000
     0.000000    0.000000    3.635000
   Cu
     4
Direct
  0.000000  0.000000  0.000000
  0.500000  0.500000  0.000000
  0.500000  0.000000  0.500000
  0.000000  0.500000  0.500000
 
   24   24   24
  824.62      743.19      540.46      310.99      138.97      53.054      26.259      14.217      7.7173      7.1275    
  7.2227      5.3385      3.9845      5.3385      7.2227      7.1275      7.7173      14.217      26.259      53.054    
  138.97      310.99      540.46      743.19      743.19      669.22      485.34      278.02      123.94      48.355    
  25.092      13.696      7.7857      7.4401      7.8159      6.4214      5.3385      6.4214      7.8159      7.4401    
  7.7857      13.696      25.092      48.355      123.94      278.02      485.34      669.22      540.46      485.34    
  349.09      197.58      88.311      37.773      22.030      12.347      7.8583      7.8177      8.4311      7.8159    
  7.2227      7.8159      8.4311      7.8177      7.8583      12.347      22.030      37.773      88.311      197.58    
  349.09      485.34      310.99      278.02      197.58      110.97      52.426      27.883      17.752      10.640    
  7.7482      7.6073      7.8177      7.4401      7.1275      7.4401      7.8177      7.6073      7.7482      10.640    
  17.752      27.883      52.426      110.97      197.58      278.02      138.97      123.94      88.311      52.426    
  30.683      20.667      13.322      9.1111      7.7643      7.7482      7.8583      7.7857      7.7173      7.7857    
  7.8583      7.7482      7.7643      9.1111      13.322      20.667      30.683      52.426      88.311      123.94    
  53.054      48.355      37.773      27.883      20.667      14.224      9.9831      8.5292      9.1111      10.640    
  12.347      13.696      14.217      13.696      12.347      10.640      9.1111      8.5292      9.9831      14.224    
  20.667      27.883      37.773      48.355      26.259      25.092      22.030      17.752      13.322      9.9831    
  8.7404      9.9831      13.322      17.752      22.030      25.092      26.259      25.092      22.030      17.752    
  13.322      9.9831      8.7404      9.9831      13.322      17.752      22.030      25.092      14.217      13.696    
  12.347      10.640      9.1111      8.5292      9.9831      14.224      20.667      27.883      37.773      48.355    
  53.054      48.355      37.773      27.883      20.667      14.224      9.9831      8.5292      9.1111      10.640    
  12.347      13.696      7.7173      7.7857      7.8583      7.7482      7.7643      9.1111      13.322      20.667    
  30.683      52.426      88.311      123.94      138.97      123.94      88.311      52.426      30.683      20.667    
  13.322      9.1111      7.7643      7.7482      7.8583      7.7857      7.1275      7.4401      7.8177      7.6073    
  7.7482      10.640      17.752      27.883      52.426      110.97      197.58      278.02      310.99      278.02    
  197.58      110.97      52.426      27.883      17.752      10.640      7.7482      7.6073      7.8177      7.4401    
  7.2227      7.8159      8.4311      7.8177      7.8583      12.347      22.030      37.773      88.311      197.58    
  349.09      485.34      540.46      485.34      349.09      197.58      88.311      37.773      22.030      12.347    
  7.8583      7.8177      8.4311      7.8159      5.3385      6.4214      7.8159      7.4401      7.7857      13.696    
  25.092      48.355      123.94      278.02      485.34      669.22      743.19      669.22      485.34      278.02    
  123.94      48.355      25.092      13.696      7.7857      7.4401      7.8159      6.4214      3.9845      5.3385    
  7.2227      7.1275      7.7173      14.217      26.259      53.054      138.97      310.99      540.46      743.19    
  824.62      743.19      540.46      310.99      138.97      53.054      26.259      14.217      7.7173      7.1275    
  7.2227      5.3385      5.3385      6.4214      7.8159      7.4401      7.7857      13.696      25.092      48.355    
  123.94      278.02      485.34      669.22      743.19      669.22      485.34      278.02      123.94      48.355    
  25.092      13.696      7.7857      7.4401      7.8159      6.4214      7.2227      7.8159      8.4311      7.8177    
  7.8583      12.347      22.030      37.773      88.311      197.58      349.09      485.34      540.46      485.34    
  349.09      197.58      88.311      37.773      22.030      12.347      7.8583      7.8177      8.4311      7.8159    
  7.1275      7.4401      7.8177      7.6073      7.7482      10.640      17.752      27.883      52.426      110.97    
  197.58      278.02      310.99      278.02      197.58      110.97      52.426      27.883      17.752      10.640    
  7.7482      7.6073      7.8177      7.4401      7.7173      7.7857      7.8583      7.7482      7.7643      9.1111    
  13.322      20.667      30.683      52.426      88.311      123.94      138.97      123.94      88.311      52.426    
  30.683      20.667      13.322      9.1111      7.7643      7.7482      7.8583      7.7857      14.217      13.696    
  12.347      10.640      9.1111      8.5292      9.9831      14.224      20.667      27.883      37.773      48.355    
  53.054      48.355      37.773      27.883      20.667      14.224      9.9831      8.5292      9.1111      10.640    
  12.347      13.696      26.259      25.092      22.030      17.752      13.322      9.9831      8.7404      9.9831    
  13.322      17.752      22.030      25.092      26.259      25.092      22.030      17.752      13.322      9.9831    
  8.7404      9.9831      13.322      17.752      22.030      25.092      53.054      48.355      37.773      27.883    
  20.667      14.224      9.9831      8.5292      9.1111      10.640      12.347      13.696      14.217      13.696    
  12.347      10.640      9.1111      8.5292      9.9831      14.224      20.667      27.883      37.773      48.355    
  138.97      123.94      88.311      52.426      30.683      20.667      13.322      9.1111      7.7643      7.7482    
  7.8583      7.7857      7.7173      7.7857      7.8583      7.7482      7.7643      9.1111      13.322      20.667    
  30.683      52.426      88.311      123.94      310.99      278.02      197.58      110.97      52.426      27.883    
  17.752      10.640      7.7482      7.6073      7.8177      7.4401      7.1275      7.4401      7.8177      7.6073    
  7.7482      10.640      17.752      27.883      52.426      110.97      197.58      278.02      540.46      485.34    
  349.09      197.58      88.311      37.773      22.030      12.347      7.8583      7.8177      8.4311      7.8159    
  7.2227      7.8159      8.4311      7.8177      7.8583      12.347      22.030      37.773      88.311      197.58    
  349.09      485.34      743.19      669.22      485.34      278.02      123.94      48.355      25.092      13.696    
  7.7857      7.4401      7.8159      6.4214      5.3385      6.4214      7.8159      7.4401      7.7857      13.696    
  25.092      48.355      123.94      278.02      485.34      669.22      743.19      669.22      485.34      278.02    
  123.94      48.355      25.092      13.696      7.7857      7.4401      7.8159      6.4214      5.3385      6.4214    
  7.8159      7.4401      7.7857      13.696      25.092      48.355      123.94      278.02      485.34      669.22    
  669.22      602.07      435.42      248.33      110.59      44.293      24.023      13.216      7.8264      7.6596    
  8.2479      7.2689      6.4214      7.2689      8.2479      7.6596      7.8264      13.216      24.023      44.293    
  110.59      248.33      435.42      602.07      485.34      435.42      312.30      176.16      79.117      35.187    
  21.129      11.982      7.8616      7.8840      8.5934      8.2479      7.8159      8.2479      8.5934      7.8840    
  7.8616      11.982      21.129      35.187      79.117      176.16      312.30      435.42      278.02      248.33    
  176.16      99.083      47.796      26.642      17.094      10.437      7.7681      7.6339      7.8840      7.6596    
  7.4401      7.6596      7.8840      7.6339      7.7681      10.437      17.094      26.642      47.796      99.083    
  176.16      248.33      123.94      110.59      79.117      47.796      29.086      19.912      12.961      9.0616    
  7.8141      7.7681      7.8616      7.8264      7.7857      7.8264      7.8616      7.7681      7.8141      9.0616    
  12.961      19.912      29.086      47.796      79.117      110.59      48.355      44.293      35.187      26.642    
  19.912      13.816      9.8735      8.5390      9.0616      10.437      11.982      13.216      13.696      13.216    
  11.982      10.437      9.0616      8.5390      9.8735      13.816      19.912      26.642      35.187      44.293    
  25.092      24.023      21.129      17.094      12.961      9.8735      8.7301      9.8735      12.961      17.094    
  21.129      24.023      25.092      24.023      21.129      17.094      12.961      9.8735      8.7301      9.8735    
  12.961      17.094      21.129      24.023      13.696      13.216      11.982      10.437      9.0616      8.5390    
  9.8735      13.816      19.912      26.642      35.187      44.293      48.355      44.293      35.187      26.642    
  19.912      13.816      9.8735      8.5390      9.0616      10.437      11.982      13.216      7.7857      7.8264    
  7.8616      7.7681      7.8141      9.0616      12.961      19.912      29.086      47.796      79.117      110.59    
  123.94      110.59      79.117      47.796      29.086      19.912      12.961      9.0616      7.8141      7.7681    
  7.8616      7.8264      7.4401      7.6596      7.8840      7.6339      7.7681      10.437      17.094      26.642    
  47.796      99.083      176.16      248.33      278.02      248.33      176.16      99.083      47.796      26.642    
  17.094      10.437      7.7681      7.6339      7.8840      7.6596      7.8159      8.2479      8.5934      7.8840    
  7.8616      11.982      21.129      35.187      79.117      176.16      312.30      435.42      485.34      435.42    
  312.30      176.16      79.117      35.187      21.129      11.982      7.8616      7.8840      8.5934      8.2479    
  6.4214      7.2689      8.2479      7.6596      7.8264      13.216      24.023      44.293      110.59      248.33    
  435.42      602.07      669.22      602.07      435.42      248.33      110.59      44.293      24.023      13.216    
  7.8264      7.6596      8.2479      7.2689      5.3385      6.4214      7.8159      7.4401      7.7857      13.696    
  25.092      48.355      123.94      278.02      485.34      669.22      743.19      669.22      485.34      278.02    
  123.94      48.355      25.092      13.696      7.7857      7.4401      7.8159      6.4214      6.4214      7.2689    
  8.2479      7.6596      7.8264      13.216      24.023      44.293      110.59      248.33      435.42      602.07    
  669.22      602.07      435.42      248.33      110.59      44.293      24.023      13.216      7.8264      7.6596    
  8.2479      7.2689      7.8159      8.2479      8.5934      7.8840      7.8616      11.982      21.129      35.187    
  79.117      176.16      312.30      435.42      485.34      435.42      312.30      176.16      79.117      35.187    
  21.129      11.982      7.8616      7.8840      8.5934      8.2479      7.4401      7.6596      7.8840      7.6339    
  7.7681      10.437      17.094      26.642      47.796      99.083      176.16      248.33      278.02      248.33    
  176.16      99.083      47.796      26.642      17.094      10.437      7.7681      7.6339      7.8840      7.6596    
  7.7857      7.8264      7.8616      7.7681      7.8141      9.0616      12.961      19.912      29.086      47.796    
  79.117      110.59      123.94      110.59      79.117      47.796      29.086      19.912      12.961      9.0616    
  7.8141      7.7681      7.8616      7.8264      13.696      13.216      11.982      10.437      9.0616      8.5390    
  9.8735      13.816      19.912      26.642      35.187      44.293      48.355      44.293      35.187      26.642    
  19.912      13.816      9.8735      8.5390      9.0616      10.437      11.982      13.216      25.092      24.023    
  21.129      17.094      12.961      9.8735      8.7301      9.8735      12.961      17.094      21.129      24.023    
  25.092      24.023      21.129      17.094      12.961      9.8735      8.7301      9.8735      12.961      17.094    
  21.129      24.023      48.355      44.293      35.187      26.642      19.912      13.816      9.8735      8.5390    
  9.0616      10.437      11.982      13.216      13.696      13.216      11.982      10.437      9.0616      8.5390    
  9.8735      13.816      19.912      26.642      35.187      44.293      123.94      110.59      79.117      47.796    
  29.086      19.912      12.961      9.0616      7.8141      7.7681      7.8616      7.8264      7.7857      7.8264    
  7.8616      7.7681      7.8141      9.0616      12.961      19.912      29.086      47.796      79.117      110.59    
  278.02      248.33      176.16      99.083      47.796      26.642      17.094      10.437      7.7681      7.6339    
  7.8840      7.6596      7.4401      7.6596      7.8840      7.6339      7.7681      10.437      17.094      26.642    
  47.796      99.083      176.16      248.33      485.34      435.42      312.30      176.16      79.117      35.187    
  21.129      11.982      7.8616      7.8840      8.5934      8.2479      7.8159      8.2479      8.5934      7.8840    
  7.8616      11.982      21.129      35.187      79.117      176.16      312.30      435.42      669.22      602.07    
  435.42      248.33      110.59      44.293      24.023      13.216      7.8264      7.6596      8.2479      7.2689    
  6.4214      7.2689      8.2479      7.6596      7.8264      13.216      24.023      44.293      110.59      248.33    
  435.42      602.07      540.46      485.34      349.09      197.58      88.311      37.773      22.030      12.347    
  7.8583      7.8177      8.4311      7.8159      7.2227      7.8159      8.4311      7.8177      7.8583      12.347    
  22.030      37.773      88.311      197.58      349.09      485.34      485.34      435.42      312.30      176.16    
  79.117      35.187      21.129      11.982      7.8616      7.8840      8.5934      8.2479      7.8159      8.2479    
  8.5934      7.8840      7.8616      11.982      21.129      35.187      79.117      176.16      312.30      435.42    
  349.09      312.30      222.30      124.70      57.835      29.421      18.674      11.053      7.8578      7.8913    
  8.5647      8.5934      8.4311      8.5934      8.5647      7.8913      7.8578      11.053      18.674      29.421    
  57.835      124.70      222.30      312.30      197.58      176.16      124.70      71.240      37.440      23.638    
  15.334      9.9091      7.8199      7.6656      7.8913      7.8840      7.8177      7.8840      7.8913      7.6656    
  7.8199      9.9091      15.334      23.638      37.440      71.240      124.70      176.16      88.311      79.117    
  57.835      37.440      25.475      17.879      12.012      8.9033      7.9172      7.8199      7.8578      7.8616    
  7.8583      7.8616      7.8578      7.8199      7.9172      8.9033      12.012      17.879      25.475      37.440    
  57.835      79.117      37.773      35.187      29.421      23.638      17.879      12.767      9.5906      8.5331    
  8.9033      9.9091      11.053      11.982      12.347      11.982      11.053      9.9091      8.9033      8.5331    
  9.5906      12.767      17.879      23.638      29.421      35.187      22.030      21.129      18.674      15.334    
  12.012      9.5906      8.7067      9.5906      12.012      15.334      18.674      21.129      22.030      21.129    
  18.674      15.334      12.012      9.5906      8.7067      9.5906      12.012      15.334      18.674      21.129    
  12.347      11.982      11.053      9.9091      8.9033      8.5331      9.5906      12.767      17.879      23.638    
  29.421      35.187      37.773      35.187      29.421      23.638      17.879      12.767      9.5906      8.5331    
  8.9033      9.9091      11.053      11.982      7.8583      7.8616      7.8578      7.8199      7.9172      8.9033    
  12.012      17.879      25.475      37.440      57.835      79.117      88.311      79.117      57.835      37.440    
  25.475      17.879      12.012      8.9033      7.9172      7.8199      7.8578      7.8616      7.8177      7.8840    
  7.8913      7.6656      7.8199      9.9091      15.334      23.638      37.440      71.240      124.70      176.16    
  197.58      176.16      124.70      71.240      37.440      23.638      15.334      9.9091      7.8199      7.6656    
  7.8913      7.8840      8.4311      8.5934      8.5647      7.8913      7.8578      11.053      18.674      29.421    
  57.835      124.70      222.30      312.30      349.09      312.30      222.30      124.70      57.835      29.421    
  18.674      11.053      7.8578      7.8913      8.5647      8.5934      7.8159      8.2479      8.5934      7.8840    
  7.8616      11.982      21.129      35.187      79.117      176.16      312.30      435.42      485.34      435.42    
  312.30      176.16      79.117      35.187      21.129      11.982      7.8616      7.8840      8.5934      8.2479    
  7.2227      7.8159      8.4311      7.8177      7.8583      12.347      22.030      37.773      88.311      197.58    
  349.09      485.34      540.46      485.34      349.09      197.58      88.311      37.773      22.030      12.347    
  7.8583      7.8177      8.4311      7.8159      7.8159      8.2479      8.5934      7.8840      7.8616      11.982    
  21.129      35.187      79.117      176.16      312.30      435.42      485.34      435.42      312.30      176.16    
  79.117      35.187      21.129      11.982      7.8616      7.8840      8.5934      8.2479      8.4311      8.5934    
  8.5647      7.8913      7.8578      11.053      18.674      29.421      57.835      124.70      222.30      312.30    
  349.09      312.30      222.30      124.70      57.835      29.421      18.674      11.053      7.8578      7.8913    
  8.5647      8.5934      7.8177      7.8840      7.8913      7.6656      7.8199      9.9091      15.334      23.638    
  37.440      71.240      124.70      176.16      197.58      176.16      124.70      71.240      37.440      23.638    
  15.334      9.9091      7.8199      7.6656      7.8913      7.8840      7.8583      7.8616      7.8578      7.8199    
  7.9172      8.9033      12.012      17.879      25.475      37.440      57.835      79.117      88.311      79.117    
  57.835      37.440      25.475      17.879      12.012      8.9033      7.9172      7.8199      7.8578      7.8616    
  12.347      11.982      11.053      9.9091      8.9033      8.5331      9.5906      12.767      17.879      23.638    
  29.421      35.187      37.773      35.187      29.421      23.638      17.879      12.767      9.5906      8.5331    
  8.9033      9.9091      11.053      11.982      22.030      21.129      18.674      15.334      12.012      9.5906    
  8.7067      9.5906      12.012      15.334      18.674      21.129      22.030      21.129      18.674      15.334    
  12.012      9.5906      8.7067      9.5906      12.012      15.334      18.674      21.129      37.773      35.187    
  29.421      23.638      17.879      12.767      9.5906      8.5331      8.9033      9.9091      11.053      11.982    
  12.347      11.982      11.053      9.9091      8.9033      8.5331      9.5906      12.767      17.879      23.638    
  29.421      35.187      88.311      79.117      57.835      37.440      25.475      17.879      12.012      8.9033    
  7.9172      7.8199      7.8578      7.8616      7.8583      7.8616      7.8578      7.8199      7.9172      8.9033    
  12.012      17.879      25.475      37.440      57.835      79.117      197.58      176.16      124.70      71.240    
  37.440      23.638      15.334      9.9091      7.8199      7.6656      7.8913      7.8840      7.8177      7.8840    
  7.8913      7.6656      7.8199      9.9091      15.334      23.638      37.440      71.240      124.70      176.16    
  349.09      312.30      222.30      124.70      57.835      29.421      18.674      11.053      7.8578      7.8913    
  8.5647      8.5934      8.4311      8.5934      8.5647      7.8913      7.8578      11.053      18.674      29.421    
  57.835      124.70      222.30      312.30      485.34      435.42      312.30      176.16      79.117      35.187    
  21.129      11.982      7.8616      7.8840      8.5934      8.2479      7.8159      8.2479      8.5934      7.8840    
  7.8616      11.982      21.129      35.187      79.117      176.16      312.30      435.42      310.99      278.02    
  197.58      110.97      52.426      27.883      17.752      10.640      7.7482      7.6073      7.8177      7.4401    
  7.1275      7.4401      7.8177      7.6073      7.7482      10.640      17.752      27.883      52.426      110.97    
  197.58      278.02      278.02      248.33      176.16      99.083      47.796      26.642      17.094      10.437    
  7.7681      7.6339      7.8840      7.6596      7.4401      7.6596      7.8840      7.6339      7.7681      10.437    
  17.094      26.642      47.796      99.083      176.16      248.33      197.58      176.16      124.70      71.240    
  37.440      23.638      15.334      9.9091      7.8199      7.6656      7.8913      7.8840      7.8177      7.8840    
  7.8913      7.6656      7.8199      9.9091      15.334      23.638      37.440      71.240      124.70      176.16    
  110.97      99.083      71.240      43.951      27.957      19.581      13.017      9.2396      7.8697      7.6532    
  7.6656      7.6339      7.6073      7.6339      7.6656      7.6532      7.8697      9.2396      13.017      19.581    
  27.957      43.951      71.240      99.083      52.426      47.796      37.440      27.957      21.248      15.155    
  10.801      8.6462      7.9832      7.8697      7.8199      7.7681      7.7482      7.7681      7.8199      7.8697    
  7.9832      8.6462      10.801      15.155      21.248      27.957      37.440      47.796      27.883      26.642    
  23.638      19.581      15.155      11.471      9.2431      8.4687      8.6462      9.2396      9.9091      10.437    
  10.640      10.437      9.9091      9.2396      8.6462      8.4687      9.2431      11.471      15.155      19.581    
  23.638      26.642      17.752      17.094      15.334      13.017      10.801      9.2431      8.6864      9.2431    
  10.801      13.017      15.334      17.094      17.752      17.094      15.334      13.017      10.801      9.2431    
  8.6864      9.2431      10.801      13.017      15.334      17.094      10.640      10.437      9.9091      9.2396    
  8.6462      8.4687      9.2431      11.471      15.155      19.581      23.638      26.642      27.883      26.642    
  23.638      19.581      15.155      11.471      9.2431      8.4687      8.6462      9.2396      9.9091      10.437    
  7.7482      7.7681      7.8199      7.8697      7.9832      8.6462      10.801      15.155      21.248      27.957    
  37.440      47.796      52.426      47.796      37.440      27.957      21.248      15.155      10.801      8.6462    
  7.9832      7.8697      7.8199      7.7681      7.6073      7.6339      7.6656      7.6532      7.8697      9.2396    
  13.017      19.581      27.957      43.951      71.240      99.083      110.97      99.083      71.240      43.951    
  27.957      19.581      13.017      9.2396      7.8697      7.6532      7.6656      7.6339      7.8177      7.8840    
  7.8913      7.6656      7.8199      9.9091      15.334      23.638      37.440      71.240      124.70      176.16    
  197.58      176.16      124.70      71.240      37.440      23.638      15.334      9.9091      7.8199      7.6656    
  7.8913      7.8840      7.4401      7.6596      7.8840      7.6339      7.7681      10.437      17.094      26.642    
  47.796      99.083      176.16      248.33      278.02      248.33      176.16      99.083      47.796      26.642    
  17.094      10.437      7.7681      7.6339      7.8840      7.6596      7.1275      7.4401      7.8177      7.6073    
  7.7482      10.640      17.752      27.883      52.426      110.97      197.58      278.02      310.99      278.02    
  197.58      110.97      52.426      27.883      17.752      10.640      7.7482      7.6073      7.8177      7.4401    
  7.4401      7.6596      7.8840      7.6339      7.7681      10.437      17.094      26.642      47.796      99.083    
  176.16      248.33      278.02      248.33      176.16      99.083      47.796      26.642      17.094      10.437    
  7.7681      7.6339      7.8840      7.6596      7.8177      7.8840      7.8913      7.6656      7.8199      9.9091    
  15.334      23.638      37.440      71.240      124.70      176.16      197.58      176.16      124.70      71.240    
  37.440      23.638      15.334      9.9091      7.8199      7.6656      7.8913      7.8840      7.6073      7.6339    
  7.6656      7.6532      7.8697      9.2396      13.017      19.581      27.957      43.951      71.240      99.083    
  110.97      99.083      71.240      43.951      27.957      19.581      13.017      9.2396      7.8697      7.6532    
  7.6656      7.6339      7.7482      7.7681      7.8199      7.8697      7.9832      8.6462      10.801      15.155    
  21.248      27.957      37.440      47.796      52.426      47.796      37.440      27.957      21.248      15.155    
  10.801      8.6462      7.9832      7.8697      7.8199      7.7681      10.640      10.437      9.9091      9.2396    
  8.6462      8.4687      9.2431      11.471      15.155      19.581      23.638      26.642      27.883      26.642    
  23.638      19.581      15.155      11.471      9.2431      8.4687      8.6462      9.2396      9.9091      10.437    
  17.752      17.094      15.334      13.017      10.801      9.2431      8.6864      9.2431      10.801      13.017    
  15.334      17.094      17.752      17.094      15.334      13.017      10.801      9.2431      8.6864      9.2431    
  10.801      13.017      15.334      17.094      27.883      26.642      23.638      19.581      15.155      11.471    
  9.2431      8.4687      8.6462      9.2396      9.9091      10.437      10.640      10.437      9.9091      9.2396    
  8.6462      8.4687      9.2431      11.471      15.155      19.581      23.638      26.642      52.426      47.796    
  37.440      27.957      21.248      15.155      10.801      8.6462      7.9832      7.8697      7.8199      7.7681    
  7.7482      7.7681      7.8199      7.8697      7.9832      8.6462      10.801      15.155      21.248      27.957    
  37.440      47.796      110.97      99.083      71.240      43.951      27.957      19.581      13.017      9.2396    
  7.8697      7.6532      7.6656      7.6339      7.6073      7.6339      7.6656      7.6532      7.8697      9.2396    
  13.017      19.581      27.957      43.951      71.240      99.083      197.58      176.16      124.70      71.240    
  37.440      23.638      15.334      9.9091      7.8199      7.6656      7.8913      7.8840      7.8177      7.8840    
  7.8913      7.6656      7.8199      9.9091      15.334      23.638      37.440      71.240      124.70      176.16    
  278.02      248.33      176.16      99.083      47.796      26.642      17.094      10.437      7.7681      7.6339    
  7.8840      7.6596      7.4401      7.6596      7.8840      7.6339      7.7681      10.437      17.094      26.642    
  47.796      99.083      176.16      248.33      138.97      123.94      88.311      52.426      30.683      20.667    
  13.322      9.1111      7.7643      7.7482      7.8583      7.7857      7.7173      7.7857      7.8583      7.7482    
  7.7643      9.1111      13.322      20.667      30.683      52.426      88.311      123.94      123.94      110.59    
  79.117      47.796      29.086      19.912      12.961      9.0616      7.8141      7.7681      7.8616      7.8264    
  7.7857      7.8264      7.8616      7.7681      7.8141      9.0616      12.961      19.912      29.086      47.796    
  79.117      110.59      88.311      79.117      57.835      37.440      25.475      17.879      12.012      8.9033    
  7.9172      7.8199      7.8578      7.8616      7.8583      7.8616      7.8578      7.8199      7.9172      8.9033    
  12.012      17.879      25.475      37.440      57.835      79.117      52.426      47.796      37.440      27.957    
  21.248      15.155      10.801      8.6462      7.9832      7.8697      7.8199      7.7681      7.7482      7.7681    
  7.8199      7.8697      7.9832      8.6462      10.801      15.155      21.248      27.957      37.440      47.796    
  30.683      29.086      25.475      21.248      16.560      12.436      9.6903      8.3978      8.0344      7.9832    
  7.9172      7.8141      7.7643      7.8141      7.9172      7.9832      8.0344      8.3978      9.6903      12.436    
  16.560      21.248      25.475      29.086      20.667      19.912      17.879      15.155      12.436      10.277    
  8.9405      8.3944      8.3978      8.6462      8.9033      9.0616      9.1111      9.0616      8.9033      8.6462    
  8.3978      8.3944      8.9405      10.277      12.436      15.155      17.879      19.912      13.322      12.961    