unknown system                          
   1.00000000000000     
     3.635000    0.000000    0.000000
     0.000000    3.635000    0.000000
     0.000000    0.000000    3.635000
   Cu
     4
Direct
  0.000000  0.000000  0.000000
  0.500000  0.500000  0.000000
  0.500000  0.000000  0.500000
  0.000000  0.500000  0.500000
 
   24   24   24
 0.82462385725E+03 0.74318898135E+03 0.54045680215E+03 0.31098523700E+03 0.13897130148E+03
 0.53053743927E+02 0.26258843082E+02 0.14217367443E+02 0.77172777816E+01 0.71274706478E+01
 0.72227317819E+01 0.53384599007E+01 0.39844941415E+01 0.53384599007E+01 0.72227317819E+01
 0.71274706478E+01 0.77172777816E+01 0.14217367443E+02 0.26258843082E+02 0.53053743927E+02
 0.13897130148E+03 0.31098523700E+03 0.54045680215E+03 0.74318898135E+03 0.74318898135E+03
 0.66921659126E+03 0.48533938701E+03 0.27801664312E+03 0.12393845493E+03 0.48354996991E+02
 0.25091588858E+02 0.13696000751E+02 0.77857058667E+01 0.74401301046E+01 0.78159340841E+01
 0.64214106638E+01 0.53384599007E+01 0.64214106638E+01 0.78159340841E+01 0.74401301046E+01
 0.77857058667E+01 0.13696000751E+02 0.25091588858E+02 0.48354996991E+02 0.12393845493E+03
 0.27801664312E+03 0.48533938701E+03 0.66921659126E+03 0.54045680215E+03 0.48533938701E+03
 0.34908612623E+03 0.19758437238E+03 0.88311239634E+02 0.37772529914E+02 0.22030366278E+02
 0.12347206762E+02 0.78582694555E+01 0.78177168974E+01 0.84311213046E+01 0.78159340841E+01
 0.72227317819E+01 0.78159340841E+01 0.84311213046E+01 0.78177168974E+01 0.78582694555E+01
 0.12347206762E+02 0.22030366278E+02 0.37772529914E+02 0.88311239634E+02 0.19758437238E+03
 0.34908612623E+03 0.48533938701E+03 0.31098523700E+03 0.27801664312E+03 0.19758437238E+03
 0.11097476209E+03 0.52426189112E+02 0.27883302550E+02 0.17752282685E+02 0.10640281814E+02
 0.77482005856E+01 0.76072722606E+01 0.78177168974E+01 0.74401301046E+01 0.71274706478E+01
 0.74401301046E+01 0.78177168974E+01 0.76072722606E+01 0.77482005856E+01 0.10640281814E+02
 0.17752282685E+02 0.27883302550E+02 0.52426189112E+02 0.11097476209E+03 0.19758437238E+03
 0.27801664312E+03 0.13897130148E+03 0.12393845493E+03 0.88311239634E+02 0.52426189112E+02
 0.30682994836E+02 0.20666534060E+02 0.13322310560E+02 0.91110517780E+01 0.77642568696E+01
 0.77482005856E+01 0.78582694555E+01 0.77857058667E+01 0.77172777816E+01 0.77857058667E+01
 0.78582694555E+01 0.77482005856E+01 0.77642568696E+01 0.91110517780E+01 0.13322310560E+02
 0.20666534060E+02 0.30682994836E+02 0.52426189112E+02 0.88311239634E+02 0.12393845493E+03
 0.53053743927E+02 0.48354996991E+02 0.37772529914E+02 0.27883302550E+02 0.20666534060E+02
 0.14224389095E+02 0.99830524182E+01 0.85291672724E+01 0.91110517780E+01 0.10640281814E+02
 0.12347206762E+02 0.13696000751E+02 0.14217367443E+02 0.13696000751E+02 0.12347206762E+02
 0.10640281814E+02 0.91110517780E+01 0.85291672724E+01 0.99830524182E+01 0.14224389095E+02
 0.20666534060E+02 0.27883302550E+02 0.37772529914E+02 0.48354996991E+02 0.26258843082E+02
 0.25091588858E+02 0.22030366278E+02 0.17752282685E+02 0.13322310560E+02 0.99830524182E+01
 0.87404499037E+01 0.99830524182E+01 0.13322310560E+02 0.17752282685E+02 0.22030366278E+02
 0.25091588858E+02 0.26258843082E+02 0.25091588858E+02 0.22030366278E+02 0.17752282685E+02
 0.13322310560E+02 0.99830524182E+01 0.87404499037E+01 0.99830524182E+01 0.13322310560E+02
 0.17752282685E+02 0.22030366278E+02 0.25091588858E+02 0.14217367443E+02 0.13696000751E+02
 0.12347206762E+02 0.10640281814E+02 0.91110517780E+01 0.85291672724E+01 0.99830524182E+01
 0.14224389095E+02 0.20666534060E+02 0.27883302550E+02 0.37772529914E+02 0.48354996991E+02
 0.53053743927E+02 0.48354996991E+02 0.37772529914E+02 0.27883302550E+02 0.20666534060E+02
 0.14224389095E+02 0.99830524182E+01 0.85291672724E+01 0.91110517780E+01 0.10640281814E+02
 0.12347206762E+02 0.13696000751E+02 0.77172777816E+01 0.77857058667E+01 0.78582694555E+01
 0.77482005856E+01 0.77642568696E+01 0.91110517780E+01 0.13322310560E+02 0.20666534060E+02
 0.30682994836E+02 0.52426189112E+02 0.88311239634E+02 0.12393845493E+03 0.13897130148E+03
 0.12393845493E+03 0.88311239634E+02 0.52426189112E+02 0.30682994836E+02 0.20666534060E+02
 0.13322310560E+02 0.91110517780E+01 0.77642568696E+01 0.77482005856E+01 0.78582694555E+01
 0.77857058667E+01 0.71274706478E+01 0.74401301046E+01 0.78177168974E+01 0.76072722606E+01
 0.77482005856E+01 0.10640281814E+02 0.17752282685E+02 0.27883302550E+02 0.52426189112E+02
 0.11097476209E+03 0.19758437238E+03 0.27801664312E+03 0.31098523700E+03 0.27801664312E+03
 0.19758437238E+03 0.11097476209E+03 0.52426189112E+02 0.27883302550E+02 0.17752282685E+02
 0.10640281814E+02 0.77482005856E+01 0.76072722606E+01 0.78177168974E+01 0.74401301046E+01
 0.72227317819E+01 0.78159340841E+01 0.84311213046E+01 0.78177168974E+01 0.78582694555E+01
 0.12347206762E+02 0.22030366278E+02 0.37772529914E+02 0.88311239634E+02 0.19758437238E+03
 0.34908612623E+03 0.48533938701E+03 0.54045680215E+03 0.48533938701E+03 0.34908612623E+03
 0.19758437238E+03 0.88311239634E+02 0.37772529914E+02 0.22030366278E+02 0.12347206762E+02
 0.78582694555E+01 0.78177168974E+01 0.84311213046E+01 0.78159340841E+01 0.53384599007E+01
 0.64214106638E+01 0.78159340841E+01 0.74401301046E+01 0.77857058667E+01 0.13696000751E+02
 0.25091588858E+02 0.48354996991E+02 0.12393845493E+03 0.27801664312E+03 0.48533938701E+03
 0.66921659126E+03 0.74318898135E+03 0.66921659126E+03 0.48533938701E+03 0.27801664312E+03
 0.12393845493E+03 0.48354996991E+02 0.25091588858E+02 0.13696000751E+02 0.77857058667E+01
 0.74401301046E+01 0.78159340841E+01 0.64214106638E+01 0.39844941415E+01 0.53384599007E+01
 0.72227317819E+01 0.71274706478E+01 0.77172777816E+01 0.14217367443E+02 0.26258843082E+02
 0.53053743927E+02 0.13897130148E+03 0.31098523700E+03 0.54045680215E+03 0.74318898135E+03
 0.82462385725E+03 0.74318898135E+03 0.54045680215E+03 0.31098523700E+03 0.13897130148E+03
 0.53053743927E+02 0.26258843082E+02 0.14217367443E+02 0.77172777816E+01 0.71274706478E+01
 0.72227317819E+01 0.53384599007E+01 0.53384599007E+01 0.64214106638E+01 0.78159340841E+01
 0.74401301046E+01 0.77857058667E+01 0.13696000751E+02 0.25091588858E+02 0.48354996991E+02
 0.12393845493E+03 0.27801664312E+03 0.48533938701E+03 0.66921659126E+03 0.74318898135E+03
 0.66921659126E+03 0.48533938701E+03 0.27801664312E+03 0.12393845493E+03 0.48354996991E+02
 0.25091588858E+02 0.13696000751E+02 0.77857058667E+01 0.74401301046E+01 0.78159340841E+01
 0.64214106638E+01 0.72227317819E+01 0.78159340841E+01 0.84311213046E+01 0.78177168974E+01
 0.78582694555E+01 0.12347206762E+02 0.22030366278E+02 0.37772529914E+02 0.88311239634E+02
 0.19758437238E+03 0.34908612623E+03 0.48533938701E+03 0.54045680215E+03 0.48533938701E+03
 0.34908612623E+03 0.19758437238E+03 0.88311239634E+02 0.37772529914E+02 0.22030366278E+02
 0.12347206762E+02 0.78582694555E+01 0.78177168974E+01 0.84311213046E+01 0.78159340841E+01
 0.71274706478E+01 0.74401301046E+01 0.78177168974E+01 0.76072722606E+01 0.77482005856E+01
 0.10640281814E+02 0.17752282685E+02 0.27883302550E+02 0.52426189112E+02 0.11097476209E+03
 0.19758437238E+03 0.27801664312E+03 0.31098523700E+03 0.27801664312E+03 0.19758437238E+03
 0.11097476209E+03 0.52426189112E+02 0.27883302550E+02 0.17752282685E+02 0.10640281814E+02
 0.77482005856E+01 0.76072722606E+01 0.78177168974E+01 0.74401301046E+01 0.77172777816E+01
 0.77857058667E+01 0.78582694555E+01 0.77482005856E+01 0.77642568696E+01 0.91110517780E+01
 0.13322310560E+02 0.20666534060E+02 0.30682994836E+02 0.52426189112E+02 0.88311239634E+02
 0.12393845493E+03 0.13897130148E+03 0.12393845493E+03 0.88311239634E+02 0.52426189112E+02
 0.30682994836E+02 0.20666534060E+02 0.13322310560E+02 0.91110517780E+01 0.77642568696E+01
 0.77482005856E+01 0.78582694555E+01 0.77857058667E+01 0.14217367443E+02 0.13696000751E+02
 0.12347206762E+02 0.10640281814E+02 0.91110517780E+01 0.85291672724E+01 0.99830524182E+01
 0.14224389095E+02 0.20666534060E+02 0.27883302550E+02 0.37772529914E+02 0.48354996991E+02
 0.53053743927E+02 0.48354996991E+02 0.37772529914E+02 0.27883302550E+02 0.20666534060E+02
 0.14224389095E+02 0.99830524182E+01 0.85291672724E+01 0.91110517780E+01 0.10640281814E+02
 0.12347206762E+02 0.13696000751E+02 0.26258843082E+02 0.25091588858E+02 0.22030366278E+02
 0.17752282685E+02 0.13322310560E+02 0.99830524182E+01 0.87404499037E+01 0.99830524182E+01
 0.13322310560E+02 0.17752282685E+02 0.22030366278E+02 0.25091588858E+02 0.26258843082E+02
 0.25091588858E+02 0.22030366278E+02 0.17752282685E+02 0.13322310560E+02 0.99830524182E+01
 0.87404499037E+01 0.99830524182E+01 0.13322310560E+02 0.17752282685E+02 0.22030366278E+02
 0.25091588858E+02 0.53053743927E+02 0.48354996991E+02 0.37772529914E+02 0.27883302550E+02
 0.20666534060E+02 0.14224389095E+02 0.99830524182E+01 0.85291672724E+01 0.91110517780E+01
 0.10640281814E+02 0.12347206762E+02 0.13696000751E+02 0.14217367443E+02 0.13696000751E+02
 0.12347206762E+02 0.10640281814E+02 0.91110517780E+01 0.85291672724E+01 0.99830524182E+01
 0.14224389095E+02 0.20666534060E+02 0.27883302550E+02 0.37772529914E+02 0.48354996991E+02
 0.13897130148E+03 0.12393845493E+03 0.88311239634E+02 0.52426189112E+02 0.30682994836E+02
 0.20666534060E+02 0.13322310560E+02 0.91110517780E+01 0.77642568696E+01 0.77482005856E+01
 0.78582694555E+01 0.77857058667E+01 0.77172777816E+01 0.77857058667E+01 0.78582694555E+01
 0.77482005856E+01 0.77642568696E+01 0.91110517780E+01 0.13322310560E+02 0.20666534060E+02
 0.30682994836E+02 0.52426189112E+02 0.88311239634E+02 0.12393845493E+03 0.31098523700E+03
 0.27801664312E+03 0.19758437238E+03 0.11097476209E+03 0.52426189112E+02 0.27883302550E+02
 0.17752282685E+02 0.10640281814E+02 0.77482005856E+01 0.76072722606E+01 0.78177168974E+01
 0.74401301046E+01 0.71274706478E+01 0.74401301046E+01 0.78177168974E+01 0.76072722606E+01
 0.77482005856E+01 0.10640281814E+02 0.17752282685E+02 0.27883302550E+02 0.52426189112E+02
 0.11097476209E+03 0.19758437238E+03 0.27801664312E+03 0.54045680215E+03 0.48533938701E+03
 0.34908612623E+03 0.19758437238E+03 0.88311239634E+02 0.37772529914E+02 0.22030366278E+02
 0.12347206762E+02 0.78582694555E+01 0.78177168974E+01 0.84311213046E+01 0.78159340841E+01
 0.72227317819E+01 0.78159340841E+01 0.84311213046E+01 0.78177168974E+01 0.78582694555E+01
 0.12347206762E+02 0.22030366278E+02 0.37772529914E+02 0.88311239634E+02 0.19758437238E+03
 0.34908612623E+03 0.48533938701E+03 0.74318898135E+03 0.66921659126E+03 0.48533938701E+03
 0.27801664312E+03 0.12393845493E+03 0.48354996991E+02 0.25091588858E+02 0.13696000751E+02
 0.77857058667E+01 0.74401301046E+01 0.78159340841E+01 0.64214106638E+01 0.53384599007E+01
 0.64214106638E+01 0.78159340841E+01 0.74401301046E+01 0.77857058667E+01 0.13696000751E+02
 0.25091588858E+02 0.48354996991E+02 0.12393845493E+03 0.27801664312E+03 0.48533938701E+03
 0.66921659126E+03 0.74318898135E+03 0.66921659126E+03 0.48533938701E+03 0.27801664312E+03
 0.12393845493E+03 0.48354996991E+02 0.25091588858E+02 0.13696000751E+02 0.77857058667E+01
 0.74401301046E+01 0.78159340841E+01 0.64214106638E+01 0.53384599007E+01 0.64214106638E+01
 0.78159340841E+01 0.74401301046E+01 0.77857058667E+01 0.13696000751E+02 0.25091588858E+02
 0.48354996991E+02 0.12393845493E+03 0.27801664312E+03 0.48533938701E+03 0.66921659126E+03
 0.66921659126E+03 0.60206542947E+03 0.43542325523E+03 0.24833451335E+03 0.11058757328E+03
 0.44292826531E+02 0.24022690083E+02 0.13215711733E+02 0.78264199615E+01 0.76595824723E+01
 0.82478980107E+01 0.72688577545E+01 0.64214106638E+01 0.72688577545E+01 0.82478980107E+01
 0.76595824723E+01 0.78264199615E+01 0.13215711733E+02 0.24022690083E+02 0.44292826531E+02
 0.11058757328E+03 0.24833451335E+03 0.43542325523E+03 0.60206542947E+03 0.48533938701E+03
 0.43542325523E+03 0.31230334904E+03 0.17616471975E+03 0.79116867594E+02 0.35187407007E+02
 0.21129205287E+02 0.11981862992E+02 0.78615783961E+01 0.78839773937E+01 0.85934450837E+01
 0.82478980107E+01 0.78159340841E+01 0.82478980107E+01 0.85934450837E+01 0.78839773937E+01
 0.78615783961E+01 0.11981862992E+02 0.21129205287E+02 0.35187407007E+02 0.79116867594E+02
 0.17616471975E+03 0.31230334904E+03 0.43542325523E+03 0.27801664312E+03 0.24833451335E+03
 0.17616471975E+03 0.99083077122E+02 0.47796038605E+02 0.26641555651E+02 0.17094366976E+02
 0.10436793320E+02 0.77681171465E+01 0.76339452703E+01 0.78839773937E+01 0.76595824723E+01
 0.74401301046E+01 0.76595824723E+01 0.78839773937E+01 0.76339452703E+01 0.77681171465E+01
 0.10436793320E+02 0.17094366976E+02 0.26641555651E+02 0.47796038605E+02 0.99083077122E+02
 0.17616471975E+03 0.24833451335E+03 0.12393845493E+03 0.11058757328E+03 0.79116867594E+02
 0.47796038605E+02 0.29086151844E+02 0.19912023118E+02 0.12961332423E+02 0.90616077095E+01
 0.78140508204E+01 0.77681171465E+01 0.78615783961E+01 0.78264199615E+01 0.77857058667E+01
 0.78264199615E+01 0.78615783961E+01 0.77681171465E+01 0.78140508204E+01 0.90616077095E+01
 0.12961332423E+02 0.19912023118E+02 0.29086151844E+02 0.47796038605E+02 0.79116867594E+02
 0.11058757328E+03 0.48354996991E+02 0.44292826531E+02 0.35187407007E+02 0.26641555651E+02
 0.19912023118E+02 0.13816080466E+02 0.98734872165E+01 0.85389736428E+01 0.90616077095E+01
 0.10436793320E+02 0.11981862992E+02 0.13215711733E+02 0.13696000751E+02 0.13215711733E+02
 0.11981862992E+02 0.10436793320E+02 0.90616077095E+01 0.85389736428E+01 0.98734872165E+01
 0.13816080466E+02 0.19912023118E+02 0.26641555651E+02 0.35187407007E+02 0.44292826531E+02
 0.25091588858E+02 0.24022690083E+02 0.21129205287E+02 0.17094366976E+02 0.12961332423E+02
 0.98734872165E+01 0.87301016263E+01 0.98734872165E+01 0.12961332423E+02 0.17094366976E+02
 0.21129205287E+02 0.24022690083E+02 0.25091588858E+02 0.24022690083E+02 0.21129205287E+02
 0.17094366976E+02 0.12961332423E+02 0.98734872165E+01 0.87301016263E+01 0.98734872165E+01
 0.12961332423E+02 0.17094366976E+02 0.21129205287E+02 0.24022690083E+02 0.13696000751E+02
 0.13215711733E+02 0.11981862992E+02 0.10436793320E+02 0.90616077095E+01 0.85389736428E+01
 0.98734872165E+01 0.13816080466E+02 0.19912023118E+02 0.26641555651E+02 0.35187407007E+02
 0.44292826531E+02 0.48354996991E+02 0.44292826531E+02 0.35187407007E+02 0.26641555651E+02
 0.19912023118E+02 0.13816080466E+02 0.98734872165E+01 0.85389736428E+01 0.90616077095E+01
 0.10436793320E+02 0.11981862992E+02 0.13215711733E+02 0.77857058667E+01 0.78264199615E+01
 0.78615783961E+01 0.77681171465E+01 0.78140508204E+01 0.90616077095E+01 0.12961332423E+02
 0.19912023118E+02 0.29086151844E+02 0.47796038605E+02 0.79116867594E+02 0.11058757328E+03
 0.12393845493E+03 0.11058757328E+03 0.79116867594E+02 0.47796038605E+02 0.29086151844E+02
 0.19912023118E+02 0.12961332423E+02 0.90616077095E+01 0.78140508204E+01 0.77681171465E+01
 0.78615783961E+01 0.78264199615E+01 0.74401301046E+01 0.76595824723E+01 0.78839773937E+01
 0.76339452703E+01 0.77681171465E+01 0.10436793320E+02 0.17094366976E+02 0.26641555651E+02
 0.47796038605E+02 0.99083077122E+02 0.17616471975E+03 0.24833451335E+03 0.27801664312E+03
 0.24833451335E+03 0.17616471975E+03 0.99083077122E+02 0.47796038605E+02 0.26641555651E+02
 0.17094366976E+02 0.10436793320E+02 0.77681171465E+01 0.76339452703E+01 0.78839773937E+01
 0.76595824723E+01 0.78159340841E+01 0.82478980107E+01 0.85934450837E+01 0.78839773937E+01
 0.78615783961E+01 0.11981862992E+02 0.21129205287E+02 0.35187407007E+02 0.79116867594E+02
 0.17616471975E+03 0.31230334904E+03 0.43542325523E+03 0.48533938701E+03 0.43542325523E+03
 0.31230334904E+03 0.17616471975E+03 0.79116867594E+02 0.35187407007E+02 0.21129205287E+02
 0.11981862992E+02 0.78615783961E+01 0.78839773937E+01 0.85934450837E+01 0.82478980107E+01
 0.64214106638E+01 0.72688577545E+01 0.82478980107E+01 0.76595824723E+01 0.78264199615E+01
 0.13215711733E+02 0.24022690083E+02 0.44292826531E+02 0.11058757328E+03 0.24833451335E+03
 0.43542325523E+03 0.60206542947E+03 0.66921659126E+03 0.60206542947E+03 0.43542325523E+03
 0.24833451335E+03 0.11058757328E+03 0.44292826531E+02 0.24022690083E+02 0.13215711733E+02
 0.78264199615E+01 0.76595824723E+01 0.82478980107E+01 0.72688577545E+01 0.53384599007E+01
 0.64214106638E+01 0.78159340841E+01 0.74401301046E+01 0.77857058667E+01 0.13696000751E+02
 0.25091588858E+02 0.48354996991E+02 0.12393845493E+03 0.27801664312E+03 0.48533938701E+03
 0.66921659126E+03 0.74318898135E+03 0.66921659126E+03 0.48533938701E+03 0.27801664312E+03
 0.12393845493E+03 0.48354996991E+02 0.25091588858E+02 0.13696000751E+02 0.77857058667E+01
 0.74401301046E+01 0.78159340841E+01 0.64214106638E+01 0.64214106638E+01 0.72688577545E+01
 0.82478980107E+01 0.76595824723E+01 0.78264199615E+01 0.13215711733E+02 0.24022690083E+02
 0.44292826531E+02 0.11058757328E+03 0.24833451335E+03 0.43542325523E+03 0.60206542947E+03
 0.66921659126E+03 0.60206542947E+03 0.43542325523E+03 0.24833451335E+03 0.11058757328E+03
 0.44292826531E+02 0.24022690083E+02 0.13215711733E+02 0.78264199615E+01 0.76595824723E+01
 0.82478980107E+01 0.72688577545E+01 0.78159340841E+01 0.82478980107E+01 0.85934450837E+01
 0.78839773937E+01 0.78615783961E+01 0.11981862992E+02 0.21129205287E+02 0.35187407007E+02
 0.79116867594E+02 0.17616471975E+03 0.31230334904E+03 0.43542325523E+03 0.48533938701E+03
 0.43542325523E+03 0.31230334904E+03 0.17616471975E+03 0.79116867594E+02 0.35187407007E+02
 0.21129205287E+02 0.11981862992E+02 0.78615783961E+01 0.78839773937E+01 0.85934450837E+01
 0.82478980107E+01 0.74401301046E+01 0.76595824723E+01 0.78839773937E+01 0.76339452703E+01
 0.77681171465E+01 0.10436793320E+02 0.17094366976E+02 0.26641555651E+02 0.47796038605E+02
 0.99083077122E+02 0.17616471975E+03 0.24833451335E+03 0.27801664312E+03 0.24833451335E+03
 0.17616471975E+03 0.99083077122E+02 0.47796038605E+02 0.26641555651E+02 0.17094366976E+02
 0.10436793320E+02 0.77681171465E+01 0.76339452703E+01 0.78839773937E+01 0.76595824723E+01
 0.77857058667E+01 0.78264199615E+01 0.78615783961E+01 0.77681171465E+01 0.78140508204E+01
 0.90616077095E+01 0.12961332423E+02 0.19912023118E+02 0.29086151844E+02 0.47796038605E+02
 0.79116867594E+02 0.11058757328E+03 0.12393845493E+03 0.11058757328E+03 0.79116867594E+02
 0.47796038605E+02 0.29086151844E+02 0.19912023118E+02 0.12961332423E+02 0.90616077095E+01
 0.78140508204E+01 0.77681171465E+01 0.78615783961E+01 0.78264199615E+01 0.13696000751E+02
 0.13215711733E+02 0.11981862992E+02 0.10436793320E+02 0.90616077095E+01 0.85389736428E+01
 0.98734872165E+01 0.13816080466E+02 0.19912023118E+02 0.26641555651E+02 0.35187407007E+02
 0.44292826531E+02 0.48354996991E+02 0.44292826531E+02 0.35187407007E+02 0.26641555651E+02
 0.19912023118E+02 0.13816080466E+02 0.98734872165E+01 0.85389736428E+01 0.90616077095E+01
 0.10436793320E+02 0.11981862992E+02 0.13215711733E+02 0.25091588858E+02 0.24022690083E+02
 0.21129205287E+02 0.17094366976E+02 0.12961332423E+02 0.98734872165E+01 0.87301016263E+01
 0.98734872165E+01 0.12961332423E+02 0.17094366976E+02 0.21129205287E+02 0.24022690083E+02
 0.25091588858E+02 0.24022690083E+02 0.21129205287E+02 0.17094366976E+02 0.12961332423E+02
 0.98734872165E+01 0.87301016263E+01 0.98734872165E+01 0.12961332423E+02 0.17094366976E+02
 0.21129205287E+02 0.24022690083E+02 0.48354996991E+02 0.44292826531E+02 0.35187407007E+02
 0.26641555651E+02 0.19912023118E+02 0.13816080466E+02 0.98734872165E+01 0.85389736428E+01
 0.90616077095E+01 0.10436793320E+02 0.11981862992E+02 0.13215711733E+02 0.13696000751E+02
 0.13215711733E+02 0.11981862992E+02 0.10436793320E+02 0.90616077095E+01 0.85389736428E+01
 0.98734872165E+01 0.13816080466E+02 0.19912023118E+02 0.26641555651E+02 0.35187407007E+02
 0.44292826531E+02 0.12393845493E+03 0.11058757328E+03 0.79116867594E+02 0.47796038605E+02
 0.29086151844E+02 0.19912023118E+02 0.12961332423E+02 0.90616077095E+01 0.78140508204E+01
 0.77681171465E+01 0.78615783961E+01 0.78264199615E+01 0.77857058667E+01 0.78264199615E+01
 0.78615783961E+01 0.77681171465E+01 0.78140508204E+01 0.90616077095E+01 0.12961332423E+02
 0.19912023118E+02 0.29086151844E+02 0.47796038605E+02 0.79116867594E+02 0.11058757328E+03
 0.27801664312E+03 0.24833451335E+03 0.17616471975E+03 0.99083077122E+02 0.47796038605E+02
 0.26641555651E+02 0.17094366976E+02 0.10436793320E+02 0.77681171465E+01 0.76339452703E+01
 0.78839773937E+01 0.76595824723E+01 0.74401301046E+01 0.76595824723E+01 0.78839773937E+01
 0.76339452703E+01 0.77681171465E+01 0.10436793320E+02 0.17094366976E+02 0.26641555651E+02
 0.47796038605E+02 0.99083077122E+02 0.17616471975E+03 0.24833451335E+03 0.48533938701E+03
 0.43542325523E+03 0.31230334904E+03 0.17616471975E+03 0.79116867594E+02 0.35187407007E+02
 0.21129205287E+02 0.11981862992E+02 0.78615783961E+01 0.78839773937E+01 0.85934450837E+01
 0.82478980107E+01 0.78159340841E+01 0.82478980107E+01 0.85934450837E+01 0.78839773937E+01
 0.78615783961E+01 0.11981862992E+02 0.21129205287E+02 0.35187407007E+02 0.79116867594E+02
 0.17616471975E+03 0.31230334904E+03 0.43542325523E+03 0.66921659126E+03 0.60206542947E+03
 0.43542325523E+03 0.24833451335E+03 0.11058757328E+03 0.44292826531E+02 0.24022690083E+02
 0.13215711733E+02 0.78264199615E+01 0.76595824723E+01 0.82478980107E+01 0.72688577545E+01
 0.64214106638E+01 0.72688577545E+01 0.82478980107E+01 0.76595824723E+01 0.78264199615E+01
 0.13215711733E+02 0.24022690083E+02 0.44292826531E+02 0.11058757328E+03 0.24833451335E+03
 0.43542325523E+03 0.60206542947E+03 0.54045680215E+03 0.48533938701E+03 0.34908612623E+03
 0.19758437238E+03 0.88311239634E+02 0.37772529914E+02 0.22030366278E+02 0.12347206762E+02
 0.78582694555E+01 0.78177168974E+01 0.84311213046E+01 0.78159340841E+01 0.72227317819E+01
 0.78159340841E+01 0.84311213046E+01 0.78177168974E+01 0.78582694555E+01 0.12347206762E+02
 0.22030366278E+02 0.37772529914E+02 0.88311239634E+02 0.19758437238E+03 0.34908612623E+03
 0.48533938701E+03 0.48533938701E+03 0.43542325523E+03 0.31230334904E+03 0.17616471975E+03
 0.79116867594E+02 0.35187407007E+02 0.21129205287E+02 0.11981862992E+02 0.78615783961E+01
 0.78839773937E+01 0.85934450837E+01 0.82478980107E+01 0.78159340841E+01 0.82478980107E+01
 0.85934450837E+01 0.78839773937E+01 0.78615783961E+01 0.11981862992E+02 0.21129205287E+02
 0.35187407007E+02 0.79116867594E+02 0.17616471975E+03 0.31230334904E+03 0.43542325523E+03
 0.34908612623E+03 0.31230334904E+03 0.22229741011E+03 0.12469640027E+03 0.57835161526E+02
 0.29420756618E+02 0.18673517654E+02 0.11053119953E+02 0.78577522046E+01 0.78912761631E+01
 0.85646838054E+01 0.85934450837E+01 0.84311213046E+01 0.85934450837E+01 0.85646838054E+01
 0.78912761631E+01 0.78577522046E+01 0.11053119953E+02 0.18673517654E+02 0.29420756618E+02
 0.57835161526E+02 0.12469640027E+03 0.22229741011E+03 0.31230334904E+03 0.19758437238E+03
 0.17616471975E+03 0.12469640027E+03 0.71240115395E+02 0.37439931129E+02 0.23637607400E+02
 0.15333962850E+02 0.99090979038E+01 0.78199271707E+01 0.76656494210E+01 0.78912761631E+01
 0.78839773937E+01 0.78177168974E+01 0.78839773937E+01 0.78912761631E+01 0.76656494210E+01
 0.78199271707E+01 0.99090979038E+01 0.15333962850E+02 0.23637607400E+02 0.37439931129E+02
 0.71240115395E+02 0.12469640027E+03 0.17616471975E+03 0.88311239634E+02 0.79116867594E+02
 0.57835161526E+02 0.37439931129E+02 0.25474888256E+02 0.17879023975E+02 0.12011701866E+02
 0.89033153862E+01 0.79172139533E+01 0.78199271707E+01 0.78577522046E+01 0.78615783961E+01
 0.78582694555E+01 0.78615783961E+01 0.78577522046E+01 0.78199271707E+01 0.79172139533E+01
 0.89033153862E+01 0.12011701866E+02 0.17879023975E+02 0.25474888256E+02 0.37439931129E+02
 0.57835161526E+02 0.79116867594E+02 0.37772529914E+02 0.35187407007E+02 0.29420756618E+02
 0.23637607400E+02 0.17879023975E+02 0.12767102144E+02 0.95906018722E+01 0.85330835690E+01
 0.89033153862E+01 0.99090979038E+01 0.11053119953E+02 0.11981862992E+02 0.12347206762E+02
 0.11981862992E+02 0.11053119953E+02 0.99090979038E+01 0.89033153862E+01 0.85330835690E+01
 0.95906018722E+01 0.12767102144E+02 0.17879023975E+02 0.23637607400E+02 0.29420756618E+02
 0.35187407007E+02 0.22030366278E+02 0.21129205287E+02 0.18673517654E+02 0.15333962850E+02
 0.12011701866E+02 0.95906018722E+01 0.87067347020E+01 0.95906018722E+01 0.12011701866E+02
 0.15333962850E+02 0.18673517654E+02 0.21129205287E+02 0.22030366278E+02 0.21129205287E+02
 0.18673517654E+02 0.15333962850E+02 0.12011701866E+02 0.95906018722E+01 0.87067347020E+01
 0.95906018722E+01 0.12011701866E+02 0.15333962850E+02 0.18673517654E+02 0.21129205287E+02
 0.12347206762E+02 0.11981862992E+02 0.11053119953E+02 0.99090979038E+01 0.89033153862E+01
 0.85330835690E+01 0.95906018722E+01 0.12767102144E+02 0.17879023975E+02 0.23637607400E+02
 0.29420756618E+02 0.35187407007E+02 0.37772529914E+02 0.35187407007E+02 0.29420756618E+02
 0.23637607400E+02 0.17879023975E+02 0.12767102144E+02 0.95906018722E+01 0.85330835690E+01
 0.89033153862E+01 0.99090979038E+01 0.11053119953E+02 0.11981862992E+02 0.78582694555E+01
 0.78615783961E+01 0.78577522046E+01 0.78199271707E+01 0.79172139533E+01 0.89033153862E+01
 0.12011701866E+02 0.17879023975E+02 0.25474888256E+02 0.37439931129E+02 0.57835161526E+02
 0.79116867594E+02 0.88311239634E+02 0.79116867594E+02 0.57835161526E+02 0.37439931129E+02
 0.25474888256E+02 0.17879023975E+02 0.12011701866E+02 0.89033153862E+01 0.79172139533E+01
 0.78199271707E+01 0.78577522046E+01 0.78615783961E+01 0.78177168974E+01 0.78839773937E+01
 0.78912761631E+01 0.76656494210E+01 0.78199271707E+01 0.99090979038E+01 0.15333962850E+02
 0.23637607400E+02 0.37439931129E+02 0.71240115395E+02 0.12469640027E+03 0.17616471975E+03
 0.19758437238E+03 0.17616471975E+03 0.12469640027E+03 0.71240115395E+02 0.37439931129E+02
 0.23637607400E+02 0.15333962850E+02 0.99090979038E+01 0.78199271707E+01 0.76656494210E+01
 0.78912761631E+01 0.78839773937E+01 0.84311213046E+01 0.85934450837E+01 0.85646838054E+01
 0.78912761631E+01 0.78577522046E+01 0.11053119953E+02 0.18673517654E+02 0.29420756618E+02
 0.57835161526E+02 0.12469640027E+03 0.22229741011E+03 0.31230334904E+03 0.34908612623E+03
 0.31230334904E+03 0.22229741011E+03 0.12469640027E+03 0.57835161526E+02 0.29420756618E+02
 0.18673517654E+02 0.11053119953E+02 0.78577522046E+01 0.78912761631E+01 0.85646838054E+01
 0.85934450837E+01 0.78159340841E+01 0.82478980107E+01 0.85934450837E+01 0.78839773937E+01
 0.78615783961E+01 0.11981862992E+02 0.21129205287E+02 0.35187407007E+02 0.79116867594E+02
 0.17616471975E+03 0.31230334904E+03 0.43542325523E+03 0.48533938701E+03 0.43542325523E+03
 0.31230334904E+03 0.17616471975E+03 0.79116867594E+02 0.35187407007E+02 0.21129205287E+02
 0.11981862992E+02 0.78615783961E+01 0.78839773937E+01 0.85934450837E+01 0.82478980107E+01
 0.72227317819E+01 0.78159340841E+01 0.84311213046E+01 0.78177168974E+01 0.78582694555E+01
 0.12347206762E+02 0.22030366278E+02 0.37772529914E+02 0.88311239634E+02 0.19758437238E+03
 0.34908612623E+03 0.48533938701E+03 0.54045680215E+03 0.48533938701E+03 0.34908612623E+03
 0.19758437238E+03 0.88311239634E+02 0.37772529914E+02 0.22030366278E+02 0.12347206762E+02
 0.78582694555E+01 0.78177168974E+01 0.84311213046E+01 0.78159340841E+01 0.78159340841E+01
 0.82478980107E+01 0.85934450837E+01 0.78839773937E+01 0.78615783961E+01 0.11981862992E+02
 0.21129205287E+02 0.35187407007E+02 0.79116867594E+02 0.17616471975E+03 0.31230334904E+03
 0.43542325523E+03 0.48533938701E+03 0.43542325523E+03 0.31230334904E+03 0.17616471975E+03
 0.79116867594E+02 0.35187407007E+02 0.21129205287E+02 0.11981862992E+02 0.78615783961E+01
 0.78839773937E+01 0.85934450837E+01 0.82478980107E+01 0.84311213046E+01 0.85934450837E+01
 0.85646838054E+01 0.78912761631E+01 0.78577522046E+01 0.11053119953E+02 0.18673517654E+02
 0.29420756618E+02 0.57835161526E+02 0.12469640027E+03 0.22229741011E+03 0.31230334904E+03
 0.34908612623E+03 0.31230334904E+03 0.22229741011E+03 0.12469640027E+03 0.57835161526E+02
 0.29420756618E+02 0.18673517654E+02 0.11053119953E+02 0.78577522046E+01 0.78912761631E+01
 0.85646838054E+01 0.85934450837E+01 0.78177168974E+01 0.78839773937E+01 0.78912761631E+01
 0.76656494210E+01 0.78199271707E+01 0.99090979038E+01 0.15333962850E+02 0.23637607400E+02
 0.37439931129E+02 0.71240115395E+02 0.12469640027E+03 0.17616471975E+03 0.19758437238E+03
 0.17616471975E+03 0.12469640027E+03 0.71240115395E+02 0.37439931129E+02 0.23637607400E+02
 0.15333962850E+02 0.99090979038E+01 0.78199271707E+01 0.76656494210E+01 0.78912761631E+01
 0.78839773937E+01 0.78582694555E+01 0.78615783961E+01 0.78577522046E+01 0.78199271707E+01
 0.79172139533E+01 0.89033153862E+01 0.12011701866E+02 0.17879023975E+02 0.25474888256E+02
 0.37439931129E+02 0.57835161526E+02 0.79116867594E+02 0.88311239634E+02 0.79116867594E+02
 0.57835161526E+02 0.37439931129E+02 0.25474888256E+02 0.17879023975E+02 0.12011701866E+02
 0.89033153862E+01 0.79172139533E+01 0.78199271707E+01 0.78577522046E+01 0.78615783961E+01
 0.12347206762E+02 0.11981862992E+02 0.11053119953E+02 0.99090979038E+01 0.89033153862E+01
 0.85330835690E+01 0.95906018722E+01 0.12767102144E+02 0.17879023975E+02 0.23637607400E+02
 0.29420756618E+02 0.35187407007E+02 0.37772529914E+02 0.35187407007E+02 0.29420756618E+02
 0.23637607400E+02 0.17879023975E+02 0.12767102144E+02 0.95906018722E+01 0.85330835690E+01
 0.89033153862E+01 0.99090979038E+01 0.11053119953E+02 0.11981862992E+02 0.22030366278E+02
 0.21129205287E+02 0.18673517654E+02 0.15333962850E+02 0.12011701866E+02 0.95906018722E+01
 0.87067347020E+01 0.95906018722E+01 0.12011701866E+02 0.15333962850E+02 0.18673517654E+02
 0.21129205287E+02 0.22030366278E+02 0.21129205287E+02 0.18673517654E+02 0.15333962850E+02
 0.12011701866E+02 0.95906018722E+01 0.87067347020E+01 0.95906018722E+01 0.12011701866E+02
 0.15333962850E+02 0.18673517654E+02 0.21129205287E+02 0.37772529914E+02 0.35187407007E+02
 0.29420756618E+02 0.23637607400E+02 0.17879023975E+02 0.12767102144E+02 0.95906018722E+01
 0.85330835690E+01 0.89033153862E+01 0.99090979038E+01 0.11053119953E+02 0.11981862992E+02
 0.12347206762E+02 0.11981862992E+02 0.11053119953E+02 0.99090979038E+01 0.89033153862E+01