    4    4    1    1
  0.1200752E+02  0.3635000E-09  0.3635000E-09  0.3635000E-09  0.5000000E-15
  1.000000000000000E-004
  CAR 
 unknown system                          
     44     10     30
 
  0.0000000E+00  0.0000000E+00  0.0000000E+00  0.8000000E-02
    1       -1.693509   1.000000
    2        3.274025   1.000000
    3        3.274025   1.000000
    4        3.274025   1.000000
    5        3.387825   1.000000
    6        3.387825   1.000000
    7        3.387825   1.000000
    8        4.221561   1.000000
    9        4.221561   1.000000
   10        4.221561   1.000000
   11        5.257891   1.000000
   12        5.257891   1.000000
   13        5.257891   1.000000
   14        5.257891   1.000000
   15        5.257891   1.000000
   16        5.257891   1.000000
   17        5.456135   1.000000
   18        5.456135   1.000000
   19        5.456135   1.000000
   20        5.626830   1.000000
   21        5.626830   1.000000
   22        9.061235  -0.000000
   23        9.061235  -0.000000
   24        9.061235  -0.000000
   25       14.177378   0.000000
   26       14.177378   0.000000
   27       14.177378   0.000000
   28       20.439409   0.000000
   29       20.439409   0.000000
   30       20.439409   0.000000
 
  0.2000000E+00  0.0000000E+00  0.0000000E+00  0.4800000E-01
    1       -1.217746   1.000000
    2        3.261490   1.000000
    3        3.406862   1.000000
    4        3.420676   1.000000
    5        3.420676   1.000000
    6        3.444954   1.000000
    7        3.444954   1.000000
    8        4.132994   1.000000
    9        4.360698   1.000000
   10        4.360698   1.000000
   11        4.662972   1.000000
   12        4.662972   1.000000
   13        4.893827   1.000000
   14        4.896123   1.000000
   15        4.896123   1.000000
   16        5.149893   1.000000
   17        5.149893   1.000000
   18        5.287219   1.000000
   19        5.287219   1.000000
   20        5.421050   1.000000
   21        5.704713   1.000000
   22        6.994567   0.477706
   23        9.989547  -0.000000
   24        9.989547  -0.000000
   25       14.363624   0.000000
   26       14.363624   0.000000
   27       17.322747   0.000000
   28       18.076633   0.000000
   29       18.076633   0.000000
   30       18.769352   0.000000
 
  0.4000000E+00  0.0000000E+00  0.0000000E+00  0.4800000E-01
    1        0.140573   1.000000
    2        1.776504   1.000000
    3        3.293199   1.000000
    4        3.312618   1.000000
    5        3.312618   1.000000
    6        3.485392   1.000000
    7        3.485392   1.000000
    8        3.913652   1.000000
    9        4.007045   1.000000
   10        4.007045   1.000000
   11        4.209592   1.000000
   12        4.209592   1.000000
   13        4.503142   1.000000
   14        4.666292   1.000000
   15        4.761963   1.000000
   16        4.761963   1.000000
   17        4.857696   1.000000
   18        4.857696   1.000000
   19        4.889734   1.000000
   20        4.889734   1.000000
   21        5.333761   1.000000
   22        5.927621   1.000000
   23       12.127841  -0.000000
   24       12.127841  -0.000000
   25       14.873437   0.000000
   26       14.873437   0.000000
   27       15.005028   0.000000
   28       15.005028   0.000000
   29       16.555861   0.000000
   30       16.555861   0.000000
 
  0.2000000E+00  0.2000000E+00  0.0000000E+00  0.9600000E-01
    1       -0.752382   1.000000
    2        3.072561   1.000000
    3        3.255624   1.000000
    4        3.371684   1.000000
    5        3.371684   1.000000
    6        3.499565   1.000000
    7        3.499565   1.000000
    8        4.111486   1.000000
    9        4.132508   1.000000
   10        4.423241   1.000000
   11        4.423608   1.000000
   12        4.458298   1.000000
   13        4.658324   1.000000
   14        4.658324   1.000000
   15        4.659985   1.000000
   16        4.913865   1.000000
   17        4.913865   1.000000
   18        5.030548   1.000000
   19        5.220104   1.000000
   20        5.220104   1.000000
   21        5.399872   1.000000
   22        7.803024  -0.000000
   23        7.803024  -0.000000
   24       10.762714  -0.000000
   25       14.335888   0.000000
   26       14.840659   0.000000
   27       17.653050   0.000000
   28       17.653050   0.000000
   29       18.640787   0.000000
   30       18.640787   0.000000
 
  0.4000000E+00  0.2000000E+00  0.0000000E+00  0.1920000E+00
    1        0.550817   1.000000
    2        2.055995   1.000000
    3        3.305494   1.000000
    4        3.379536   1.000000
    5        3.445780   1.000000
    6        3.460725   1.000000
    7        3.829781   1.000000
    8        3.843696   1.000000
    9        3.890170   1.000000
   10        4.108177   1.000000
   11        4.147265   1.000000
   12        4.305798   1.000000
   13        4.630025   1.000000
   14        4.676714   1.000000
   15        4.685327   1.000000
   16        4.688509   1.000000
   17        4.766151   1.000000
   18        4.792338   1.000000
   19        4.993461   1.000000
   20        5.224926   1.000000
   21        5.345336   1.000000
   22        5.498873   1.000000
   23        9.372716  -0.000000
   24       11.658312  -0.000000
   25       12.799485   0.000000
   26       15.379796   0.000000
   27       15.457104   0.000000
   28       16.939859   0.000000
   29       18.718113   0.000000
   30       20.192338   0.000000
 
  0.4000000E+00  0.4000000E+00  0.0000000E+00  0.9600000E-01
    1        1.597077   1.000000
    2        3.026382   1.000000
    3        3.026382   1.000000
    4        3.587384   1.000000
    5        3.890490   1.000000
    6        3.920426   1.000000
    7        3.935710   1.000000
    8        3.935710   1.000000
    9        3.952811   1.000000
   10        3.998260   1.000000
   11        3.998260   1.000000
   12        4.322079   1.000000
   13        4.398266   1.000000
   14        4.555009   1.000000
   15        4.555009   1.000000
   16        4.744292   1.000000
   17        4.909370   1.000000
   18        4.909370   1.000000
   19        4.977512   1.000000
   20        5.309502   1.000000
   21        5.344614   1.000000
   22        6.901810   0.833824
   23        6.901810   0.833824
   24        8.782569  -0.000000
   25       14.554609   0.000000
   26       16.383018   0.000000
   27       17.097215   0.000000
   28       17.097215   0.000000
   29       18.204712   0.000000
   30       18.204712   0.000000
 
  0.2000000E+00  0.2000000E+00  0.2000000E+00  0.6400000E-01
    1       -0.303940   1.000000
    2        3.136572   1.000000
    3        3.136572   1.000000
    4        3.136572   1.000000
    5        3.314561   1.000000
    6        3.314561   1.000000
    7        3.314561   1.000000
    8        4.146392   1.000000
    9        4.311867   1.000000
   10        4.311867   1.000000
   11        4.311867   1.000000
   12        4.351360   1.000000
   13        4.351360   1.000000
   14        4.642774   1.000000
   15        4.642774   1.000000
   16        4.642774   1.000000
   17        4.924419   1.000000
   18        4.924419   1.000000
   19        5.336088   1.000000
   20        5.336088   1.000000
   21        5.336088   1.000000
   22        8.345862  -0.000000
   23        8.345862  -0.000000
   24        8.345862  -0.000000
   25       15.199523   0.000000
   26       15.199523   0.000000
   27       15.199523   0.000000
   28       17.977683   0.000000
   29       17.977683   0.000000
   30       17.977683   0.000000
 
  0.4000000E+00  0.2000000E+00  0.2000000E+00  0.1920000E+00
    1        0.911093   1.000000
    2        2.418337   1.000000
    3        3.495334   1.000000
    4        3.495334   1.000000
    5        3.651885   1.000000
    6        3.651885   1.000000
    7        3.803586   1.000000
    8        3.810014   1.000000
    9        4.192297   1.000000
   10        4.192297   1.000000
   11        4.209513   1.000000
   12        4.281863   1.000000
   13        4.428156   1.000000
   14        4.512553   1.000000
   15        4.521620   1.000000
   16        4.521620   1.000000
   17        4.961356   1.000000
   18        4.982531   1.000000
   19        4.982531   1.000000
   20        4.989718   1.000000
   21        5.116571   1.000000
   22        5.882364   1.000000
   23        9.743841  -0.000000
   24        9.743841  -0.000000
   25       12.339220  -0.000000
   26       12.339220  -0.000000
   27       16.737256   0.000000
   28       19.024248   0.000000
   29       19.118531   0.000000
   30       19.118531   0.000000
 
  0.4000000E+00  0.4000000E+00  0.2000000E+00  0.1920000E+00
    1        1.825572   1.000000
    2        2.813196   1.000000
    3        2.813196   1.000000
    4        3.266175   1.000000
    5        3.709576   1.000000
    6        3.709576   1.000000
    7        3.883409   1.000000
    8        3.949682   1.000000
    9        3.987436   1.000000
   10        3.987436   1.000000
   11        4.157318   1.000000
   12        4.158816   1.000000
   13        4.393090   1.000000
   14        4.400643   1.000000
   15        4.400643   1.000000
   16        4.540379   1.000000
   17        4.791025   1.000000
   18        4.791025   1.000000
   19        4.992287   1.000000
   20        5.113155   1.000000
   21        5.224510   1.000000
   22        6.809165   1.011510
   23        6.809165   1.011510
   24        8.754854  -0.000000
   25       11.733021  -0.000000
   26       13.730752   0.000000
   27       13.730752   0.000000
   28       15.980748   0.000000
   29       20.348795   0.000000
   30       22.362705   0.000000
 
  0.4000000E+00  0.4000000E+00  0.4000000E+00  0.6400000E-01
    1        2.138772   1.000000
    2        3.068614   1.000000
    3        3.068614   1.000000
    4        3.068614   1.000000
    5        3.874020   1.000000
    6        3.874020   1.000000
    7        3.874020   1.000000
    8        3.899817   1.000000
    9        3.899817   1.000000
   10        4.201201   1.000000
   11        4.201201   1.000000
   12        4.201201   1.000000
   13        4.461115   1.000000
   14        4.461115   1.000000
   15        4.686317   1.000000
   16        4.686317   1.000000
   17        4.686317   1.000000
   18        4.719057   1.000000
   19        4.719057   1.000000
   20        4.719057   1.000000
   21        5.128692   1.000000
   22        7.177590  -0.017938
   23        7.177590  -0.017938
   24        7.177590  -0.017938
   25       11.312817  -0.000000
   26       11.312817  -0.000000
   27       11.312817  -0.000000
   28       13.001251   0.000000
   29       25.706205   0.000000
   30       25.706205   0.000000
