<?xml version="1.0" encoding="ISO-8859-1"?>
<modeling>
 <generator>
  <i name="program" type="string">vasp </i>
  <i name="version" type="string">6.2.0  </i>
  <i name="subversion" type="string">18Jan21 (build Mar 17 2021 09:06:54) complex                          serial </i>
  <i name="platform" type="string">LinuxIFC </i>
  <i name="date" type="string">2021 08 03 </i>
  <i name="time" type="string">10:15:01 </i>
 </generator>
 <incar>
  <i type="string" name="PREC">normal</i>
  <i type="int" name="ICHARG">     1</i>
  <i type="int" name="IBRION">    -1</i>
  <i name="EDIFF">      0.00000100</i>
  <i type="int" name="NSW">     0</i>
  <i name="ENCUT">    180.00000000</i>
  <i type="int" name="NBANDS">    30</i>
  <i type="int" name="ISMEAR">     1</i>
  <i name="SIGMA">      0.20000000</i>
  <i type="logical" name="LCHARG"> T  </i>
  <i type="int" name="KPAR">     1</i>
  <i type="int" name="NCORE">     1</i>
  <i type="string" name="GGA">PE</i>
 </incar>
 <primitive_cell>
  <structure name="primitive_cell" >
   <crystal>
    <varray name="basis" >
     <v>       1.81750000      -1.81750000       0.00000000 </v>
     <v>       1.81750000       0.00000000       1.81750000 </v>
     <v>       0.00000000      -1.81750000       1.81750000 </v>
    </varray>
    <i name="volume">     12.00751822 </i>
    <varray name="rec_basis" >
     <v>       0.27510316      -0.27510316      -0.27510316 </v>
     <v>       0.27510316       0.27510316       0.27510316 </v>
     <v>      -0.27510316      -0.27510316       0.27510316 </v>
    </varray>
   </crystal>
   <varray name="positions" >
    <v>       0.00000000       0.00000000       0.00000000 </v>
   </varray>
  </structure>
  <varray name="primitive_index" >
   <v type="int" >        1 </v>
  </varray>
 </primitive_cell>
 <kpoints>
  <generation param="Monkhorst-Pack">
   <v type="int" name="divisions">       5        5        5 </v>
   <v name="usershift">      0.00000000       0.00000000       0.00000000 </v>
   <v name="genvec1">      0.20000000       0.00000000       0.00000000 </v>
   <v name="genvec2">      0.00000000       0.20000000       0.00000000 </v>
   <v name="genvec3">      0.00000000       0.00000000       0.20000000 </v>
   <v name="shift">      0.00000000       0.00000000       0.00000000 </v>
  </generation>
  <varray name="kpointlist" >
   <v>       0.00000000       0.00000000       0.00000000 </v>
   <v>       0.20000000       0.00000000       0.00000000 </v>
   <v>       0.40000000       0.00000000       0.00000000 </v>
   <v>       0.20000000       0.20000000       0.00000000 </v>
   <v>       0.40000000       0.20000000       0.00000000 </v>
   <v>       0.40000000       0.40000000       0.00000000 </v>
   <v>       0.20000000       0.20000000       0.20000000 </v>
   <v>       0.40000000       0.20000000       0.20000000 </v>
   <v>       0.40000000       0.40000000       0.20000000 </v>
   <v>       0.40000000       0.40000000       0.40000000 </v>
  </varray>
  <varray name="weights" >
   <v>       0.00800000 </v>
   <v>       0.04800000 </v>
   <v>       0.04800000 </v>
   <v>       0.09600000 </v>
   <v>       0.19200000 </v>
   <v>       0.09600000 </v>
   <v>       0.06400000 </v>
   <v>       0.19200000 </v>
   <v>       0.19200000 </v>
   <v>       0.06400000 </v>
  </varray>
 </kpoints>
 <parameters>
  <separator name="general" >
   <i type="string" name="SYSTEM">unknown system</i>
   <i type="logical" name="LCOMPAT"> F  </i>
  </separator>
  <separator name="electronic" >
   <i type="string" name="PREC">normal</i>
   <i name="ENMAX">    180.00000000</i>
   <i name="ENAUG">    586.98000000</i>
   <i name="EDIFF">      0.00000100</i>
   <i type="int" name="IALGO">    38</i>
   <i type="int" name="IWAVPR">     0</i>
   <i type="int" name="NBANDS">    30</i>
   <i type="int" name="NBANDSLOW">    -1</i>
   <i type="int" name="NBANDSHIGH">    -1</i>
   <i name="NELECT">     44.00000000</i>
   <i type="int" name="TURBO">     0</i>
   <i type="int" name="IRESTART">     0</i>
   <i type="int" name="NREBOOT">     0</i>
   <i type="int" name="NMIN">     0</i>
   <i name="EREF">      0.00000000</i>
   <separator name="electronic smearing" >
    <i type="int" name="ISMEAR">     1</i>
    <i name="SIGMA">      0.20000000</i>
    <i name="KSPACING">      0.50000000</i>
    <i type="logical" name="KGAMMA"> T  </i>
    <i type="logical" name="KBLOWUP"> T  </i>
   </separator>
   <separator name="electronic projectors" >
    <i type="logical" name="LREAL"> F  </i>
    <v name="ROPT">      0.00000000</v>
    <i type="int" name="LMAXPAW">  -100</i>
    <i type="int" name="LMAXMIX">     2</i>
    <i type="logical" name="NLSPLINE"> F  </i>
   </separator>
   <separator name="electronic startup" >
    <i type="int" name="ISTART">     1</i>
    <i type="int" name="ICHARG">     1</i>
    <i type="int" name="INIWAV">     1</i>
   </separator>
   <separator name="electronic spin" >
    <i type="int" name="ISPIN">     1</i>
    <i type="logical" name="LNONCOLLINEAR"> F  </i>
    <v name="MAGMOM">      1.00000000      1.00000000      1.00000000      1.00000000</v>
    <i name="NUPDOWN">     -1.00000000</i>
    <i type="logical" name="LSORBIT"> F  </i>
    <v name="SAXIS">      0.00000000      0.00000000      1.00000000</v>
    <i type="logical" name="LSPIRAL"> F  </i>
    <v name="QSPIRAL">      0.00000000      0.00000000      0.00000000</v>
    <i type="logical" name="LZEROZ"> F  </i>
   </separator>
   <separator name="electronic exchange-correlation" >
    <i type="logical" name="LASPH"> F  </i>
    <i type="logical" name="LMETAGGA"> F  </i>
   </separator>
   <separator name="electronic convergence" >
    <i type="int" name="NELM">    60</i>
    <i type="int" name="NELMDL">     0</i>
    <i type="int" name="NELMIN">     2</i>
    <i name="ENINI">    180.00000000</i>
    <separator name="electronic convergence detail" >
     <i type="logical" name="LDIAG"> T  </i>
     <i type="logical" name="LSUBROT"> F  </i>
     <i name="WEIMIN">      0.00000000</i>
     <i name="EBREAK">      0.00000001</i>
     <i name="DEPER">      0.30000000</i>
     <i type="int" name="NRMM">     4</i>
     <i name="TIME">      0.40000000</i>
    </separator>
   </separator>
   <separator name="electronic mixer" >
    <i name="AMIX">      0.40000000</i>
    <i name="BMIX">      1.00000000</i>
    <i name="AMIN">      0.10000000</i>
    <i name="AMIX_MAG">      1.60000000</i>
    <i name="BMIX_MAG">      1.00000000</i>
    <separator name="electronic mixer details" >
     <i type="int" name="IMIX">     4</i>
     <i type="logical" name="MIXFIRST"> F  </i>
     <i type="int" name="MAXMIX">   -45</i>
     <i name="WC">    100.00000000</i>
     <i type="int" name="INIMIX">     1</i>
     <i type="int" name="MIXPRE">     1</i>
     <i type="int" name="MREMOVE">     5</i>
    </separator>
   </separator>
   <separator name="electronic dipolcorrection" >
    <i type="logical" name="LDIPOL"> F  </i>
    <i type="logical" name="LMONO"> F  </i>
    <i type="int" name="IDIPOL">     0</i>
    <i name="EPSILON">      1.00000000</i>
    <v name="DIPOL">   -100.00000000   -100.00000000   -100.00000000</v>
    <i name="EFIELD">      0.00000000</i>
   </separator>
  </separator>
  <separator name="grids" >
   <i type="int" name="NGX">    12</i>
   <i type="int" name="NGY">    12</i>
   <i type="int" name="NGZ">    12</i>
   <i type="int" name="NGXF">    24</i>
   <i type="int" name="NGYF">    24</i>
   <i type="int" name="NGZF">    24</i>
   <i type="logical" name="ADDGRID"> F  </i>
  </separator>
  <separator name="ionic" >
   <i type="int" name="NSW">     0</i>
   <i type="int" name="IBRION">    -1</i>
   <i type="int" name="MDALGO">     0</i>
   <i type="int" name="ISIF">     2</i>
   <i name="PSTRESS">      0.00000000</i>
   <i name="EDIFFG">      0.00001000</i>
   <i type="int" name="NFREE">     0</i>
   <i name="POTIM">      0.50000000</i>
   <i name="SMASS">     -3.00000000</i>
   <i name="SCALEE">      1.00000000</i>
  </separator>
  <separator name="ionic md" >
   <i name="TEBEG">      0.00010000</i>
   <i name="TEEND">      0.00010000</i>
   <i type="int" name="NBLOCK">     1</i>
   <i type="int" name="KBLOCK">     1</i>
   <i type="int" name="NPACO">   256</i>
   <i name="APACO">     16.00000000</i>
  </separator>
  <separator name="symmetry" >
   <i type="int" name="ISYM">     2</i>
   <i name="SYMPREC">      0.00001000</i>
  </separator>
  <separator name="dos" >
   <i type="int" name="LORBIT">     0</i>
   <v name="RWIGS">     -1.00000000</v>
   <i type="int" name="NEDOS">   301</i>
   <i name="EMIN">     10.00000000</i>
   <i name="EMAX">    -10.00000000</i>
   <i name="EFERMI">      0.00000000</i>
  </separator>
  <separator name="writing" >
   <i type="int" name="NWRITE">     2</i>
   <i type="logical" name="LWAVE"> T  </i>
   <i type="logical" name="LDOWNSAMPLE"> F  </i>
   <i type="logical" name="LCHARG"> T  </i>
   <i type="logical" name="LPARD"> F  </i>
   <i type="logical" name="LVTOT"> F  </i>
   <i type="logical" name="LVHAR"> F  </i>
   <i type="logical" name="LELF"> F  </i>
   <i type="logical" name="LOPTICS"> F  </i>
   <v name="STM">      0.00000000      0.00000000      0.00000000      0.00000000      0.00000000      0.00000000      0.00000000</v>
  </separator>
  <separator name="performance" >
   <i type="int" name="NPAR">     1</i>
   <i type="int" name="NSIM">     4</i>
   <i type="int" name="NBLK">    -1</i>
   <i type="logical" name="LPLANE"> T  </i>
   <i type="logical" name="LSCALAPACK"> F  </i>
   <i type="logical" name="LSCAAWARE"> F  </i>
   <i type="logical" name="LSCALU"> F  </i>
   <i type="logical" name="LASYNC"> F  </i>
   <i type="logical" name="LORBITALREAL"> F  </i>
  </separator>
  <separator name="miscellaneous" >
   <i type="int" name="IDIOT">     3</i>
   <i type="int" name="PHON_NSTRUCT">    -1</i>
   <i type="logical" name="LMUSIC"> F  </i>
   <v name="POMASS">     63.54600000</v>
   <v name="DARWINR">      0.00000000</v>
   <v name="DARWINV">      1.00000000</v>
   <i type="logical" name="LCORR"> T  </i>
  </separator>
  <i type="logical" name="GGA_COMPAT"> T  </i>
  <i type="logical" name="LBERRY"> F  </i>
  <i type="int" name="ICORELEVEL">     0</i>
  <i type="logical" name="LDAU"> F  </i>
  <i type="int" name="I_CONSTRAINED_M">     0</i>
  <separator name="electronic exchange-correlation" >
   <i type="string" name="GGA">PE</i>
   <i type="int" name="VOSKOWN">     0</i>
   <i type="logical" name="LHFCALC"> F  </i>
   <i type="string" name="PRECFOCK"></i>
   <i type="logical" name="LSYMGRAD"> F  </i>
   <i type="logical" name="LHFONE"> F  </i>
   <i type="logical" name="LRHFCALC"> F  </i>
   <i type="logical" name="LTHOMAS"> F  </i>
   <i type="logical" name="LMODELHF"> F  </i>
   <i type="logical" name="LFOCKACE"> F  </i>
   <i name="ENCUT4O">     -1.00000000</i>
   <i type="int" name="EXXOEP">     0</i>
   <i type="int" name="FOURORBIT">     0</i>
   <i name="AEXX">      0.00000000</i>
   <i name="HFALPHA">      0.00000000</i>
   <i name="MCALPHA">      0.00000000</i>
   <i name="ALDAX">      1.00000000</i>
   <i name="AGGAX">      1.00000000</i>
   <i name="ALDAC">      1.00000000</i>
   <i name="AGGAC">      1.00000000</i>
   <i type="int" name="NKREDX">     1</i>
   <i type="int" name="NKREDY">     1</i>
   <i type="int" name="NKREDZ">     1</i>
   <i type="logical" name="SHIFTRED"> F  </i>
   <i type="logical" name="ODDONLY"> F  </i>
   <i type="logical" name="EVENONLY"> F  </i>
   <i type="int" name="LMAXFOCK">     0</i>
   <i type="int" name="NMAXFOCKAE">     0</i>
   <i type="logical" name="LFOCKAEDFT"> F  </i>
   <i name="HFSCREEN">      0.00000000</i>
   <i name="HFSCREENC">      0.00000000</i>
   <i type="int" name="NBANDSGWLOW">     0</i>
  </separator>
  <separator name="vdW DFT" >
   <i type="logical" name="LUSE_VDW"> F  </i>
   <i name="Zab_VDW">     -0.84910000</i>
   <i name="PARAM1">      0.12340000</i>
   <i name="PARAM2">      1.00000000</i>
   <i name="PARAM3">      0.00000000</i>
  </separator>
  <separator name="model GW" >
   <i type="int" name="MODEL_GW">     0</i>
   <i name="MODEL_EPS0">      7.20451093</i>
   <i name="MODEL_ALPHA">      1.00000000</i>
  </separator>
  <separator name="linear response parameters" >
   <i type="logical" name="LEPSILON"> F  </i>
   <i type="logical" name="LRPA"> F  </i>
   <i type="logical" name="LNABLA"> F  </i>
   <i type="logical" name="LVEL"> F  </i>
   <i type="int" name="KINTER">     0</i>
   <i name="CSHIFT">      0.10000000</i>
   <i name="OMEGAMAX">     -1.00000000</i>
   <i name="DEG_THRESHOLD">      0.00200000</i>
   <i name="RTIME">     -0.10000000</i>
   <i name="WPLASMAI">      0.00000000</i>
   <v name="DFIELD">      0.00000000      0.00000000      0.00000000</v>
   <v name="WPLASMA">      0.00000000      0.00000000      0.00000000      0.00000000      0.00000000      0.00000000      0.00000000      0.00000000      0.00000000</v>
  </separator>
  <separator name="orbital magnetization" >
   <i type="logical" name="NUCIND"> F  </i>
   <v name="MAGPOS">      0.00000000      0.00000000      0.00000000</v>
   <i type="logical" name="LNICSALL"> T  </i>
   <i type="logical" name="ORBITALMAG"> F  </i>
   <i type="logical" name="LMAGBLOCH"> F  </i>
   <i type="logical" name="LCHIMAG"> F  </i>
   <i type="logical" name="LGAUGE"> T  </i>
   <i type="int" name="MAGATOM">     0</i>
   <v name="MAGDIPOL">      0.00000000      0.00000000      0.00000000</v>
   <v name="AVECCONST">      0.00000000      0.00000000      0.00000000</v>
  </separator>
  <separator name="response functions" >
   <i type="logical" name="LFINITE_TEMPERATURE"> F  </i>
   <i type="logical" name="LADDER"> F  </i>
   <i type="logical" name="LRPAFORCE"> F  </i>
   <i type="logical" name="LFXC"> F  </i>
   <i type="logical" name="LHARTREE"> T  </i>
   <i type="int" name="IBSE">     0</i>
   <v type="int" name="KPOINT">    -1     0     0     0</v>
   <i type="logical" name="LTCTC"> F  </i>
   <i type="logical" name="LTCTE"> F  </i>
   <i type="logical" name="LTETE"> F  </i>
   <i type="logical" name="LTRIPLET"> F  </i>
   <i type="logical" name="LFXCEPS"> F  </i>
   <i type="logical" name="LFXHEG"> F  </i>
   <i type="int" name="NATURALO">     2</i>
   <i type="logical" name="LHOLEGF"> F  </i>
   <i type="logical" name="L2ORDER"> F  </i>
   <i type="logical" name="LDMP1"> F  </i>
   <i type="logical" name="LMP2LT"> F  </i>
   <i type="logical" name="LSMP2LT"> F  </i>
   <i type="logical" name="LGWLF"> F  </i>
   <i name="ENCUTGW">     -2.00000000</i>
   <i name="ENCUTGWSOFT">     -2.00000000</i>
   <i name="ENCUTLF">     -1.00000000</i>
   <i type="logical" name="LESF_SPLINES"> F  </i>
   <i type="int" name="LMAXMP2">    -1</i>
   <i name="SCISSOR">      0.00000000</i>
   <i type="int" name="NOMEGA">     0</i>
   <i type="int" name="NOMEGAR">     0</i>
   <i type="int" name="NBANDSGW">    -1</i>
   <i type="int" name="NBANDSO">    -1</i>
   <i type="int" name="NBANDSV">    -1</i>
   <i type="int" name="NELM">     1</i>
   <i type="int" name="NELMHF">     1</i>
   <i type="int" name="DIM">     3</i>
   <i type="int" name="IESPILON">     4</i>
   <i type="int" name="ANTIRES">     0</i>
   <i name="OMEGAMAX">    -30.00000000</i>
   <i name="OMEGAMIN">    -30.00000000</i>
   <i name="OMEGATL">   -200.00000000</i>
   <i type="int" name="OMEGAGRID">     0</i>
   <i name="CSHIFT">     -0.10000000</i>
   <i type="logical" name="LSELFENERGY"> F  </i>
   <i type="logical" name="LSPECTRAL"> F  </i>
   <i type="logical" name="LSPECTRALGW"> F  </i>
   <i type="logical" name="LSINGLES"> F  </i>
   <i type="logical" name="LFERMIGW"> F  </i>
   <i type="logical" name="ODDONLYGW"> F  </i>
   <i type="logical" name="EVENONLYGW"> F  </i>
   <i type="int" name="NKREDLFX">     1</i>
   <i type="int" name="NKREDLFY">     1</i>
   <i type="int" name="NKREDLFZ">     1</i>
   <i type="int" name="MAXMEM">  2800</i>
   <i type="int" name="TELESCOPE">     0</i>
   <i type="int" name="NTAUPAR">    -1</i>
   <i type="int" name="NOMEGAPAR">    -1</i>
   <i name="DAMP_NEWTON">      0.80000001</i>
   <i name="LAMBDA">      1.00000000</i>
  </separator>
  <separator name="External order field" >
   <i name="OFIELD_KAPPA">      0.00000000</i>
   <v name="OFIELD_K">      0.00000000      0.00000000      0.00000000</v>
   <i name="OFIELD_Q6_NEAR">      0.00000000</i>
   <i name="OFIELD_Q6_FAR">      0.00000000</i>
   <i name="OFIELD_A">      0.00000000</i>
  </separator>
 </parameters>
 <atominfo>
  <atoms>       4 </atoms>
  <types>       1 </types>
  <array name="atoms" >
   <dimension dim="1">ion</dimension>
   <field type="string">element</field>
   <field type="int">atomtype</field>
   <set>
    <rc><c>Cu</c><c>   1</c></rc>
    <rc><c>Cu</c><c>   1</c></rc>
    <rc><c>Cu</c><c>   1</c></rc>
    <rc><c>Cu</c><c>   1</c></rc>
   </set>
  </array>
  <array name="atomtypes" >
   <dimension dim="1">type</dimension>
   <field type="int">atomspertype</field>
   <field type="string">element</field>
   <field>mass</field>
   <field>valence</field>
   <field type="string">pseudopotential</field>
   <set>
    <rc><c>   4</c><c>Cu</c><c>     63.54600000</c><c>     11.00000000</c><c>  PAW_PBE Cu 22Jun2005                  </c></rc>
   </set>
  </array>
 </atominfo>
 <structure name="initialpos" >
  <crystal>
   <varray name="basis" >
    <v>       3.63500000       0.00000000       0.00000000 </v>
    <v>       0.00000000       3.63500000       0.00000000 </v>
    <v>       0.00000000       0.00000000       3.63500000 </v>
   </varray>
   <i name="volume">     48.03007287 </i>
   <varray name="rec_basis" >
    <v>       0.27510316       0.00000000       0.00000000 </v>
    <v>       0.00000000       0.27510316       0.00000000 </v>
    <v>       0.00000000       0.00000000       0.27510316 </v>
   </varray>
  </crystal>
  <varray name="positions" >
   <v>       0.00000000       0.00000000       0.00000000 </v>
   <v>       0.50000000       0.50000000       0.00000000 </v>
   <v>       0.50000000       0.00000000       0.50000000 </v>
   <v>       0.00000000       0.50000000       0.50000000 </v>
  </varray>
 </structure>
 <calculation>
  <scstep>
   <time name="dav">    0.07    0.07</time>
   <time name="total">    0.08    0.08</time>
   <energy>
    <i name="alphaZ">    243.62337785 </i>
    <i name="ewald">  -4395.34838493 </i>
    <i name="hartreedc">  -1358.96625566 </i>
    <i name="XCdc">    177.36098007 </i>
    <i name="pawpsdc">   5722.32983213 </i>
    <i name="pawaedc">  -6114.22380691 </i>
    <i name="eentropy">      0.00114606 </i>
    <i name="bandstr">    183.04214790 </i>
    <i name="atom">   5547.90880359 </i>
    <i name="e_fr_energy">      5.72784009 </i>
    <i name="e_wo_entrp">      5.72669404 </i>
    <i name="e_0_energy">      5.72745807 </i>
   </energy>
  </scstep>
  <scstep>
   <time name="dav">    0.06    0.06</time>
   <time name="total">    0.07    0.07</time>
   <energy>
    <i name="e_fr_energy">      5.72846170 </i>
    <i name="e_wo_entrp">      5.72723655 </i>
    <i name="e_0_energy">      5.72805331 </i>
   </energy>
  </scstep>
  <scstep>
   <time name="dav">    0.04    0.04</time>
   <time name="total">    0.05    0.05</time>
   <energy>
    <i name="alphaZ">    243.62337785 </i>
    <i name="ewald">  -4395.34838493 </i>
    <i name="hartreedc">  -1358.96430391 </i>
    <i name="XCdc">    177.36087937 </i>
    <i name="pawpsdc">   5722.32841130 </i>
    <i name="pawaedc">  -6114.22298821 </i>
    <i name="eentropy">      0.00121614 </i>
    <i name="bandstr">    183.04145085 </i>
    <i name="atom">   5547.90880359 </i>
    <i name="e_fr_energy">      5.72846205 </i>
    <i name="e_wo_entrp">      5.72724591 </i>
    <i name="e_0_energy">      5.72805667 </i>
   </energy>
  </scstep>
  <structure>
   <crystal>
    <varray name="basis" >
     <v>       3.63500000       0.00000000       0.00000000 </v>
     <v>       0.00000000       3.63500000       0.00000000 </v>
     <v>       0.00000000       0.00000000       3.63500000 </v>
    </varray>
    <i name="volume">     48.03007287 </i>
    <varray name="rec_basis" >
     <v>       0.27510316       0.00000000       0.00000000 </v>
     <v>       0.00000000       0.27510316       0.00000000 </v>
     <v>       0.00000000       0.00000000       0.27510316 </v>
    </varray>
   </crystal>
   <varray name="positions" >
    <v>       0.00000000       0.00000000       0.00000000 </v>
    <v>       0.50000000       0.50000000       0.00000000 </v>
    <v>       0.50000000       0.00000000       0.50000000 </v>
    <v>       0.00000000       0.50000000       0.50000000 </v>
   </varray>
  </structure>
  <varray name="forces" >
   <v>      -0.00000000      -0.00000000       0.00000000 </v>
   <v>       0.00000000       0.00000000       0.00000000 </v>
   <v>       0.00000000      -0.00000000      -0.00000000 </v>
   <v>       0.00000000       0.00000000      -0.00000000 </v>
  </varray>
  <varray name="stress" >
   <v>   -6428.64819630       0.00000000      -0.00000000 </v>
   <v>      -0.00000000   -6428.64819630       0.00000000 </v>
   <v>      -0.00000000       0.00000000   -6428.64819630 </v>
  </varray>
  <energy>
   <i name="e_fr_energy">      5.72846205 </i>
   <i name="e_wo_entrp">      5.72724591 </i>
   <i name="e_0_energy">      5.72805667 </i>
  </energy>
  <time name="totalsc">    0.28    0.28</time>
  <eigenvalues>
   <array>
    <dimension dim="1">band</dimension>
    <dimension dim="2">kpoint</dimension>
    <dimension dim="3">spin</dimension>
    <field>eigene</field>
    <field>occ</field>
    <set>
     <set comment="spin 1">
      <set comment="kpoint 1">
       <r>   -1.6935    1.0000 </r>
       <r>    3.2740    1.0000 </r>
       <r>    3.2740    1.0000 </r>
       <r>    3.2740    1.0000 </r>
       <r>    3.3878    1.0000 </r>
       <r>    3.3878    1.0000 </r>
       <r>    3.3878    1.0000 </r>
       <r>    4.2216    1.0000 </r>
       <r>    4.2216    1.0000 </r>
       <r>    4.2216    1.0000 </r>
       <r>    5.2579    1.0000 </r>
       <r>    5.2579    1.0000 </r>
       <r>    5.2579    1.0000 </r>
       <r>    5.2579    1.0000 </r>
       <r>    5.2579    1.0000 </r>
       <r>    5.2579    1.0000 </r>
       <r>    5.4561    1.0000 </r>
       <r>    5.4561    1.0000 </r>
       <r>    5.4561    1.0000 </r>
       <r>    5.6268    1.0000 </r>
       <r>    5.6268    1.0000 </r>
       <r>    9.0612   -0.0000 </r>
       <r>    9.0612   -0.0000 </r>
       <r>    9.0612   -0.0000 </r>
       <r>   14.1774    0.0000 </r>
       <r>   14.1774    0.0000 </r>
       <r>   14.1774    0.0000 </r>
       <r>   20.4394    0.0000 </r>
       <r>   20.4394    0.0000 </r>
       <r>   20.4394    0.0000 </r>
      </set>
      <set comment="kpoint 2">
       <r>   -1.2177    1.0000 </r>
       <r>    3.2615    1.0000 </r>
       <r>    3.4069    1.0000 </r>
       <r>    3.4207    1.0000 </r>
       <r>    3.4207    1.0000 </r>
       <r>    3.4450    1.0000 </r>
       <r>    3.4450    1.0000 </r>
       <r>    4.1330    1.0000 </r>
       <r>    4.3607    1.0000 </r>
       <r>    4.3607    1.0000 </r>
       <r>    4.6630    1.0000 </r>
       <r>    4.6630    1.0000 </r>
       <r>    4.8938    1.0000 </r>
       <r>    4.8961    1.0000 </r>
       <r>    4.8961    1.0000 </r>
       <r>    5.1499    1.0000 </r>
       <r>    5.1499    1.0000 </r>
       <r>    5.2872    1.0000 </r>
       <r>    5.2872    1.0000 </r>
       <r>    5.4210    1.0000 </r>
       <r>    5.7047    1.0000 </r>
       <r>    6.9946    0.4777 </r>
       <r>    9.9895   -0.0000 </r>
       <r>    9.9895   -0.0000 </r>
       <r>   14.3636    0.0000 </r>
       <r>   14.3636    0.0000 </r>
       <r>   17.3227    0.0000 </r>
       <r>   18.0766    0.0000 </r>
       <r>   18.0766    0.0000 </r>
       <r>   18.7694    0.0000 </r>
      </set>
      <set comment="kpoint 3">
       <r>    0.1406    1.0000 </r>
       <r>    1.7765    1.0000 </r>
       <r>    3.2932    1.0000 </r>
       <r>    3.3126    1.0000 </r>
       <r>    3.3126    1.0000 </r>
       <r>    3.4854    1.0000 </r>
       <r>    3.4854    1.0000 </r>
       <r>    3.9137    1.0000 </r>
       <r>    4.0070    1.0000 </r>
       <r>    4.0070    1.0000 </r>
       <r>    4.2096    1.0000 </r>
       <r>    4.2096    1.0000 </r>
       <r>    4.5031    1.0000 </r>
       <r>    4.6663    1.0000 </r>
       <r>    4.7620    1.0000 </r>
       <r>    4.7620    1.0000 </r>
       <r>    4.8577    1.0000 </r>
       <r>    4.8577    1.0000 </r>
       <r>    4.8897    1.0000 </r>
       <r>    4.8897    1.0000 </r>
       <r>    5.3338    1.0000 </r>
       <r>    5.9276    1.0000 </r>
       <r>   12.1278   -0.0000 </r>
       <r>   12.1278   -0.0000 </r>
       <r>   14.8734    0.0000 </r>
       <r>   14.8734    0.0000 </r>
       <r>   15.0050    0.0000 </r>
       <r>   15.0050    0.0000 </r>
       <r>   16.5559    0.0000 </r>
       <r>   16.5559    0.0000 </r>
      </set>
      <set comment="kpoint 4">
       <r>   -0.7524    1.0000 </r>
       <r>    3.0726    1.0000 </r>
       <r>    3.2556    1.0000 </r>
       <r>    3.3717    1.0000 </r>
       <r>    3.3717    1.0000 </r>
       <r>    3.4996    1.0000 </r>
       <r>    3.4996    1.0000 </r>
       <r>    4.1115    1.0000 </r>
       <r>    4.1325    1.0000 </r>
       <r>    4.4232    1.0000 </r>
       <r>    4.4236    1.0000 </r>
       <r>    4.4583    1.0000 </r>
       <r>    4.6583    1.0000 </r>
       <r>    4.6583    1.0000 </r>
       <r>    4.6600    1.0000 </r>
       <r>    4.9139    1.0000 </r>
       <r>    4.9139    1.0000 </r>
       <r>    5.0305    1.0000 </r>
       <r>    5.2201    1.0000 </r>
       <r>    5.2201    1.0000 </r>
       <r>    5.3999    1.0000 </r>
       <r>    7.8030   -0.0000 </r>
       <r>    7.8030   -0.0000 </r>
       <r>   10.7627   -0.0000 </r>
       <r>   14.3359    0.0000 </r>
       <r>   14.8407    0.0000 </r>
       <r>   17.6531    0.0000 </r>
       <r>   17.6531    0.0000 </r>
       <r>   18.6408    0.0000 </r>
       <r>   18.6408    0.0000 </r>
      </set>
      <set comment="kpoint 5">
       <r>    0.5508    1.0000 </r>
       <r>    2.0560    1.0000 </r>
       <r>    3.3055    1.0000 </r>
       <r>    3.3795    1.0000 </r>
       <r>    3.4458    1.0000 </r>
       <r>    3.4607    1.0000 </r>
       <r>    3.8298    1.0000 </r>
       <r>    3.8437    1.0000 </r>
       <r>    3.8902    1.0000 </r>
       <r>    4.1082    1.0000 </r>
       <r>    4.1473    1.0000 </r>
       <r>    4.3058    1.0000 </r>
       <r>    4.6300    1.0000 </r>
       <r>    4.6767    1.0000 </r>
       <r>    4.6853    1.0000 </r>
       <r>    4.6885    1.0000 </r>
       <r>    4.7662    1.0000 </r>
       <r>    4.7923    1.0000 </r>
       <r>    4.9935    1.0000 </r>
       <r>    5.2249    1.0000 </r>
       <r>    5.3453    1.0000 </r>
       <r>    5.4989    1.0000 </r>
       <r>    9.3727   -0.0000 </r>
       <r>   11.6583   -0.0000 </r>
       <r>   12.7995    0.0000 </r>
       <r>   15.3798    0.0000 </r>
       <r>   15.4571    0.0000 </r>
       <r>   16.9399    0.0000 </r>
       <r>   18.7181    0.0000 </r>
       <r>   20.1923    0.0000 </r>
      </set>
      <set comment="kpoint 6">
       <r>    1.5971    1.0000 </r>
       <r>    3.0264    1.0000 </r>
       <r>    3.0264    1.0000 </r>
       <r>    3.5874    1.0000 </r>
       <r>    3.8905    1.0000 </r>
       <r>    3.9204    1.0000 </r>
       <r>    3.9357    1.0000 </r>
       <r>    3.9357    1.0000 </r>
       <r>    3.9528    1.0000 </r>
       <r>    3.9983    1.0000 </r>
       <r>    3.9983    1.0000 </r>
       <r>    4.3221    1.0000 </r>
       <r>    4.3983    1.0000 </r>
       <r>    4.5550    1.0000 </r>
       <r>    4.5550    1.0000 </r>
       <r>    4.7443    1.0000 </r>
       <r>    4.9094    1.0000 </r>
       <r>    4.9094    1.0000 </r>
       <r>    4.9775    1.0000 </r>
       <r>    5.3095    1.0000 </r>
       <r>    5.3446    1.0000 </r>
       <r>    6.9018    0.8338 </r>
       <r>    6.9018    0.8338 </r>
       <r>    8.7826   -0.0000 </r>
       <r>   14.5546    0.0000 </r>
       <r>   16.3830    0.0000 </r>
       <r>   17.0972    0.0000 </r>
       <r>   17.0972    0.0000 </r>
       <r>   18.2047    0.0000 </r>
       <r>   18.2047    0.0000 </r>
      </set>
      <set comment="kpoint 7">
       <r>   -0.3039    1.0000 </r>
       <r>    3.1366    1.0000 </r>
       <r>    3.1366    1.0000 </r>
       <r>    3.1366    1.0000 </r>
       <r>    3.3146    1.0000 </r>
       <r>    3.3146    1.0000 </r>
       <r>    3.3146    1.0000 </r>
       <r>    4.1464    1.0000 </r>
       <r>    4.3119    1.0000 </r>
       <r>    4.3119    1.0000 </r>
       <r>    4.3119    1.0000 </r>
       <r>    4.3514    1.0000 </r>
       <r>    4.3514    1.0000 </r>
       <r>    4.6428    1.0000 </r>
       <r>    4.6428    1.0000 </r>
       <r>    4.6428    1.0000 </r>
       <r>    4.9244    1.0000 </r>
       <r>    4.9244    1.0000 </r>
       <r>    5.3361    1.0000 </r>
       <r>    5.3361    1.0000 </r>
       <r>    5.3361    1.0000 </r>
       <r>    8.3459   -0.0000 </r>
       <r>    8.3459   -0.0000 </r>
       <r>    8.3459   -0.0000 </r>
       <r>   15.1995    0.0000 </r>
       <r>   15.1995    0.0000 </r>
       <r>   15.1995    0.0000 </r>
       <r>   17.9777    0.0000 </r>
       <r>   17.9777    0.0000 </r>
       <r>   17.9777    0.0000 </r>
      </set>
      <set comment="kpoint 8">
       <r>    0.9111    1.0000 </r>
       <r>    2.4183    1.0000 </r>
       <r>    3.4953    1.0000 </r>
       <r>    3.4953    1.0000 </r>
       <r>    3.6519    1.0000 </r>
       <r>    3.6519    1.0000 </r>
       <r>    3.8036    1.0000 </r>
       <r>    3.8100    1.0000 </r>
       <r>    4.1923    1.0000 </r>
       <r>    4.1923    1.0000 </r>
       <r>    4.2095    1.0000 </r>
       <r>    4.2819    1.0000 </r>
       <r>    4.4282    1.0000 </r>
       <r>    4.5126    1.0000 </r>
       <r>    4.5216    1.0000 </r>
       <r>    4.5216    1.0000 </r>
       <r>    4.9614    1.0000 </r>
       <r>    4.9825    1.0000 </r>
       <r>    4.9825    1.0000 </r>
       <r>    4.9897    1.0000 </r>
       <r>    5.1166    1.0000 </r>
       <r>    5.8824    1.0000 </r>
       <r>    9.7438   -0.0000 </r>
       <r>    9.7438   -0.0000 </r>
       <r>   12.3392   -0.0000 </r>
       <r>   12.3392   -0.0000 </r>
       <r>   16.7373    0.0000 </r>
       <r>   19.0242    0.0000 </r>
       <r>   19.1185    0.0000 </r>
       <r>   19.1185    0.0000 </r>
      </set>
      <set comment="kpoint 9">
       <r>    1.8256    1.0000 </r>
       <r>    2.8132    1.0000 </r>
       <r>    2.8132    1.0000 </r>
       <r>    3.2662    1.0000 </r>
       <r>    3.7096    1.0000 </r>
       <r>    3.7096    1.0000 </r>
       <r>    3.8834    1.0000 </r>
       <r>    3.9497    1.0000 </r>
       <r>    3.9874    1.0000 </r>
       <r>    3.9874    1.0000 </r>
       <r>    4.1573    1.0000 </r>
       <r>    4.1588    1.0000 </r>
       <r>    4.3931    1.0000 </r>
       <r>    4.4006    1.0000 </r>
       <r>    4.4006    1.0000 </r>
       <r>    4.5404    1.0000 </r>
       <r>    4.7910    1.0000 </r>
       <r>    4.7910    1.0000 </r>
       <r>    4.9923    1.0000 </r>
       <r>    5.1132    1.0000 </r>
       <r>    5.2245    1.0000 </r>
       <r>    6.8092    1.0115 </r>
       <r>    6.8092    1.0115 </r>
       <r>    8.7549   -0.0000 </r>
       <r>   11.7330   -0.0000 </r>
       <r>   13.7308    0.0000 </r>
       <r>   13.7308    0.0000 </r>
       <r>   15.9807    0.0000 </r>
       <r>   20.3488    0.0000 </r>
       <r>   22.3627    0.0000 </r>
      </set>
      <set comment="kpoint 10">
       <r>    2.1388    1.0000 </r>
       <r>    3.0686    1.0000 </r>
       <r>    3.0686    1.0000 </r>
       <r>    3.0686    1.0000 </r>
       <r>    3.8740    1.0000 </r>
       <r>    3.8740    1.0000 </r>
       <r>    3.8740    1.0000 </r>
       <r>    3.8998    1.0000 </r>
       <r>    3.8998    1.0000 </r>
       <r>    4.2012    1.0000 </r>
       <r>    4.2012    1.0000 </r>
       <r>    4.2012    1.0000 </r>
       <r>    4.4611    1.0000 </r>
       <r>    4.4611    1.0000 </r>
       <r>    4.6863    1.0000 </r>
       <r>    4.6863    1.0000 </r>
       <r>    4.6863    1.0000 </r>
       <r>    4.7191    1.0000 </r>
       <r>    4.7191    1.0000 </r>
       <r>    4.7191    1.0000 </r>
       <r>    5.1287    1.0000 </r>
       <r>    7.1776   -0.0179 </r>
       <r>    7.1776   -0.0179 </r>
       <r>    7.1776   -0.0179 </r>
       <r>   11.3128   -0.0000 </r>
       <r>   11.3128   -0.0000 </r>
       <r>   11.3128   -0.0000 </r>
       <r>   13.0013    0.0000 </r>
       <r>   25.7062    0.0000 </r>
       <r>   25.7062    0.0000 </r>
      </set>
     </set>
    </set>
   </array>
  </eigenvalues>
  <separator name="orbital magnetization" >
   <v name="MAGDIPOLOUT">      0.00000000      0.00000000      0.00000000</v>
  </separator>
  <dos>
   <i name="efermi">      6.98929628 </i>
   <total>
    <array>
     <dimension dim="1">gridpoints</dimension>
     <dimension dim="2">spin</dimension>
     <field>energy</field>
     <field>total</field>
     <field>integrated</field>
     <set>
      <set comment="spin 1">
       <r>    -3.6935     0.0000     0.0000 </r>
       <r>    -3.5888     0.0000     0.0000 </r>
       <r>    -3.4842     0.0000     0.0000 </r>
       <r>    -3.3795    -0.0000    -0.0000 </r>
       <r>    -3.2748    -0.0000    -0.0000 </r>
       <r>    -3.1702    -0.0000    -0.0000 </r>
       <r>    -3.0655    -0.0000    -0.0000 </r>
       <r>    -2.9608    -0.0000    -0.0000 </r>
       <r>    -2.8562    -0.0000    -0.0000 </r>
       <r>    -2.7515    -0.0000    -0.0000 </r>
       <r>    -2.6469    -0.0000    -0.0000 </r>
       <r>    -2.5422    -0.0000    -0.0000 </r>
       <r>    -2.4375    -0.0000    -0.0000 </r>
       <r>    -2.3329    -0.0000    -0.0000 </r>
       <r>    -2.2282    -0.0001    -0.0000 </r>
       <r>    -2.1235    -0.0007    -0.0001 </r>
       <r>    -2.0189    -0.0026    -0.0003 </r>
       <r>    -1.9142    -0.0017    -0.0005 </r>
       <r>    -1.8095     0.0185     0.0014 </r>
       <r>    -1.7049     0.0542     0.0071 </r>
       <r>    -1.6002     0.0528     0.0126 </r>
       <r>    -1.4955     0.0066     0.0133 </r>
       <r>    -1.3909     0.0253     0.0159 </r>
       <r>    -1.2862     0.2100     0.0379 </r>
       <r>    -1.1815     0.3783     0.0775 </r>
       <r>    -1.0769     0.2535     0.1041 </r>
       <r>    -0.9722     0.0485     0.1091 </r>
       <r>    -0.8675     0.2092     0.1310 </r>
       <r>    -0.7629     0.6534     0.1994 </r>
       <r>    -0.6582     0.7120     0.2739 </r>
       <r>    -0.5535     0.2889     0.3042 </r>
       <r>    -0.4489     0.0863     0.3132 </r>
       <r>    -0.3442     0.3310     0.3479 </r>
       <r>    -0.2395     0.4989     0.4001 </r>
       <r>    -0.1349     0.2761     0.4290 </r>
       <r>    -0.0302     0.0661     0.4359 </r>
       <r>     0.0745     0.1862     0.4554 </r>
       <r>     0.1791     0.3387     0.4908 </r>
       <r>     0.2838     0.1991     0.5117 </r>
       <r>     0.3885     0.2116     0.5338 </r>
       <r>     0.4931     0.9160     0.6297 </r>
       <r>     0.5978     1.4825     0.7849 </r>
       <r>     0.7025     1.0298     0.8926 </r>
       <r>     0.8071     0.7507     0.9712 </r>
       <r>     0.9118     1.3317     1.1106 </r>
       <r>     1.0164     1.3561     1.2525 </r>
       <r>     1.1211     0.5211     1.3071 </r>
       <r>     1.2258    -0.0398     1.3029 </r>
       <r>     1.3304    -0.1148     1.2909 </r>
       <r>     1.4351     0.0141     1.2923 </r>
       <r>     1.5398     0.3792     1.3320 </r>
       <r>     1.6444     0.9084     1.4271 </r>
       <r>     1.7491     1.5276     1.5870 </r>
       <r>     1.8538     1.9859     1.7949 </r>
       <r>     1.9584     1.9742     2.0015 </r>
       <r>     2.0631     1.9792     2.2087 </r>
       <r>     2.1678     1.7104     2.3877 </r>
       <r>     2.2724     1.0569     2.4983 </r>
       <r>     2.3771     1.1310     2.6167 </r>
       <r>     2.4818     1.3491     2.7579 </r>
       <r>     2.5864     0.7443     2.8358 </r>
       <r>     2.6911     0.7960     2.9191 </r>
       <r>     2.7958     2.2440     3.1540 </r>
       <r>     2.9004     3.2710     3.4963 </r>
       <r>     3.0051     3.8083     3.8949 </r>
       <r>     3.1098     5.0359     4.4220 </r>
       <r>     3.2144     7.2512     5.1810 </r>
       <r>     3.3191    11.4516     6.3796 </r>
       <r>     3.4238    15.3485     7.9860 </r>
       <r>     3.5284    14.6222     9.5165 </r>
       <r>     3.6331    10.9010    10.6574 </r>
       <r>     3.7378    10.7273    11.7802 </r>
       <r>     3.8424    15.8066    13.4346 </r>
       <r>     3.9471    19.9166    15.5192 </r>
       <r>     4.0518    19.1189    17.5203 </r>
       <r>     4.1564    18.3753    19.4436 </r>
       <r>     4.2611    19.3856    21.4726 </r>
       <r>     4.3658    19.7537    23.5401 </r>
       <r>     4.4704    19.8219    25.6148 </r>
       <r>     4.5751    20.2334    27.7325 </r>
       <r>     4.6797    21.5786    29.9910 </r>
       <r>     4.7844    21.6373    32.2557 </r>
       <r>     4.8891    20.2039    34.3704 </r>
       <r>     4.9937    19.0759    36.3670 </r>
       <r>     5.0984    16.0026    38.0419 </r>
       <r>     5.2031    12.6703    39.3681 </r>
       <r>     5.3077    11.5446    40.5764 </r>
       <r>     5.4124     9.4344    41.5638 </r>
       <r>     5.5171     5.2706    42.1155 </r>
       <r>     5.6217     1.8322    42.3072 </r>
       <r>     5.7264     0.6899    42.3794 </r>
       <r>     5.8311     1.2977    42.5153 </r>
       <r>     5.9357     1.9259    42.7168 </r>
       <r>     6.0404     1.2929    42.8522 </r>
       <r>     6.1451     0.2724    42.8807 </r>
       <r>     6.2497    -0.0924    42.8710 </r>
       <r>     6.3544    -0.0778    42.8629 </r>
       <r>     6.4591    -0.1226    42.8500 </r>
       <r>     6.5637    -0.2007    42.8290 </r>
       <r>     6.6684     0.4675    42.8779 </r>
       <r>     6.7731     2.6021    43.1503 </r>
       <r>     6.8777     4.3718    43.6079 </r>
       <r>     6.9824     3.5768    43.9822 </r>
       <r>     7.0871     1.9705    44.1885 </r>
       <r>     7.1917     1.5303    44.3487 </r>
       <r>     7.2964     1.1690    44.4710 </r>
       <r>     7.4011     0.3448    44.5071 </r>
       <r>     7.5057    -0.1306    44.4934 </r>
       <r>     7.6104    -0.0351    44.4897 </r>
       <r>     7.7151     0.6657    44.5594 </r>
       <r>     7.8197     1.4845    44.7148 </r>
       <r>     7.9244     1.2757    44.8483 </r>
       <r>     8.0291     0.3398    44.8839 </r>
       <r>     8.1337    -0.0729    44.8762 </r>
       <r>     8.2384     0.4519    44.9235 </r>
       <r>     8.3430     1.3449    45.0643 </r>
       <r>     8.4477     1.3183    45.2023 </r>
       <r>     8.5524     0.5326    45.2580 </r>
       <r>     8.6570     0.7693    45.3385 </r>
       <r>     8.7617     1.9943    45.5473 </r>
       <r>     8.8664     2.0931    45.7664 </r>
       <r>     8.9710     0.8967    45.8602 </r>
       <r>     9.0757     0.0975    45.8704 </r>
       <r>     9.1804     0.0868    45.8795 </r>
       <r>     9.2850     0.6878    45.9515 </r>
       <r>     9.3897     1.3858    46.0966 </r>
       <r>     9.4944     1.1364    46.2155 </r>
       <r>     9.5990     0.8825    46.3079 </r>
       <r>     9.7037     2.1265    46.5304 </r>
       <r>     9.8084     3.0852    46.8534 </r>
       <r>     9.9130     2.1602    47.0795 </r>
       <r>    10.0177     0.9974    47.1838 </r>
       <r>    10.1224     0.4439    47.2303 </r>
       <r>    10.2270     0.0921    47.2400 </r>
       <r>    10.3317    -0.0505    47.2347 </r>
       <r>    10.4364    -0.0587    47.2285 </r>
       <r>    10.5410    -0.0268    47.2257 </r>
       <r>    10.6457     0.2191    47.2487 </r>
       <r>    10.7504     0.6614    47.3179 </r>
       <r>    10.8550     0.7251    47.3938 </r>
       <r>    10.9597     0.2739    47.4224 </r>
       <r>    11.0644    -0.0655    47.4156 </r>
       <r>    11.1690     0.2108    47.4377 </r>
       <r>    11.2737     1.0635    47.5490 </r>
       <r>    11.3784     1.4265    47.6983 </r>
       <r>    11.4830     0.8997    47.7924 </r>
       <r>    11.5877     1.1921    47.9172 </r>
       <r>    11.6924     2.5604    48.1852 </r>
       <r>    11.7970     2.6482    48.4624 </r>
       <r>    11.9017     1.1245    48.5801 </r>
       <r>    12.0063     0.1366    48.5944 </r>
       <r>    12.1110     0.4129    48.6376 </r>
       <r>    12.2157     1.4797    48.7925 </r>
       <r>    12.3203     2.8840    49.0943 </r>
       <r>    12.4250     2.9708    49.4053 </r>
       <r>    12.5297     1.2807    49.5393 </r>
       <r>    12.6343     0.1785    49.5580 </r>
       <r>    12.7390     0.7484    49.6363 </r>
       <r>    12.8437     1.5676    49.8004 </r>
       <r>    12.9483     1.3975    49.9466 </r>
       <r>    13.0530     0.7441    50.0245 </r>
       <r>    13.1577     0.2591    50.0516 </r>
       <r>    13.2623     0.0000    50.0517 </r>
       <r>    13.3670    -0.1184    50.0393 </r>
       <r>    13.4717    -0.1688    50.0216 </r>
       <r>    13.5763     0.3805    50.0614 </r>
       <r>    13.6810     2.0470    50.2757 </r>
       <r>    13.7857     3.1243    50.6027 </r>
       <r>    13.8903     1.9369    50.8054 </r>
       <r>    13.9950     0.2884    50.8356 </r>
       <r>    14.0997    -0.1357    50.8214 </r>
       <r>    14.2043     0.3368    50.8566 </r>
       <r>    14.3090     1.2004    50.9823 </r>
       <r>    14.4137     1.7080    51.1610 </r>
       <r>    14.5183     1.4009    51.3077 </r>
       <r>    14.6230     0.8226    51.3938 </r>
       <r>    14.7277     0.6582    51.4627 </r>
       <r>    14.8323     1.2491    51.5934 </r>
       <r>    14.9370     1.7942    51.7812 </r>
       <r>    15.0417     1.6093    51.9496 </r>
       <r>    15.1463     1.4932    52.1059 </r>
       <r>    15.2510     1.9655    52.3116 </r>
       <r>    15.3557     2.7479    52.5993 </r>
       <r>    15.4603     3.0898    52.9226 </r>
       <r>    15.5650     2.0286    53.1350 </r>
       <r>    15.6696     0.4527    53.1824 </r>
       <r>    15.7743    -0.1209    53.1697 </r>
       <r>    15.8790     0.4653    53.2184 </r>
       <r>    15.9836     1.3852    53.3634 </r>
       <r>    16.0883     1.3420    53.5038 </r>
       <r>    16.1930     0.5093    53.5572 </r>
       <r>    16.2976     0.2760    53.5860 </r>
       <r>    16.4023     0.7216    53.6616 </r>
       <r>    16.5070     1.0652    53.7731 </r>
       <r>    16.6116     1.2826    53.9073 </r>
       <r>    16.7163     1.6426    54.0792 </r>
       <r>    16.8210     1.9006    54.2782 </r>
       <r>    16.9256     2.0837    54.4963 </r>
       <r>    17.0303     2.3488    54.7421 </r>
       <r>    17.1350     2.1390    54.9660 </r>
       <r>    17.2396     1.2808    55.1000 </r>
       <r>    17.3443     0.4899    55.1513 </r>
       <r>    17.4490     0.2118    55.1735 </r>
       <r>    17.5536     0.6046    55.2368 </r>
       <r>    17.6583     1.3331    55.3763 </r>
       <r>    17.7630     1.2804    55.5103 </r>
       <r>    17.8676     0.9216    55.6068 </r>
       <r>    17.9723     1.5547    55.7695 </r>
       <r>    18.0770     2.4304    56.0239 </r>
       <r>    18.1816     2.5020    56.2858 </r>
       <r>    18.2863     1.7102    56.4648 </r>
       <r>    18.3910     0.5141    56.5186 </r>
       <r>    18.4956     0.1731    56.5367 </r>
       <r>    18.6003     1.4554    56.6890 </r>
       <r>    18.7050     2.9629    56.9991 </r>
       <r>    18.8096     2.5822    57.2694 </r>
       <r>    18.9143     1.5286    57.4294 </r>
       <r>    19.0190     2.5309    57.6943 </r>
       <r>    19.1236     4.1716    58.1309 </r>
       <r>    19.2283     3.2871    58.4750 </r>
       <r>    19.3329     0.9823    58.5778 </r>
       <r>    19.4376    -0.1284    58.5643 </r>
       <r>    19.5423    -0.1524    58.5484 </r>
       <r>    19.6469    -0.0389    58.5443 </r>
       <r>    19.7516    -0.0176    58.5425 </r>
       <r>    19.8563    -0.0618    58.5360 </r>
       <r>    19.9609    -0.0873    58.5269 </r>
       <r>    20.0656     0.2839    58.5566 </r>
       <r>    20.1703     1.3214    58.6949 </r>
       <r>    20.2749     2.3337    58.9392 </r>
       <r>    20.3796     2.3817    59.1884 </r>
       <r>    20.4843     1.4252    59.3376 </r>
       <r>    20.5889     0.3633    59.3756 </r>
       <r>    20.6936    -0.0650    59.3688 </r>
       <r>    20.7983    -0.0653    59.3620 </r>
       <r>    20.9029    -0.0169    59.3602 </r>
       <r>    21.0076    -0.0022    59.3600 </r>
       <r>    21.1123    -0.0002    59.3600 </r>
       <r>    21.2169    -0.0000    59.3600 </r>
       <r>    21.3216    -0.0000    59.3600 </r>
       <r>    21.4263    -0.0000    59.3600 </r>
       <r>    21.5309    -0.0000    59.3600 </r>
       <r>    21.6356    -0.0000    59.3600 </r>
       <r>    21.7403    -0.0002    59.3600 </r>
       <r>    21.8449    -0.0026    59.3597 </r>
       <r>    21.9496    -0.0208    59.3575 </r>
       <r>    22.0543    -0.0708    59.3501 </r>
       <r>    22.1589    -0.0046    59.3496 </r>
       <r>    22.2636     0.5845    59.4108 </r>
       <r>    22.3683     1.4350    59.5610 </r>
       <r>    22.4729     1.3699    59.7044 </r>
       <r>    22.5776     0.4930    59.7560 </r>
       <r>    22.6823    -0.0295    59.7529 </r>
       <r>    22.7869    -0.0656    59.7460 </r>
       <r>    22.8916    -0.0173    59.7442 </r>
       <r>    22.9962    -0.0020    59.7440 </r>
       <r>    23.1009    -0.0001    59.7440 </r>
       <r>    23.2056    -0.0000    59.7440 </r>
       <r>    23.3102    -0.0000    59.7440 </r>
       <r>    23.4149    -0.0000    59.7440 </r>
       <r>    23.5196    -0.0000    59.7440 </r>
       <r>    23.6242    -0.0000    59.7440 </r>
       <r>    23.7289     0.0000    59.7440 </r>
       <r>    23.8336     0.0000    59.7440 </r>
       <r>    23.9382     0.0000    59.7440 </r>
       <r>    24.0429    -0.0000    59.7440 </r>
       <r>    24.1476    -0.0000    59.7440 </r>
       <r>    24.2522    -0.0000    59.7440 </r>
       <r>    24.3569    -0.0000    59.7440 </r>
       <r>    24.4616    -0.0000    59.7440 </r>
       <r>    24.5662    -0.0000    59.7440 </r>
       <r>    24.6709    -0.0000    59.7440 </r>
       <r>    24.7756    -0.0000    59.7440 </r>
       <r>    24.8802    -0.0000    59.7440 </r>
       <r>    24.9849    -0.0000    59.7440 </r>
       <r>    25.0896    -0.0001    59.7440 </r>
       <r>    25.1942    -0.0020    59.7438 </r>
       <r>    25.2989    -0.0152    59.7422 </r>
       <r>    25.4036    -0.0488    59.7371 </r>
       <r>    25.5082     0.0074    59.7378 </r>
       <r>    25.6129     0.4228    59.7821 </r>
       <r>    25.7176     0.9762    59.8843 </r>
       <r>    25.8222     0.8877    59.9772 </r>
       <r>    25.9269     0.2982    60.0084 </r>
       <r>    26.0316    -0.0268    60.0056 </r>
       <r>    26.1362    -0.0417    60.0012 </r>
       <r>    26.2409    -0.0104    60.0001 </r>
       <r>    26.3456    -0.0012    60.0000 </r>
       <r>    26.4502    -0.0001    60.0000 </r>
       <r>    26.5549    -0.0000    60.0000 </r>
       <r>    26.6595    -0.0000    60.0000 </r>
       <r>    26.7642    -0.0000    60.0000 </r>
       <r>    26.8689    -0.0000    60.0000 </r>
       <r>    26.9735    -0.0000    60.0000 </r>
       <r>    27.0782     0.0000    60.0000 </r>
       <r>    27.1829     0.0000    60.0000 </r>
       <r>    27.2875     0.0000    60.0000 </r>
       <r>    27.3922     0.0000    60.0000 </r>
       <r>    27.4969     0.0000    60.0000 </r>
       <r>    27.6015     0.0000    60.0000 </r>
       <r>    27.7062     0.0000    60.0000 </r>
      </set>
     </set>
    </array>
   </total>
  </dos>
 </calculation>
 <structure name="finalpos" >
  <crystal>
   <varray name="basis" >
    <v>       3.63500000       0.00000000       0.00000000 </v>
    <v>       0.00000000       3.63500000       0.00000000 </v>
    <v>       0.00000000       0.00000000       3.63500000 </v>
   </varray>
   <i name="volume">     48.03007287 </i>
   <varray name="rec_basis" >
    <v>       0.27510316       0.00000000       0.00000000 </v>
    <v>       0.00000000       0.27510316       0.00000000 </v>
    <v>       0.00000000       0.00000000       0.27510316 </v>
   </varray>
  </crystal>
  <varray name="positions" >
   <v>       0.00000000       0.00000000       0.00000000 </v>
   <v>       0.50000000       0.50000000       0.00000000 </v>
   <v>       0.50000000       0.00000000       0.50000000 </v>
   <v>       0.00000000       0.50000000       0.50000000 </v>
  </varray>
 </structure>
</modeling>
