unknown system                          
   1.00000000000000     
     2.423200    0.000000    0.000000
    -1.211600    2.098553    0.000000
     0.000000    0.000000    4.391920
   Fe
     2
Direct
  0.000000  0.000000  0.000000
  0.333333  0.666667  0.500000
 
   20   20   36
  187.99      177.36      148.99      111.43      74.083      43.809      23.714      13.437      9.8782      8.7476    
  8.3727      8.7486      9.8790      13.436      23.713      43.808      74.084      111.43      148.99      177.36    
  177.37      177.36      157.90      125.18      88.282      55.298      31.076      16.883      10.879      9.1077    
  8.3715      8.3702      9.1062      10.880      16.885      31.075      55.295      88.289      125.20      157.93    
  149.00      157.89      148.99      125.18      93.574      62.124      36.773      20.262      12.145      9.4385    
  8.4078      8.0613      8.4046      9.4374      12.147      20.263      36.767      62.118      93.580      125.20    
  111.42      125.12      125.12      111.43      88.282      62.124      38.917      22.357      13.246      9.7358    
  8.4690      7.8478      7.8470      8.4679      9.7366      13.247      22.355      38.910      62.112      88.270    
  74.060      88.184      93.453      88.203      74.084      55.296      36.773      22.357      13.684      9.9376    
  8.5279      7.7268      7.4718      7.7279      8.5284      9.9380      13.687      22.363      36.773      55.283    
  43.806      55.222      61.996      62.003      55.234      43.808      31.076      20.263      13.245      9.9373    
  8.5524      7.6761      7.2653      7.2666      7.6772      8.5504      9.9362      13.253      20.279      31.088    
  23.731      31.070      36.720      38.839      36.714      31.057      23.714      16.884      12.145      9.7352    
  8.5280      7.6762      7.2003      7.0551      7.2021      7.6750      8.5220      9.7295      12.147      16.896    
  13.435      16.913      20.294      22.370      22.363      20.278      16.902      13.437      10.879      9.4378    
  8.4690      7.7271      7.2649      7.0551      7.0562      7.2670      7.7265      8.4620      9.4248      10.867    
  9.8593      10.902      12.204      13.322      13.759      13.316      12.204      10.914      9.8786      9.1073    
  8.4074      7.8484      7.4716      7.2664      7.2026      7.2671      7.4758      7.8544      8.4069      9.0945    
  8.7475      9.1345      9.4987      9.8287      10.051      10.053      9.8363      9.5113      9.1455      8.7479    
  8.3712      8.0618      7.8474      7.7275      7.6776      7.6753      7.7257      7.8542      8.0764      8.3829    
  8.3900      8.4251      8.4902      8.5793      8.6636      8.7013      8.6698      8.5854      8.4883      8.4128    
  8.3727      8.3701      8.4051      8.4675      8.5280      8.5506      8.5215      8.4615      8.4078      8.3833    
  8.7466      8.4248      8.1636      7.9845      7.8899      7.8578      7.8596      7.8907      7.9770      8.1491    
  8.4139      8.7479      9.1063      9.4374      9.7358      9.9382      9.9366      9.7294      9.4255      9.0950    
  9.8586      9.1340      8.4911      7.9847      7.6478      7.4685      7.4151      7.4684      7.6438      7.9780    
  8.4906      9.1466      9.8786      10.881      12.147      13.247      13.688      13.253      12.147      10.867    
  13.435      10.902      9.4993      8.5796      7.8892      7.4685      7.2805      7.2796      7.4670      7.8904    
  8.5867      9.5116      10.913      13.437      16.885      20.263      22.356      22.363      20.278      16.896    
  23.732      16.914      12.204      9.8285      8.6631      7.8578      7.4156      7.2794      7.4128      7.8583    
  8.6698      9.8355      12.202      16.901      23.714      31.075      36.767      38.909      36.773      31.088    
  43.807      31.070      20.293      13.321      10.051      8.7015      7.8600      7.4680      7.4667      7.8586    
  8.7032      10.052      13.314      20.278      31.058      43.808      55.294      62.118      62.112      55.284    
  74.060      55.221      36.720      22.370      13.760      10.053      8.6695      7.8905      7.6436      7.8909    
  8.6700      10.052      13.755      22.364      36.720      55.235      74.084      88.289      93.581      88.270    
  111.42      88.183      61.997      38.840      22.363      13.316      9.8356      8.5856      7.9773      7.9781    
  8.5867      9.8351      13.314      22.364      38.846      62.008      88.195      111.43      125.20      125.20    
  149.00      125.12      93.454      62.003      36.713      20.277      12.204      9.5119      8.4888      8.1486    
  8.4902      9.5116      12.202      20.278      36.720      62.008      93.447      125.10      148.99      157.93    
  177.38      157.89      125.12      88.202      55.233      31.056      16.903      10.915      9.1457      8.4121    
  8.4135      9.1472      10.913      16.900      31.058      55.236      88.195      125.10      157.87      177.36    
  177.17      167.16      140.43      104.99      69.740      41.214      22.403      12.911      9.6758      8.5882    
  8.2255      8.5891      9.6765      12.910      22.402      41.214      69.740      104.99      140.43      167.16    
  167.17      167.16      148.83      117.96      83.132      52.014      29.260      16.061      10.576      8.9320    
  8.2194      8.2181      8.9305      10.577      16.063      29.259      52.012      83.138      117.98      148.85    
  140.44      148.82      140.43      117.96      88.124      58.441      34.587      19.174      11.711      9.2469    
  8.2501      7.9164      8.2470      9.2459      11.713      19.175      34.581      58.435      88.129      117.98    
  104.98      117.92      117.93      104.99      83.132      58.440      36.594      21.111      12.704      9.5152    
  8.3058      7.7083      7.7076      8.3048      9.5158      12.705      21.110      36.588      58.429      83.120    
  69.719      83.060      88.039      83.077      69.740      52.013      34.587      21.112      13.101      9.6935    
  8.3604      7.5903      7.3462      7.5914      8.3609      9.6937      13.103      21.117      34.587      52.001    
  41.212      51.968      58.360      58.366      51.978      41.213      29.260      19.175      12.704      9.6932    
  8.3833      7.5407      7.1480      7.1492      7.5419      8.3815      9.6921      12.711      19.189      29.271    
  22.418      29.278      34.580      36.572      34.574      29.266      22.402      16.062      11.711      9.5146    
  8.3606      7.5408      7.0857      6.9472      7.0874      7.5399      8.3551      9.5095      11.713      16.074    
  12.909      16.110      19.243      21.175      21.168      19.229      16.100      12.911      10.576      9.2462    
  8.3058      7.5906      7.1476      6.9471      6.9481      7.1494      7.5900      8.2995      9.2344      10.565    
  9.6584      10.614      11.800      12.820      13.221      12.815      11.800      10.625      9.6761      8.9317    
  8.2498      7.7089      7.3461      7.1490      7.0879      7.1496      7.3498      7.7143      8.2493      8.9199    
  8.5881      8.9705      9.3295      9.6388      9.8415      9.8434      9.6455      9.3409      8.9805      8.5884    
  8.2190      7.9169      7.7079      7.5910      7.5422      7.5401      7.5893      7.7141      7.9302      8.2298    
  8.2413      8.2807      8.3487      8.4386      8.5218      8.5585      8.5274      8.4440      8.3470      8.2694    
  8.2255      8.2181      8.2476      8.3044      8.3606      8.3818      8.3546      8.2991      8.2501      8.2301    
  8.5872      8.2803      8.0317      7.8612      7.7707      7.7396      7.7414      7.7716      7.8544      8.0185    
  8.2704      8.5885      8.9307      9.2458      9.5151      9.6939      9.6925      9.5094      9.2351      8.9204    
  9.6578      8.9700      8.3496      7.8614      7.5360      7.3623      7.3103      7.3623      7.5326      7.8554    
  8.3491      8.9815      9.6762      10.578      11.713      12.705      13.104      12.711      11.713      10.565    
  12.909      10.614      9.3301      8.4389      7.7700      7.3623      7.1796      7.1788      7.3610      7.7712    
  8.4453      9.3413      10.624      12.911      16.064      19.175      21.110      21.117      19.188      16.073    
  22.419      16.111      11.799      9.6386      8.5213      7.7397      7.3108      7.1787      7.3082      7.7400    
  8.5274      9.6449      11.797      16.099      22.402      29.259      34.581      36.587      34.587      29.271    
  41.213      29.278      19.242      12.820      9.8419      8.5588      7.7417      7.3620      7.3607      7.7403    
  8.5602      9.8428      12.814      19.229      29.267      41.213      52.011      58.435      58.430      52.002    
  69.718      51.967      34.580      21.175      13.222      9.8435      8.5271      7.7714      7.5324      7.7716    
  8.5276      9.8425      13.218      21.170      34.580      51.980      69.740      83.138      88.130      83.121    
  104.98      83.059      58.361      36.573      21.169      12.815      9.6449      8.4442      7.8547      7.8555    
  8.4453      9.6445      12.814      21.170      36.579      58.371      83.071      104.99      117.98      117.98    
  140.44      117.92      88.039      58.367      34.574      19.228      11.799      9.3416      8.3474      8.0180    
  8.3487      9.3413      11.797      19.229      34.580      58.371      88.033      117.91      140.43      148.85    
  167.17      148.83      117.93      83.076      51.978      29.266      16.101      10.626      8.9807      8.2687    
  8.2701      8.9821      10.625      16.098      29.267      51.980      83.070      117.91      148.80      167.16    
  148.33      139.96      117.54      87.757      58.129      34.339      18.992      11.578      9.1380      8.1535    
  7.8265      8.1543      9.1387      11.577      18.991      34.338      58.129      87.758      117.54      139.96    
  139.96      139.96      124.59      98.652      69.347      43.272      24.492      13.956      9.8033      8.4474    
  7.8037      7.8026      8.4462      9.8046      13.958      24.492      43.270      69.351      98.667      124.61    
  117.56      124.60      117.54      98.653      73.535      48.616      28.818      16.361      10.612      8.7200    
  7.8168      7.5195      7.8141      8.7190      10.614      16.362      28.814      48.612      73.538      98.666    
  87.753      98.653      98.655      87.759      69.347      48.616      30.458      17.878      11.329      8.9307    
  7.8554      7.3248      7.3242      7.8545      8.9309      11.330      17.877      30.453      48.607      69.338    
  58.113      69.344      73.540      69.357      58.129      43.271      28.818      17.879      11.618      9.0565    
  7.8968      7.2137      6.9999      7.2147      7.8973      9.0564      11.620      17.882      28.818      43.262    
  34.337      43.301      48.658      48.663      43.309      34.338      24.492      16.362      11.329      9.0563    
  7.9147      7.1665      6.8232      6.8244      7.1678      7.9135      9.0553      11.334      16.373      24.501    
  19.003      24.573      28.933      30.580      28.929      24.564      18.992      13.957      10.612      8.9301    
  7.8969      7.1666      6.7679      6.6475      6.7694      7.1661      7.8931      8.9266      10.614      13.966    
  11.576      14.056      16.532      18.078      18.073      16.521      14.048      11.578      9.8036      8.7194    
  7.8554      7.2140      6.8229      6.6474      6.6481      6.8241      7.2135      7.8507      8.7106      9.7952    
  9.1247      9.8859      10.785      11.561      11.868      11.557      10.785      9.8948      9.1383      8.4471    
  7.8165      7.3253      6.9997      6.8242      6.7698      6.8242      7.0021      7.3291      7.8160      8.4381    
  8.1535      8.5238      8.8752      9.1533      9.3180      9.3192      9.1580      8.8835      8.5313      8.1537    
  7.8034      7.5200      7.3245      7.2144      7.1681      7.1664      7.2128      7.3289      7.5300      7.8115    
  7.8386      7.8938      7.9754      8.0727      8.1575      8.1933      8.1615      8.0765      7.9738      7.8853    
  7.8265      7.8026      7.8146      7.8541      7.8969      7.9137      7.8927      7.8504      7.8168      7.8118    
  8.1527      7.8936      7.6878      7.5501      7.4794      7.4563      7.4577      7.4801      7.5451      7.6779    
  7.8862      8.1538      8.4463      8.7190      8.9303      9.0565      9.0557      8.9265      8.7112      8.4386    
  9.1241      8.5234      7.9761      7.5503      7.2688      7.1194      7.0749      7.1198      7.2666      7.5459    
  7.9757      8.5321      9.1384      9.8049      10.614      11.330      11.621      11.334      10.613      9.7952    
  11.576      9.8860      8.8757      8.0730      7.4788      7.1193      6.9589      6.9584      7.1186      7.4797    
  8.0777      8.8839      9.8936      11.578      13.959      16.362      17.877      17.882      16.372      13.965    
  19.004      14.056      10.784      9.1531      8.1571      7.4563      7.0753      6.9583      7.0731      7.4562    
  8.1615      9.1578      10.783      14.046      18.992      24.491      28.814      30.452      28.818      24.501    
  34.337      24.573      16.531      11.561      9.3183      8.1935      7.4579      7.1195      7.1184      7.4565    
  8.1943      9.3191      11.556      16.521      24.565      34.338      43.270      48.612      48.608      43.263    
  58.112      43.301      28.933      18.079      11.868      9.3193      8.1612      7.4800      7.2665      7.4802    
  8.1616      9.3188      11.865      18.075      28.933      43.310      58.129      69.352      73.539      69.339    
  87.752      69.343      48.659      30.581      18.074      11.557      9.1574      8.0767      7.5453      7.5459    
  8.0777      9.1574      11.556      18.075      30.586      48.667      69.352      87.759      98.667      98.665    
  117.56      98.654      73.541      48.663      28.929      16.521      10.784      8.8841      7.9743      7.6774    
  7.9754      8.8839      10.783      16.521      28.933      48.667      73.536      98.641      117.54      124.60    
  139.96      124.60      98.655      69.356      43.309      24.564      14.049      9.8953      8.5314      7.8847    
  7.8858      8.5327      9.8940      14.046      24.564      43.310      69.352      98.640      124.58      139.96    
  110.27      104.01      87.229      64.914      42.845      25.482      14.782      10.008      8.3940      7.5533    
  7.2814      7.5540      8.3945      10.008      14.781      25.482      42.845      64.914      87.229      104.01    
  104.01      104.01      92.497      73.047      51.130      31.886      18.480      11.432      8.8516      7.7662    
  7.2288      7.2280      7.7652      8.8526      11.435      18.481      31.885      51.132      73.056      92.509    
  87.237      92.522      87.229      73.048      54.235      35.761      21.463      12.932      9.3047      7.9695    
  7.2111      6.9676      7.2090      7.9686      9.3064      12.933      21.461      35.758      54.237      73.056    
  64.911      73.099      73.100      64.915      51.130      35.761      22.607      13.902      9.6996      8.1276    
  7.2204      6.7874      6.7869      7.2196      8.1275      9.6999      13.901      22.604      35.755      51.124    
  42.836      51.211      54.353      51.219      42.845      31.885      21.463      13.902      9.8609      8.2136    
  7.2394      6.6822      6.5109      6.6831      7.2398      8.2131      9.8611      13.904      21.463      31.880    
  25.482      32.009      35.956      35.959      32.014      25.482      18.480      12.933      9.6996      8.2135    
  7.2488      6.6360      6.3612      6.3622      6.6373      7.2483      8.2127      9.7024      12.939      18.486    
  14.789      18.643      21.733      22.914      21.731      18.638      14.782      11.433      9.3048      8.1272    
  7.2395      6.6361      6.3145      6.2182      6.3156      6.6361      7.2376      8.1254      9.3064      11.439    
  10.007      11.602      13.240      14.284      14.281      13.234      11.598      10.008      8.8519      7.9690    
  7.2204      6.6824      6.3610      6.2182      6.2184      6.3615      6.6821      7.2178      7.9639      8.8467    
  8.3857      9.0015      9.6029      10.101      10.297      10.098      9.6028      9.0071      8.3942      7.7659    
  7.2109      6.7878      6.5108      6.3621      6.3159      6.3616      6.5116      6.7898      7.2105      7.7603    
  7.5534      7.9054      8.2443      8.5131      8.6616      8.6622      8.5156      8.2489      7.9098      7.5535    
  7.2286      6.9680      6.7872      6.6828      6.6375      6.6363      6.6815      6.7897      6.9740      7.2335    
  7.2887      7.3728      7.4799      7.5942      7.6862      7.7229      7.6883      7.5961      7.4787      7.3676    
  7.2814      7.2279      7.2094      7.2193      7.2395      7.2484      7.2372      7.2175      7.2111      7.2337    
  7.5527      7.3726      7.2397      7.1610      7.1293      7.1242      7.1251      7.1299      7.1580      7.2338    
  7.3683      7.5536      7.7653      7.9685      8.1270      8.2132      8.2130      8.1253      7.9643      7.7607    
  8.3852      7.9050      7.4805      7.1612      6.9584      6.8557      6.8264      6.8566      6.9577      7.1586    
  7.4801      7.9105      8.3942      8.8529      9.3062      9.7000      9.8617      9.7025      9.3061      8.8467    
  10.007      9.0016      8.2447      7.5944      7.1288      6.8556      6.7370      6.7369      6.8555      7.1295    
  7.5971      8.2493      9.0060      10.008      11.435      12.933      13.901      13.904      12.939      11.438    
  14.789      11.602      9.6026      8.5130      7.6859      7.1242      6.8268      6.7368      6.8250      7.1237    
  7.6883      8.5157      9.6013      11.596      14.782      18.480      21.461      22.603      21.463      18.486    
  25.482      18.643      13.239      10.100      8.6619      7.7230      7.1253      6.8563      6.8553      7.1239    
  7.7232      8.6625      10.098      13.233      18.637      25.482      31.884      35.758      35.756      31.881    
  42.835      32.009      21.733      14.284      10.297      8.6623      7.6881      7.1298      6.9576      7.1299    
  7.6884      8.6623      10.296      14.282      21.733      32.014      42.845      51.133      54.237      51.125    
  64.911      51.211      35.957      22.914      14.281      10.098      8.5151      7.5963      7.1583      7.1587    
  7.5970      8.5154      10.098      14.282      22.917      35.962      51.216      64.915      73.057      73.055    
  87.237      73.100      54.354      35.959      21.730      13.233      9.6026      8.2494      7.4791      7.2334    
  7.4799      8.2494      9.6014      13.233      21.733      35.962      54.351      73.092      87.229      92.508    
  104.02      92.523      73.101      51.218      32.014      18.637      11.598      9.0075      7.9099      7.3671    
  7.3680      7.9109      9.0064      11.596      18.637      32.015      51.216      73.091      92.511      104.01    
  72.555      68.376      57.184      42.409      28.084      17.296      11.168      8.6913      7.5748      6.9163    
  6.7093      6.9168      7.5752      8.6910      11.168      17.295      28.084      42.409      57.184      68.375    
  68.378      68.375      60.681      47.742      33.359      21.129      13.132      9.3415      7.8951      7.0301    
  6.6193      6.6188      7.0294      7.8958      9.3433      13.133      21.128      33.360      47.746      60.686    
  57.188      60.721      57.184      47.742      35.355      23.501      14.788      10.037      8.1484      7.1444    
  6.5606      6.3782      6.5592      7.1437      8.1496      10.038      14.787      23.499      35.355      47.745    
  42.408      47.840      47.840      42.410      33.359      23.501      15.436      10.503      8.3177      7.2358    
  6.5302      6.2065      6.2062      6.5296      7.2354      8.3175      10.502      15.434      23.498      33.357    
  28.080      33.517      35.575      33.520      28.084      21.128      14.788      10.503      8.3823      7.2861    
  6.5191      6.1009      5.9749      6.1016      6.5193      7.2853      8.3815      10.503      14.788      21.126    
  17.295      21.339      23.836      23.837      21.341      17.295      13.132      10.037      8.3177      7.2860    
  6.5170      6.0519      5.8484      5.8491      6.0530      6.5170      7.2855      8.3188      10.040      13.135    
  11.171      13.373      15.203      15.915      15.202      13.371      11.168      9.3419      8.1485      7.2355    
  6.5191      6.0520      5.8086      5.7363      5.8093      6.0523      6.5187      7.2351      8.1496      9.3446    
  8.6903      9.5822      10.481      11.063      11.062      10.479      9.5810      8.6913      7.8953      7.1440    
  6.5301      6.1010      5.8483      5.7363      5.7363      5.8483      6.1009      6.5292      7.1420      7.8929    
  7.5710      8.1188      8.5814      8.8982      9.0151      8.8970      8.5813      8.1214      7.5750      7.0298    
  6.5604      6.2068      5.9748      5.8490      5.8096      5.8483      5.9746      6.2073      6.5602      7.0272    
  6.9164      7.2417      7.5558      7.8064      7.9453      7.9453      7.8069      7.5575      7.2434      6.9164    
  6.6191      6.3785      6.2064      6.1014      6.0532      6.0525      6.1005      6.2072      6.3811      6.6213    
  6.7125      6.8290      6.9609      7.0892      7.1855      7.2219      7.1861      7.0896      6.9602      6.8267    
  6.7093      6.6188      6.5595      6.5293      6.5191      6.5171      6.5184      6.5290      6.5606      6.6215    
  6.9159      6.8288      6.7773      6.7613      6.7694      6.7821      6.7826      6.7699      6.7601      6.7748    
  6.8271      6.9165      7.0295      7.1437      7.2350      7.2855      7.2857      7.2350      7.1424      7.0275    
  7.5706      7.2414      6.9614      6.7614      6.6436      6.5897      6.5759      6.5907      6.6440      6.7605    
  6.9611      7.2438      7.5750      7.8960      8.1494      8.3176      8.3820      8.3189      8.1493      7.8929    
  8.6905      8.1188      7.5562      7.0894      6.7691      6.5896      6.5153      6.5154      6.5899      6.7695    
  7.0903      7.5578      8.1207      8.6913      9.3435      10.038      10.502      10.503      10.040      9.3444    
  11.171      9.5825      8.5811      7.8063      7.1853      6.7821      6.5762      6.5153      6.5750      6.7814    
  7.1861      7.8073      8.5803      9.5795      11.168      13.133      14.787      15.434      14.788      13.135    
  17.296      13.372      10.481      8.8980      7.9455      7.2220      6.7828      6.5905      6.5898      6.7816    
  7.2218      7.9459      8.8971      10.478      13.370      17.295      21.128      23.499      23.498      21.127    
  28.080      21.338      15.203      11.063      9.0155      7.9454      7.1859      6.7698      6.6439      6.7698    
  7.1862      7.9457      9.0154      11.062      15.203      21.340      28.084      33.360      35.356      33.357    
  42.407      33.517      23.836      15.915      11.062      8.8967      7.8066      7.0898      6.7603      6.7606    
  7.0903      7.8071      8.8971      11.063      15.917      23.838      33.519      42.410      47.746      47.745    
  57.188      47.840      35.576      23.837      15.202      10.479      8.5811      7.5578      6.9604      6.7745    
  6.9609      7.5578      8.5804      10.478      15.203      23.838      35.575      47.837      57.184      60.686    
  68.378      60.722      47.840      33.520      21.340      13.370      9.5812      8.1217      7.2435      6.8263    
  6.8269      7.2442      8.1209      9.5794      13.370      21.341      33.519      47.836      60.716      68.375    
  42.075      39.632      33.148      24.777      17.017      11.624      8.8960      7.6600      6.8184      6.3476    
  6.2032      6.3479      6.8187      7.6599      8.8956      11.624      17.017      24.778      33.149      39.632    
  39.632      39.632      35.150      27.730      19.755      13.388      9.6367      7.9754      6.9952      6.3636    
  6.0765      6.0761      6.3632      6.9957      7.9767      9.6376      13.388      19.755      27.731      35.151    
  33.149      35.201      33.149      27.730      20.812      14.525      10.294      8.2127      7.1374      6.3850    
  5.9735      5.8481      5.9726      6.3845      7.1381      8.2139      10.295      14.524      20.811      27.731    
  24.778      27.861      27.861      24.778      19.755      14.524      10.560      8.3599      7.2259      6.4036    
  5.8988      5.6754      5.6753      5.8985      6.4032      7.2255      8.3595      10.560      14.524      19.755    
  17.017      19.968      21.105      19.969      17.017      13.388      10.294      8.3601      7.2553      6.4140    
  5.8541      5.5615      5.4748      5.5620      5.8543      6.4132      7.2543      8.3595      10.294      13.388    
  11.624      13.661      14.961      14.961      13.661      11.624      9.6366      8.2131      7.2259      6.4139    
  5.8394      5.5052      5.3614      5.3618      5.5060      5.8396      6.4136      7.2259      8.2139      9.6377    
  8.8962      9.9373      10.819      11.169      10.820      9.9373      8.8958      7.9757      7.1375      6.4034    
  5.8542      5.5052      5.3249      5.2711      5.3252      5.5057      5.8545      6.4038      7.1381      7.9764    
  7.6594      8.2761      8.7687      9.0630      9.0629      8.7687      8.2764      7.6601      6.9953      6.3848    
  5.8987      5.5616      5.3613      5.2711      5.2709      5.3610      5.5615      5.8988      6.3846      6.9948    
  6.8175      7.2831      7.6869      7.9596      8.0553      7.9592      7.6868      7.2838      6.8185      6.3634    
  5.9733      5.6757      5.4747      5.3618      5.3254      5.3610      5.4740      5.6754      5.9731      6.3628    
  6.3477      6.6392      6.9163      7.1353      7.2563      7.2561      7.1349      6.9162      6.6394      6.3476    
  6.0763      5.8483      5.6754      5.5618      5.5061      5.5057      5.5612      5.6753      5.8487      6.0768    
  6.2039      6.3460      6.4908      6.6197      6.7104      6.7432      6.7102      6.6193      6.4904      6.3455    
  6.2032      6.0761      5.9728      5.8983      5.8542      5.8397      5.8543      5.8987      5.9735      6.0769    
  6.3473      6.3459      6.3612      6.3893      6.4202      6.4409      6.4411      6.4205      6.3892      6.3608    
  6.3458      6.3477      6.3632      6.3845      6.4029      6.4133      6.4137      6.4037      6.3848      6.3630    
  6.8172      6.6390      6.4911      6.3894      6.3331      6.3099      6.3049      6.3108      6.3339      6.3894    
  6.4909      6.6396      6.8186      6.9958      7.1380      7.2255      7.2546      7.2259      7.1379      6.9948    
  7.6596      7.2831      6.9165      6.6199      6.4200      6.3099      6.2651      6.2653      6.3104      6.4203    
  6.6198      6.9164      7.2833      7.6601      7.9768      8.2139      8.3596      8.3595      8.2135      7.9763    
  8.8966      8.2763      7.6867      7.1352      6.7103      6.4409      6.3051      6.2652      6.3044      6.4402    
  6.7102      7.1353      7.6863      8.2753      8.8958      9.6375      10.294      10.560      10.294      9.6377    
  11.624      9.9372      8.7684      7.9594      7.2564      6.7432      6.4412      6.3107      6.3103      6.4403    
  6.7428      7.2566      7.9595      8.7678      9.9363      11.624      13.388      14.524      14.524      13.388    
  17.017      13.661      10.819      9.0631      8.0556      7.2561      6.7100      6.4205      6.3339      6.4205    
  6.7102      7.2565      8.0561      9.0633      10.819      13.661      17.017      19.756      20.811      19.755    
  24.777      19.968      14.961      11.169      9.0630      7.9590      7.1346      6.6195      6.3893      6.3894    
  6.6198      7.1351      7.9595      9.0634      11.170      14.961      19.969      24.778      27.731      27.730    
  33.149      27.861      21.105      14.961      10.820      8.7683      7.6867      6.9164      6.4905      6.3606    
  6.4908      6.9164      7.6863      8.7679      10.819      14.961      21.105      27.861      33.149      35.151    
  39.633      35.201      27.861      19.968      13.661      9.9371      8.2765      7.2840      6.6394      6.3453    
  6.3456      6.6399      7.2835      8.2752      9.9362      13.661      19.969      27.860      35.200      39.632    
  21.937      20.767      17.727      13.978      10.771      8.7650      7.6520      6.8003      6.2194      5.9090    
  5.8154      5.9092      6.2195      6.8001      7.6518      8.7649      10.771      13.978      17.727      20.767    
  20.767      20.767      18.638      15.228      11.788      9.2965      7.9064      6.9668      6.2653      5.8421    
  5.6554      5.6553      5.8419      6.2656      6.9675      7.9070      9.2967      11.788      15.228      18.638    
  17.727      18.695      17.727      15.228      12.194      9.6541      8.0755      7.0808      6.2996      5.7829    