unknown system                          
   1.00000000000000     
     2.423200    0.000000    0.000000
    -1.211600    2.098553    0.000000
     0.000000    0.000000    4.391920
   Fe
     2
Direct
  0.000000  0.000000  0.000000
  0.333333  0.666667  0.500000
 
   20   20   36
 0.18799129938E+03 0.17736343311E+03 0.14898666232E+03 0.11142542814E+03 0.74083486286E+02
 0.43808665157E+02 0.23714412299E+02 0.13436863493E+02 0.98782319457E+01 0.87475807813E+01
 0.83726849882E+01 0.87485868727E+01 0.98789865149E+01 0.13436438319E+02 0.23713331674E+02
 0.43808173278E+02 0.74084006153E+02 0.11142621112E+03 0.14898691742E+03 0.17736327670E+03
 0.17737493566E+03 0.17736251496E+03 0.15790167753E+03 0.12517732377E+03 0.88282093178E+02
 0.55297697512E+02 0.31076473435E+02 0.16882772583E+02 0.10878888730E+02 0.91076645773E+01
 0.83715493487E+01 0.83702009638E+01 0.91061564735E+01 0.10880349946E+02 0.16884917761E+02
 0.31074886877E+02 0.55295069050E+02 0.88288916073E+02 0.12519937797E+03 0.15792881187E+03
 0.14900427330E+03 0.15789267156E+03 0.14898677440E+03 0.12517821857E+03 0.93574324573E+02
 0.62124466784E+02 0.36772954244E+02 0.20262135780E+02 0.12144588088E+02 0.94384953614E+01
 0.84077860828E+01 0.80612806320E+01 0.84045600227E+01 0.94374290061E+01 0.12147290746E+02
 0.20262731253E+02 0.36767025547E+02 0.62118422350E+02 0.93579966096E+02 0.12519700347E+03
 0.11141882081E+03 0.12512179088E+03 0.12512464375E+03 0.11142715479E+03 0.88282028629E+02
 0.62123741098E+02 0.38916787125E+02 0.22356776286E+02 0.13245520734E+02 0.97357976311E+01
 0.84689817340E+01 0.78478318913E+01 0.78470047456E+01 0.84679209492E+01 0.97365654795E+01
 0.13247206313E+02 0.22355461168E+02 0.38909506742E+02 0.62111779201E+02 0.88269866800E+02
 0.74060249798E+02 0.88183649746E+02 0.93453324338E+02 0.88202774849E+02 0.74083748670E+02
 0.55296240191E+02 0.36772989412E+02 0.22357254688E+02 0.13683580267E+02 0.99375861142E+01
 0.85278510078E+01 0.77267689618E+01 0.74717606136E+01 0.77278846965E+01 0.85283805942E+01
 0.99380036158E+01 0.13686813881E+02 0.22362851475E+02 0.36773426030E+02 0.55283410085E+02
 0.43806337388E+02 0.55222259413E+02 0.61996206607E+02 0.62002679820E+02 0.55233536052E+02
 0.43807833175E+02 0.31076245238E+02 0.20263180034E+02 0.13245463008E+02 0.99373474409E+01
 0.85524339998E+01 0.76760751199E+01 0.72652647352E+01 0.72665681078E+01 0.76772081195E+01
 0.85503779002E+01 0.99361677253E+01 0.13252760730E+02 0.20278600601E+02 0.31088381732E+02
 0.23730687546E+02 0.31070075126E+02 0.36719980868E+02 0.38838532695E+02 0.36713532722E+02
 0.31056808063E+02 0.23713888158E+02 0.16883568455E+02 0.12144739028E+02 0.97351714706E+01
 0.85280078810E+01 0.76761570690E+01 0.72002987039E+01 0.70551215617E+01 0.72020705153E+01
 0.76750328878E+01 0.85219801109E+01 0.97295145131E+01 0.12147290746E+02 0.16896237384E+02
 0.13435017327E+02 0.16913473015E+02 0.20293777284E+02 0.22370216152E+02 0.22362727055E+02
 0.20277791585E+02 0.16902317619E+02 0.13436887727E+02 0.10879312647E+02 0.94377835945E+01
 0.84689603637E+01 0.77270963429E+01 0.72649324926E+01 0.70550751999E+01 0.70562032121E+01
 0.72669830066E+01 0.77264637049E+01 0.84619516332E+01 0.94248165408E+01 0.10867269990E+02
 0.98593080423E+01 0.10901754939E+02 0.12204447412E+02 0.13321646002E+02 0.13759427482E+02
 0.13316180494E+02 0.12204296105E+02 0.10914342189E+02 0.98785636997E+01 0.91073200407E+01
 0.84074232901E+01 0.78484176281E+01 0.74716050524E+01 0.72663534842E+01 0.72026213042E+01
 0.72671006257E+01 0.74758384966E+01 0.78543950533E+01 0.84068826230E+01 0.90944975086E+01
 0.87475226169E+01 0.91345119967E+01 0.94986566362E+01 0.98287470187E+01 0.10050521447E+02
 0.10052634132E+02 0.98362568804E+01 0.95112532719E+01 0.91455403696E+01 0.87478852753E+01
 0.83711518182E+01 0.80617764715E+01 0.78473533723E+01 0.77274530787E+01 0.76775606660E+01
 0.76753034853E+01 0.77257047060E+01 0.78541579431E+01 0.80763783447E+01 0.83829241845E+01
 0.83900408605E+01 0.84251051478E+01 0.84901931183E+01 0.85793363024E+01 0.86635917870E+01
 0.87012747380E+01 0.86698260638E+01 0.85853535059E+01 0.84883087484E+01 0.84128453396E+01
 0.83726796123E+01 0.83701331134E+01 0.84051006898E+01 0.84674938212E+01 0.85280078810E+01
 0.85506436603E+01 0.85214505245E+01 0.84615458753E+01 0.84077860828E+01 0.83832538645E+01
 0.87465768248E+01 0.84247701661E+01 0.81635902269E+01 0.79844884581E+01 0.78898636718E+01
 0.78577779244E+01 0.78596449065E+01 0.78907377898E+01 0.79770142018E+01 0.81491060846E+01
 0.84138948471E+01 0.87479455745E+01 0.91063160842E+01 0.94373665595E+01 0.97358360859E+01
 0.99381793748E+01 0.99365821576E+01 0.97294112800E+01 0.94254658611E+01 0.90950016559E+01
 0.98586224404E+01 0.91340383735E+01 0.84910663209E+01 0.79847192360E+01 0.76477664497E+01
 0.74685361775E+01 0.74150700823E+01 0.74683849240E+01 0.76437658309E+01 0.79780181583E+01
 0.84905623813E+01 0.91466046254E+01 0.98786326670E+01 0.10880733639E+02 0.12146992661E+02
 0.13247298899E+02 0.13687727117E+02 0.13252911042E+02 0.12146841721E+02 0.10867229766E+02
 0.13435474625E+02 0.10901904436E+02 0.94992854979E+01 0.85796181868E+01 0.78891573283E+01
 0.74684922521E+01 0.72804977868E+01 0.72795853854E+01 0.74669960564E+01 0.78903528787E+01
 0.85866968225E+01 0.95115778837E+01 0.10912953321E+02 0.13436919851E+02 0.16885296663E+02
 0.20262733011E+02 0.22355865820E+02 0.22362777726E+02 0.20277558105E+02 0.16895820416E+02
 0.23731768171E+02 0.16913988033E+02 0.12204013479E+02 0.98285327473E+01 0.86630990252E+01
 0.78578037099E+01 0.74155641887E+01 0.72794289578E+01 0.74128164494E+01 0.78583209113E+01
 0.86698260638E+01 0.98355126633E+01 0.12201973505E+02 0.16900576588E+02 0.23713888158E+02
 0.31074729386E+02 0.36766588928E+02 0.38909076779E+02 0.36772954244E+02 0.31088452439E+02
 0.43806832373E+02 0.31069942556E+02 0.20292762896E+02 0.13321246058E+02 0.10050911198E+02
 0.87015038983E+01 0.78599565327E+01 0.74680483355E+01 0.74667033933E+01 0.78586067520E+01
 0.87031530731E+01 0.10051865603E+02 0.13314347710E+02 0.20278203378E+02 0.31058301506E+02
 0.43807836281E+02 0.55294407407E+02 0.62118183575E+02 0.62112266112E+02 0.55284205763E+02
 0.74059751258E+02 0.55221251102E+02 0.36719511844E+02 0.22370491666E+02 0.13760290425E+02
 0.10052743982E+02 0.86694781810E+01 0.78905461959E+01 0.76436409268E+01 0.78908676284E+01
 0.86699709428E+01 0.10051585703E+02 0.13755370926E+02 0.22364148046E+02 0.36719911878E+02
 0.55235371942E+02 0.74083769998E+02 0.88289418937E+02 0.93580703729E+02 0.88270434213E+02
 0.11141805819E+03 0.88182936436E+02 0.61996670368E+02 0.38839559148E+02 0.22363121715E+02
 0.13315708892E+02 0.98355826596E+01 0.85855992702E+01 0.79773492850E+01 0.79781224637E+01
 0.85866607024E+01 0.98350527139E+01 0.13314276051E+02 0.22364267192E+02 0.38846241987E+02
 0.62008213880E+02 0.88195404898E+02 0.11142717514E+03 0.12519962197E+03 0.12519635269E+03
 0.14900401819E+03 0.12512255096E+03 0.93454050416E+02 0.62003307625E+02 0.36713132688E+02
 0.20276922903E+02 0.12204013479E+02 0.95119038388E+01 0.84888126880E+01 0.81485790619E+01
 0.84901931183E+01 0.95115995889E+01 0.12202124812E+02 0.20278349084E+02 0.36719980868E+02
 0.62008377925E+02 0.93446923855E+02 0.12510324623E+03 0.14898677440E+03 0.15792734370E+03
 0.17737508115E+03 0.15789441423E+03 0.12512491012E+03 0.88201954427E+02 0.55232899142E+02
 0.31056461732E+02 0.16902660032E+02 0.10914941344E+02 0.91456864134E+01 0.84121181696E+01
 0.84135026588E+01 0.91472242925E+01 0.10913402979E+02 0.16900403983E+02 0.31058087745E+02
 0.55235743343E+02 0.88195297786E+02 0.12510275253E+03 0.15786699007E+03 0.17736250404E+03
 0.17716849610E+03 0.16716364399E+03 0.14042635693E+03 0.10498969761E+03 0.69739855902E+02
 0.41214244270E+02 0.22402743640E+02 0.12910643398E+02 0.96757810379E+01 0.85881580959E+01
 0.82254600837E+01 0.85891250353E+01 0.96765049391E+01 0.12910231804E+02 0.22401702247E+02
 0.41213771050E+02 0.69740357430E+02 0.10499045225E+03 0.14042660277E+03 0.16716349332E+03
 0.16717415058E+03 0.16716275781E+03 0.14882763637E+03 0.11796250376E+03 0.83131632262E+02
 0.52014093506E+02 0.29260294483E+02 0.16061302830E+02 0.10575858470E+02 0.89319864797E+01
 0.82194044670E+01 0.82181212564E+01 0.89305484336E+01 0.10577275986E+02 0.16063484407E+02
 0.29259037591E+02 0.52011728206E+02 0.83137804146E+02 0.11798263795E+03 0.14885249227E+03
 0.14044247522E+03 0.14882363857E+03 0.14042646405E+03 0.11796336694E+03 0.88124322435E+02
 0.58440822248E+02 0.34586502533E+02 0.19173920973E+02 0.11710784038E+02 0.92469153152E+01
 0.82501230536E+01 0.79164222404E+01 0.82470417363E+01 0.92458631669E+01 0.11713365317E+02
 0.19174673640E+02 0.34581189471E+02 0.58435231633E+02 0.88129357989E+02 0.11798048922E+03
 0.10498373385E+03 0.11792288271E+03 0.11792549322E+03 0.10499136319E+03 0.83131571643E+02
 0.58440122730E+02 0.36594345830E+02 0.21111175294E+02 0.12703943013E+02 0.95151826921E+01
 0.83058275308E+01 0.77083498446E+01 0.77075706368E+01 0.83047964949E+01 0.95158032675E+01
 0.12705400140E+02 0.21109897826E+02 0.36587629271E+02 0.58429144034E+02 0.83120428483E+02
 0.69718718466E+02 0.83059808859E+02 0.88038702581E+02 0.83077258937E+02 0.69740110456E+02
 0.52012688743E+02 0.34586534404E+02 0.21111635938E+02 0.13100579262E+02 0.96934729830E+01
 0.83604065920E+01 0.75902783397E+01 0.73462096007E+01 0.75913797566E+01 0.83609147437E+01
 0.96937223893E+01 0.13103318669E+02 0.21116616225E+02 0.34586955985E+02 0.52001070942E+02
 0.41212170007E+02 0.51967897264E+02 0.58360153215E+02 0.58366077460E+02 0.51978186407E+02
 0.41213442224E+02 0.29260072769E+02 0.19174926831E+02 0.12703890066E+02 0.96932439208E+01
 0.83833309600E+01 0.75407275566E+01 0.71479558417E+01 0.71492227235E+01 0.75419062392E+01
 0.83815161586E+01 0.96921213458E+01 0.12710517496E+02 0.19189080681E+02 0.29271295898E+02
 0.22417574696E+02 0.29278004369E+02 0.34580037667E+02 0.36571705405E+02 0.34574224903E+02
 0.29265965351E+02 0.22402238612E+02 0.16062070311E+02 0.11710931863E+02 0.95145805564E+01
 0.83605545286E+01 0.75408051101E+01 0.70856759150E+01 0.69471721224E+01 0.70873595402E+01
 0.75398746409E+01 0.83551482293E+01 0.95095154232E+01 0.11713365317E+02 0.16073711116E+02
 0.12908852391E+02 0.16110383345E+02 0.19243166214E+02 0.21175209079E+02 0.21168394450E+02
 0.19228645993E+02 0.16100316657E+02 0.12910668128E+02 0.10576266708E+02 0.92462285727E+01
 0.83058038374E+01 0.75905917059E+01 0.71476386979E+01 0.69471288652E+01 0.69481209805E+01
 0.71494443542E+01 0.75900003438E+01 0.82994575088E+01 0.92344365818E+01 0.10565239310E+02
 0.96584203913E+01 0.10613854558E+02 0.11799676887E+02 0.12820269480E+02 0.13221234001E+02
 0.12815236720E+02 0.11799530664E+02 0.10625417563E+02 0.96760987535E+01 0.89316516827E+01
 0.82497733239E+01 0.77089149667E+01 0.73460628423E+01 0.71490181107E+01 0.70878880136E+01
 0.71495568852E+01 0.73497640165E+01 0.77142890358E+01 0.82492538348E+01 0.89198911697E+01
 0.85881173521E+01 0.89704787198E+01 0.93295240062E+01 0.96387912637E+01 0.98414917649E+01
 0.98433601987E+01 0.96455216738E+01 0.93409333399E+01 0.89805255914E+01 0.85884496627E+01
 0.82190235805E+01 0.79169035980E+01 0.77079072835E+01 0.75909634356E+01 0.75422433481E+01
 0.75401341963E+01 0.75892706565E+01 0.77140605604E+01 0.79302359216E+01 0.82297862035E+01
 0.82413325330E+01 0.82806643785E+01 0.83487451761E+01 0.84386012168E+01 0.85218225890E+01
 0.85585391730E+01 0.85274303505E+01 0.84439865064E+01 0.83469532455E+01 0.82694443175E+01
 0.82254566855E+01 0.82180586688E+01 0.82475612254E+01 0.83043816531E+01 0.83605545286E+01
 0.83817726880E+01 0.83546400776E+01 0.82990663603E+01 0.82501230536E+01 0.82301045023E+01
 0.85872070330E+01 0.82803405712E+01 0.80317473476E+01 0.78612075905E+01 0.77706971743E+01
 0.77396369223E+01 0.77413715914E+01 0.77715502207E+01 0.78544094718E+01 0.80185255339E+01
 0.82704381519E+01 0.85885062831E+01 0.89307006199E+01 0.92458002227E+01 0.95151010645E+01
 0.96938939015E+01 0.96925219201E+01 0.95094153560E+01 0.92350603801E+01 0.89203781529E+01
 0.96577612517E+01 0.89700204514E+01 0.83495856602E+01 0.78614310776E+01 0.75360362172E+01
 0.73623021788E+01 0.73103206992E+01 0.73623340712E+01 0.75325566598E+01 0.78553605347E+01
 0.83491005824E+01 0.89815332746E+01 0.96761635151E+01 0.10577646121E+02 0.11713079200E+02
 0.12705491109E+02 0.13104198440E+02 0.12710661412E+02 0.11712931375E+02 0.10565201206E+02
 0.12909294152E+02 0.10613997804E+02 0.93301287943E+01 0.84388749714E+01 0.77700177447E+01
 0.73622591310E+01 0.71796055815E+01 0.71788194541E+01 0.73609848259E+01 0.77711520382E+01
 0.84452929803E+01 0.93412749020E+01 0.10624068318E+02 0.12910698296E+02 0.16063850111E+02
 0.19174675033E+02 0.21110286692E+02 0.21116544448E+02 0.19188076216E+02 0.16073309339E+02
 0.22418616089E+02 0.16110880113E+02 0.11799258017E+02 0.96385858677E+01 0.85213489356E+01
 0.77396601985E+01 0.73107953892E+01 0.71786687582E+01 0.73081733623E+01 0.77400081066E+01
 0.85274303505E+01 0.96449264125E+01 0.11797318565E+02 0.16098524822E+02 0.22402238612E+02
 0.29258884148E+02 0.34580767889E+02 0.36587215009E+02 0.34586502533E+02 0.29271364169E+02
 0.41212646136E+02 0.29277876930E+02 0.19242188647E+02 0.12819883649E+02 0.98418675453E+01
 0.85587587319E+01 0.77416707545E+01 0.73620102423E+01 0.73607040448E+01 0.77402839934E+01
 0.85601800784E+01 0.98427697480E+01 0.12813638586E+02 0.19228864714E+02 0.29267132930E+02
 0.41213445133E+02 0.52011090609E+02 0.58435002465E+02 0.58429614384E+02 0.52001838108E+02
 0.69718236954E+02 0.51966925013E+02 0.34579586048E+02 0.21175473969E+02 0.13222065193E+02
 0.98434656793E+01 0.85270954350E+01 0.77713669901E+01 0.75324370548E+01 0.77716482372E+01
 0.85275690883E+01 0.98424994482E+01 0.13217699600E+02 0.21169773863E+02 0.34579971403E+02
 0.51979787451E+02 0.69740130472E+02 0.83138290042E+02 0.88130068934E+02 0.83120974999E+02
 0.10498299832E+03 0.83059121244E+02 0.58360600736E+02 0.36572694788E+02 0.21168774677E+02
 0.12814782491E+02 0.96448727375E+01 0.84442250179E+01 0.78547317858E+01 0.78554593615E+01
 0.84452577371E+01 0.96444828723E+01 0.12813570188E+02 0.21169889200E+02 0.36578835251E+02
 0.58371175708E+02 0.83070559645E+02 0.10499138230E+03 0.11798287223E+03 0.11797986032E+03
 0.14044222938E+03 0.11792361677E+03 0.88039403240E+02 0.58366682803E+02 0.34573839549E+02
 0.19227809154E+02 0.11799258017E+02 0.93415609082E+01 0.83474383233E+01 0.80180149255E+01
 0.83487451761E+01 0.93412976822E+01 0.11797464789E+02 0.19229005442E+02 0.34580037667E+02
 0.58371333531E+02 0.88032936066E+02 0.11790599346E+03 0.14042646405E+03 0.14885107500E+03
 0.16717429100E+03 0.14882532066E+03 0.11792575112E+03 0.83076467544E+02 0.51977572021E+02
 0.29265631787E+02 0.16100645526E+02 0.10625994058E+02 0.89806674601E+01 0.82687424997E+01
 0.82700601413E+01 0.89821334117E+01 0.10624501567E+02 0.16098356924E+02 0.29266926806E+02
 0.51980145316E+02 0.83070455868E+02 0.11790551730E+03 0.14880018556E+03 0.16716274756E+03
 0.14832533991E+03 0.13995658554E+03 0.11754351714E+03 0.87757063090E+02 0.58128530050E+02
 0.34338506044E+02 0.18991971629E+02 0.11577717037E+02 0.91380286035E+01 0.81534896093E+01
 0.78265213743E+01 0.81543470686E+01 0.91386668044E+01 0.11577343692E+02 0.18991040622E+02
 0.34338086078E+02 0.58128981322E+02 0.87757738969E+02 0.11754373692E+03 0.13995645058E+03
 0.13996451653E+03 0.13995578971E+03 0.12458687821E+03 0.98651960048E+02 0.69346946722E+02
 0.43272001634E+02 0.24492028365E+02 0.13955983916E+02 0.98032815312E+01 0.84474423371E+01
 0.78037296474E+01 0.78026264893E+01 0.84461982025E+01 0.98045645008E+01 0.13958204194E+02
 0.24491574168E+02 0.43270304403E+02 0.69351449187E+02 0.98667136952E+02 0.12460583277E+03
 0.11755576960E+03 0.12459574326E+03 0.11754361038E+03 0.98652734057E+02 0.73534760599E+02
 0.48616162696E+02 0.28817952700E+02 0.16361135219E+02 0.10611563418E+02 0.87200291546E+01
 0.78167981900E+01 0.75195108994E+01 0.78141217181E+01 0.87190314024E+01 0.10613804711E+02
 0.16362245461E+02 0.28814206046E+02 0.48611759400E+02 0.73538255437E+02 0.98665566359E+02
 0.87752748884E+02 0.98653252767E+02 0.98655237561E+02 0.87758556513E+02 0.69346897091E+02
 0.48615536830E+02 0.30457902159E+02 0.17878276521E+02 0.11328832138E+02 0.89306571085E+01
 0.78554201951E+01 0.73248010358E+01 0.73241528035E+01 0.78544838857E+01 0.89309188006E+01
 0.11329720024E+02 0.17877116344E+02 0.30452661080E+02 0.48607112938E+02 0.69338393148E+02
 0.58112799932E+02 0.69343657442E+02 0.73540206492E+02 0.69356782437E+02 0.58128762331E+02
 0.43270744769E+02 0.28817975336E+02 0.17878687275E+02 0.11618426736E+02 0.90565151334E+01
 0.78968159924E+01 0.72136813805E+01 0.69998555435E+01 0.72147276126E+01 0.78972643238E+01
 0.90563618315E+01 0.11619939731E+02 0.17882106429E+02 0.28818354760E+02 0.43262238449E+02
 0.34337072309E+02 0.43301423676E+02 0.48658420767E+02 0.48662922206E+02 0.43309160962E+02
 0.34337788189E+02 0.24491824989E+02 0.16362033140E+02 0.11328792395E+02 0.90563129330E+01
 0.79146696989E+01 0.71665119763E+01 0.68232237433E+01 0.68243762976E+01 0.71677706876E+01
 0.79134607428E+01 0.90553480626E+01 0.11333696341E+02 0.16372895777E+02 0.24500653891E+02
 0.19003073297E+02 0.24573129076E+02 0.28933098639E+02 0.30580478402E+02 0.28928908944E+02
 0.24564245933E+02 0.18991520489E+02 0.13956671470E+02 0.10611702236E+02 0.89301223446E+01
 0.78969393573E+01 0.71665774615E+01 0.67679253547E+01 0.66474542075E+01 0.67693623073E+01
 0.71661218481E+01 0.78931156096E+01 0.89265637860E+01 0.10613804711E+02 0.13965635078E+02
 0.11576092768E+02 0.14055586486E+02 0.16532186845E+02 0.18078459064E+02 0.18073381149E+02
 0.16521434504E+02 0.14048304853E+02 0.11577743026E+02 0.98036456472E+01 0.87194130007E+01
 0.78553905261E+01 0.72139557712E+01 0.68229484045E+01 0.66474193803E+01 0.66480700611E+01
 0.68241391424E+01 0.72134766885E+01 0.78507447246E+01 0.87106457794E+01 0.97952476229E+01
 0.91247309137E+01 0.98859038276E+01 0.10784868233E+02 0.11560908723E+02 0.11867627554E+02
 0.11557005225E+02 0.10784736403E+02 0.98948001760E+01 0.91383070588E+01 0.84471354437E+01
 0.78164852477E+01 0.73253080542E+01 0.69997328907E+01 0.68241993285E+01 0.67698285697E+01
 0.68242375122E+01 0.70021010427E+01 0.73291428887E+01 0.78160249331E+01 0.84381322487E+01
 0.81534946752E+01 0.85237766834E+01 0.88751618442E+01 0.91532762485E+01 0.93179861151E+01
 0.93192397435E+01 0.91580258359E+01 0.88835250894E+01 0.85312891062E+01 0.81537450601E+01
 0.78033951248E+01 0.75199508230E+01 0.73244556608E+01 0.72143543019E+01 0.71680649254E+01
 0.71663506007E+01 0.72128289871E+01 0.73289387276E+01 0.75299998398E+01 0.78115448364E+01
 0.78385540501E+01 0.78938472538E+01 0.79753753126E+01 0.80727136715E+01 0.81574853805E+01
 0.81932849418E+01 0.81614947790E+01 0.80764935368E+01 0.79738418749E+01 0.78853225020E+01
 0.78265230344E+01 0.78025781406E+01 0.78145820327E+01 0.78541041929E+01 0.78969393573E+01
 0.79136913392E+01 0.78926672782E+01 0.78503947008E+01 0.78167981900E+01 0.78118310103E+01
 0.81526840321E+01 0.78935550335E+01 0.76878328132E+01 0.75501082744E+01 0.74793648337E+01
 0.74562751394E+01 0.74576589750E+01 0.74801474757E+01 0.75450512975E+01 0.76778759141E+01
 0.78861634884E+01 0.81537918762E+01 0.84463298664E+01 0.87189676538E+01 0.89302928513E+01
 0.90565211247E+01 0.90557095561E+01 0.89264726006E+01 0.87111981848E+01 0.84385708061E+01
 0.91241460182E+01 0.85233618228E+01 0.79761236169E+01 0.75503110885E+01 0.72687991637E+01
 0.71193640443E+01 0.70749074765E+01 0.71198272077E+01 0.72666228560E+01 0.75458568747E+01
 0.79756917844E+01 0.85321414996E+01 0.91383603643E+01 0.98048965712E+01 0.10613552145E+02
 0.11329806163E+02 0.11620725541E+02 0.11333822223E+02 0.10613413328E+02 0.97952155774E+01
 0.11576490646E+02 0.98860294209E+01 0.88756988534E+01 0.80729642926E+01 0.74787612903E+01
 0.71193235357E+01 0.69589182220E+01 0.69584473094E+01 0.71186008171E+01 0.74797266623E+01
 0.80776845183E+01 0.88838990867E+01 0.98935737854E+01 0.11577767559E+02 0.13958532931E+02
 0.16362245762E+02 0.17877460884E+02 0.17882040216E+02 0.16371998157E+02 0.13965276261E+02
 0.19004004305E+02 0.14056031627E+02 0.10784491906E+02 0.91530957966E+01 0.81570655801E+01
 0.74562915017E+01 0.70753274481E+01 0.69583128402E+01 0.70730575670E+01 0.74562323889E+01
 0.81614947790E+01 0.91577944514E+01 0.10782833188E+02 0.14046432920E+02 0.18991520489E+02
 0.24491432229E+02 0.28813826622E+02 0.30452291065E+02 0.28817952700E+02 0.24500715327E+02
 0.34337495533E+02 0.24573016035E+02 0.16531313085E+02 0.11560562800E+02 0.93183224540E+01
 0.81934775819E+01 0.74579230212E+01 0.71195394157E+01 0.71183535337E+01 0.74564800727E+01
 0.81943308616E+01 0.93190816263E+01 0.11555994714E+02 0.16521194091E+02 0.24564621373E+02
 0.34337791447E+02 0.43269734258E+02 0.48611557256E+02 0.48607536660E+02 0.43262925170E+02
 0.58112366537E+02 0.43300553201E+02 0.28932695972E+02 0.18078694149E+02 0.11868369181E+02
 0.93193329646E+01 0.81611964171E+01 0.74799876809E+01 0.72665182363E+01 0.74801704109E+01
 0.81616162176E+01 0.93188385085E+01 0.11865399932E+02 0.18074632073E+02 0.28933039781E+02
 0.43310174731E+02 0.58128780208E+02 0.69351887176E+02 0.73538891436E+02 0.69338880768E+02
 0.87752089689E+02 0.69343042321E+02 0.48658822316E+02 0.30581363265E+02 0.18073720749E+02
 0.11556599909E+02 0.91574481885E+01 0.80767113028E+01 0.75453376877E+01 0.75459404508E+01
 0.80776516631E+01 0.91573972560E+01 0.11555935323E+02 0.18074736587E+02 0.30586086873E+02
 0.48666881837E+02 0.69351809036E+02 0.87758573198E+02 0.98667344005E+02 0.98664999403E+02
 0.11755554982E+03 0.98653913265E+02 0.73540835255E+02 0.48663464114E+02 0.28928565135E+02
 0.16520687375E+02 0.10784491906E+02 0.88840876623E+01 0.79742737073E+01 0.76774120364E+01
 0.79753753126E+01 0.88839246504E+01 0.10782965018E+02 0.16521320721E+02 0.28933098639E+02
 0.48667022198E+02 0.73536057778E+02 0.98640632276E+02 0.11754361038E+03 0.12460455937E+03
 0.13996464263E+03 0.12459725419E+03 0.98655471367E+02 0.69356072819E+02 0.43308610298E+02
 0.24563948427E+02 0.14048595539E+02 0.98953129087E+01 0.85314189199E+01 0.78846923591E+01
 0.78858255659E+01 0.85326861739E+01 0.98939609247E+01 0.14046278464E+02 0.24564436909E+02
 0.43310494542E+02 0.69351714540E+02 0.98640205585E+02 0.12457804962E+03 0.13995578085E+03
 0.11026549719E+03 0.10401017418E+03 0.87229318141E+02 0.64913548121E+02 0.42844806257E+02
 0.25482319471E+02 0.14782167551E+02 0.10007930217E+02 0.83939635694E+01 0.75533173259E+01
 0.72813831262E+01 0.75540167906E+01 0.83944785274E+01 0.10007613463E+02 0.14781398281E+02
 0.25481979164E+02 0.42845187103E+02 0.64914110982E+02 0.87229499741E+02 0.10401006113E+03
 0.10401494522E+03 0.10400951179E+03 0.92496883821E+02 0.73047285021E+02 0.51129695782E+02
 0.31885780908E+02 0.18480203837E+02 0.11432449704E+02 0.88515691629E+01 0.77661724432E+01
 0.72288269784E+01 0.72279771590E+01 0.77652024111E+01 0.88526275754E+01 0.11434563508E+02
 0.18480596668E+02 0.31884869995E+02 0.51132189845E+02 0.73056400406E+02 0.92508570003E+02
 0.87236811238E+02 0.92521711597E+02 0.87229391279E+02 0.73047927806E+02 0.54234915659E+02
 0.35761091614E+02 0.21463115332E+02 0.12931802454E+02 0.93046865415E+01 0.79694728465E+01
 0.72111251523E+01 0.69676256322E+01 0.72090307820E+01 0.79685911171E+01 0.93064375606E+01
 0.12933214602E+02 0.21461219144E+02 0.35758183855E+02 0.54236594053E+02 0.73055523493E+02
 0.64911215891E+02 0.73099160545E+02 0.73100379729E+02 0.64914788259E+02 0.51129662086E+02
 0.35760573692E+02 0.22606950009E+02 0.13902145105E+02 0.96996466693E+01 0.81275901959E+01
 0.72204088204E+01 0.67874118451E+01 0.67869431267E+01 0.72196368996E+01 0.81274718115E+01
 0.96998958897E+01 0.13901184005E+02 0.22603566996E+02 0.35755317950E+02 0.51124410671E+02
 0.42835652051E+02 0.51211133360E+02 0.54352998329E+02 0.51218969865E+02 0.42845005299E+02
 0.31884740741E+02 0.21463124543E+02 0.13902483000E+02 0.98609453128E+01 0.82136193521E+01
 0.72394491182E+01 0.66821675908E+01 0.65108528957E+01 0.66830948988E+01 0.72398112561E+01
 0.82130610860E+01 0.98610976985E+01 0.13904079097E+02 0.21463442698E+02 0.31879985912E+02
 0.25481630616E+02 0.32009462809E+02 0.35956289657E+02 0.35959036856E+02 0.32014074671E+02
 0.25481724770E+02 0.18480027627E+02 0.12932542574E+02 0.96996255576E+01 0.82134559729E+01
 0.72487702295E+01 0.66360423716E+01 0.63612426235E+01 0.63622000177E+01 0.66372946096E+01
 0.72482551728E+01 0.82127125381E+01 0.97024424331E+01 0.12939324146E+02 0.18485829299E+02
 0.14788709777E+02 0.18642791859E+02 0.21732922395E+02 0.22913688343E+02 0.21730668590E+02
 0.18637725385E+02 0.14781795757E+02 0.11433019992E+02 0.93048114627E+01 0.81271534205E+01
 0.72395381412E+01 0.66360910521E+01 0.63144759060E+01 0.62182086471E+01 0.63155596056E+01
 0.66361466082E+01 0.72375877013E+01 0.81253761738E+01 0.93064375606E+01 0.11438648137E+02
 0.10006577997E+02 0.11601688602E+02 0.13239789879E+02 0.14283544878E+02 0.14280577272E+02
 0.13233600121E+02 0.11597739603E+02 0.10007957637E+02 0.88518686328E+01 0.79689605457E+01
 0.72203720446E+01 0.66823862230E+01 0.63610265558E+01 0.62181852568E+01 0.62184446601E+01
 0.63615130991E+01 0.66820594324E+01 0.72177772748E+01 0.79638655875E+01 0.88467080262E+01
 0.83857064619E+01 0.90014806119E+01 0.96028768613E+01 0.10100550337E+02 0.10296608485E+02
 0.10098060497E+02 0.96027663921E+01 0.90070559433E+01 0.83941851728E+01 0.77659078666E+01
 0.72108662024E+01 0.67878334864E+01 0.65107636194E+01 0.63620620223E+01 0.63159364745E+01
 0.63615911714E+01 0.65116158819E+01 0.67898382179E+01 0.72104913505E+01 0.77603183284E+01
 0.75533795721E+01 0.79053988963E+01 0.82442551722E+01 0.85131446899E+01 0.86616341801E+01
 0.86621797189E+01 0.85155598490E+01 0.82489485027E+01 0.79098129851E+01 0.75535206164E+01
 0.72285590388E+01 0.69680028931E+01 0.67871962678E+01 0.66827844709E+01 0.66375277242E+01
 0.66363310423E+01 0.66815303722E+01 0.67896697178E+01 0.69740238469E+01 0.72334984602E+01
 0.72886946231E+01 0.73728377276E+01 0.74798595562E+01 0.75941814590E+01 0.76862321746E+01
 0.77228505478E+01 0.76883411696E+01 0.75960712286E+01 0.74786968434E+01 0.73676375533E+01
 0.72813907549E+01 0.72279480463E+01 0.72094056339E+01 0.72193103520E+01 0.72395381412E+01
 0.72484479078E+01 0.72372255634E+01 0.72174875030E+01 0.72111251523E+01 0.72337372872E+01
 0.75527145479E+01 0.73725921915E+01 0.72397231891E+01 0.71609796063E+01 0.71292808508E+01
 0.71241926719E+01 0.71251224397E+01 0.71299337579E+01 0.71580386412E+01 0.72337729127E+01
 0.73682665574E+01 0.75535550570E+01 0.77653050886E+01 0.79685278572E+01 0.81269567450E+01
 0.82132017427E+01 0.82130165741E+01 0.81252978827E+01 0.79643146285E+01 0.77606855825E+01
 0.83852297405E+01 0.79050481947E+01 0.74804725047E+01 0.71611516796E+01 0.69584294469E+01
 0.68556789688E+01 0.68264122024E+01 0.68565533205E+01 0.69577291315E+01 0.71586414192E+01
 0.74801191754E+01 0.79104502037E+01 0.83942234094E+01 0.88529040993E+01 0.93062337947E+01
 0.96999741055E+01 0.98617465356E+01 0.97025417606E+01 0.93061088734E+01 0.88466850803E+01
 0.10006911142E+02 0.90015801276E+01 0.82446928057E+01 0.75943974569E+01 0.71287889594E+01
 0.68556423733E+01 0.67369938763E+01 0.67368780551E+01 0.68555342453E+01 0.71295174607E+01
 0.75970640776E+01 0.82493303592E+01 0.90060368681E+01 0.10007974028E+02 0.11434838521E+02
 0.12933213101E+02 0.13901463925E+02 0.13904021122E+02 0.12938582525E+02 0.11438352862E+02
 0.14789479048E+02 0.11602057358E+02 0.96025633249E+01 0.85130007252E+01 0.76858915282E+01
 0.71241992678E+01 0.68267516986E+01 0.67367676703E+01 0.68249898704E+01 0.71237267926E+01
 0.76883411696E+01 0.85157154996E+01 0.96013058236E+01 0.11595911267E+02 0.14781795757E+02
 0.18480471948E+02 0.21460900988E+02 0.22603262049E+02 0.21463115332E+02 0.18485880789E+02
 0.25481976763E+02 0.18642699804E+02 0.13239068782E+02 0.10100263469E+02 0.86619123249E+01
 0.77230040034E+01 0.71253348454E+01 0.68563187400E+01 0.68553362603E+01 0.71239326023E+01
 0.77232194824E+01 0.86624742290E+01 0.10097717788E+02 0.13232907363E+02 0.18637268640E+02
 0.25481730609E+02 0.31884398032E+02 0.35758021309E+02 0.35755673326E+02 0.31880554116E+02
 0.42835289719E+02 0.32008742309E+02 0.21732591417E+02 0.14283736531E+02 0.10297218253E+02
 0.86622550333E+01 0.76880965699E+01 0.71298080346E+01 0.69576467372E+01 0.71298836288E+01
 0.76884372162E+01 0.86622713987E+01 0.10295864012E+02 0.14281612739E+02 0.21732873632E+02
 0.32014423219E+02 0.42845023812E+02 0.51132557177E+02 0.54237120701E+02 0.51124811699E+02
 0.64910668879E+02 0.51210625028E+02 0.35956623044E+02 0.22914419475E+02 0.14280857290E+02
 0.10097726936E+02 0.85150870972E+01 0.75962576229E+01 0.71582724385E+01 0.71587031432E+01
 0.75970344740E+01 0.85153867124E+01 0.10097671096E+02 0.14281701104E+02 0.22917367038E+02
 0.35961567549E+02 0.51216090624E+02 0.64914804109E+02 0.73056568043E+02 0.73055048345E+02
 0.87236629638E+02 0.73099712251E+02 0.54353520712E+02 0.35959485157E+02 0.21730386376E+02
 0.13232984719E+02 0.96025633249E+01 0.82494150849E+01 0.74790501727E+01 0.72333790568E+01
 0.74798595562E+01 0.82493593080E+01 0.96014162928E+01 0.13233013058E+02 0.21732922395E+02
 0.35961682463E+02 0.54350774774E+02 0.73091743283E+02 0.87229391279E+02 0.92507509258E+02
 0.10401505023E+03 0.92522969656E+02 0.73100577561E+02 0.51218380313E+02 0.32013618353E+02
 0.18637481051E+02 0.11597974183E+02 0.90074752469E+01 0.79099242388E+01 0.73671133694E+01
 0.73679879096E+01 0.79109121589E+01 0.90063566560E+01 0.11595777092E+02 0.18637116361E+02
 0.32014687401E+02 0.51216009404E+02 0.73091389410E+02 0.92511074557E+02 0.10400950375E+03
 0.72554675187E+02 0.68375531097E+02 0.57184305420E+02 0.42408593649E+02 0.28084081040E+02
 0.17295525241E+02 0.11168251836E+02 0.86912871395E+01 0.75748099936E+01 0.69163018309E+01
 0.67093051400E+01 0.69168241672E+01 0.75751881944E+01 0.86910375263E+01 0.11167668766E+02
 0.17295278051E+02 0.28084384299E+02 0.42409029209E+02 0.57184443064E+02 0.68375441896E+02
 0.68377585274E+02 0.68375024122E+02 0.60681099265E+02 0.47741687838E+02 0.33359050996E+02
 0.21128636044E+02 0.13132139378E+02 0.93414914218E+01 0.78950571493E+01 0.70300525158E+01