    2    2    1    1
  0.1116692E+02  0.2423200E-09  0.2423200E-09  0.4391920E-09  0.5000000E-15
  1.000000000000000E-004
  CAR 
 unknown system                          
     16     96     40
 
  0.0000000E+00  0.0000000E+00  0.0000000E+00  0.7513148E-03
    1       -2.461872   1.000000
    2        1.316034   1.000000
    3        3.826177   1.000000
    4        4.541045   1.000000
    5        4.541221   1.000000
    6        4.774828   1.000000
    7        4.775007   1.000000
    8        5.039850   1.000000
    9        5.742133   1.005839
   10        5.742173   1.005799
   11        6.562281  -0.000024
   12        6.562324  -0.000024
   13       11.995829   0.000000
   14       27.467258   0.000000
   15       28.915893   0.000000
   16       31.499977   0.000000
   17       33.352708   0.000000
   18       33.352766   0.000000
   19       33.397164   0.000000
   20       34.193074   0.000000
   21       34.193304   0.000000
   22       37.118183   0.000000
   23       37.118213   0.000000
   24       38.045749   0.000000
   25       40.046284   0.000000
   26       40.115068   0.000000
   27       40.115079   0.000000
   28       43.307521   0.000000
   29       43.307915   0.000000
   30       44.868632   0.000000
   31       44.868796   0.000000
   32       46.912085   0.000000
   33       54.307786   0.000000
   34       58.850500   0.000000
   35       58.851550   0.000000
   36       58.952127   0.000000
   37       59.606775   0.000000
   38       59.606821   0.000000
   39       59.709363   0.000000
   40       60.137951   0.000000
 
  0.9090909E-01  0.8937737E-17  0.0000000E+00  0.4507889E-02
    1       -2.148182   1.000000
    2        1.556308   1.000000
    3        3.879057   1.000000
    4        4.378154   1.000000
    5        4.452221   1.000000
    6        4.669351   1.000000
    7        4.715657   1.000000
    8        4.938722   1.000000
    9        5.594825   1.022767
   10        5.648943   1.033829
   11        6.584494  -0.000012
   12        7.492836  -0.000000
   13       12.028025   0.000000
   14       27.396503   0.000000
   15       27.860945   0.000000
   16       29.770396   0.000000
   17       30.717225   0.000000
   18       33.122959   0.000000
   19       33.124921   0.000000
   20       33.332145   0.000000
   21       36.370907   0.000000
   22       36.500271   0.000000
   23       37.067242   0.000000
   24       37.632883   0.000000
   25       40.706512   0.000000
   26       40.930355   0.000000
   27       41.428680   0.000000
   28       41.909509   0.000000
   29       44.850366   0.000000
   30       46.117043   0.000000
   31       47.417103   0.000000
   32       49.117920   0.000000
   33       54.146659   0.000000
   34       56.042275   0.000000
   35       57.149199   0.000000
   36       57.464285   0.000000
   37       58.239794   0.000000
   38       59.465611   0.000000
   39       61.119192   0.000000
   40       61.782571   0.000000
 
  0.1818182E+00 -0.3829387E-17  0.0000000E+00  0.4507889E-02
    1       -1.254716   1.000000
    2        2.133913   1.000000
    3        3.507348   1.000000
    4        3.820161   1.000000
    5        4.244167   1.000000
    6        4.720006   1.000000
    7        5.198400   1.000002
    8        5.242428   1.000010
    9        5.390864   1.000647
   10        5.426662   1.001461
   11        6.614731  -0.000005
   12        9.114571  -0.000000
   13       12.150108   0.000000
   14       23.484598   0.000000
   15       28.024719   0.000000
   16       28.488539   0.000000
   17       28.588372   0.000000
   18       29.191670   0.000000
   19       32.546268   0.000000
   20       33.918429   0.000000
   21       34.021551   0.000000
   22       35.326448   0.000000
   23       37.489384   0.000000
   24       37.958352   0.000000
   25       41.172384   0.000000
   26       42.611222   0.000000
   27       44.115757   0.000000
   28       46.046979   0.000000
   29       46.998219   0.000000
   30       49.989733   0.000000
   31       50.234471   0.000000
   32       52.430105   0.000000
   33       53.034212   0.000000
   34       53.211736   0.000000
   35       55.394386   0.000000
   36       56.583460   0.000000
   37       57.852386   0.000000
   38       59.149603   0.000000
   39       61.706081   0.000000
   40       63.546741   0.000000
 
  0.2727273E+00 -0.8769438E-17  0.0000000E+00  0.4507889E-02
    1        0.037339   1.000000
    2        2.457049   1.000000
    3        2.845025   1.000000
    4        3.814802   1.000000
    5        4.058915   1.000000
    6        4.798433   1.000000
    7        5.171040   1.000001
    8        5.370797   1.000397
    9        5.884537   0.631808
   10        6.022924   0.111792
   11        6.626357  -0.000003
   12       11.003558  -0.000000
   13       12.444665   0.000000
   14       19.522576   0.000000
   15       25.083172   0.000000
   16       25.751995   0.000000
   17       26.548785   0.000000
   18       29.590630   0.000000
   19       30.946248   0.000000
   20       33.280701   0.000000
   21       34.399273   0.000000
   22       34.548877   0.000000
   23       35.044156   0.000000
   24       38.404058   0.000000
   25       44.849463   0.000000
   26       46.052234   0.000000
   27       47.524755   0.000000
   28       48.028218   0.000000
   29       48.116798   0.000000
   30       50.449494   0.000000
   31       51.433954   0.000000
   32       52.418943   0.000000
   33       54.587585   0.000000
   34       55.600634   0.000000
   35       56.281431   0.000000
   36       57.901072   0.000000
   37       59.017941   0.000000
   38       59.946229   0.000000
   39       62.453147   0.000000
   40       62.684811   0.000000
 
  0.3636364E+00 -0.4733814E-16  0.0000000E+00  0.4507889E-02
    1        1.252331   1.000000
    2        2.237347   1.000000
    3        2.421785   1.000000
    4        3.895302   1.000000
    5        4.400197   1.000000
    6        4.494565   1.000000
    7        4.957413   1.000000
    8        6.475096  -0.000281
    9        6.572593  -0.000018
   10        6.615474  -0.000004
   11        6.652953  -0.000001
   12       12.638552   0.000000
   13       13.074327   0.000000
   14       16.491688   0.000000
   15       21.795187   0.000000
   16       23.489222   0.000000
   17       24.026552   0.000000
   18       28.999682   0.000000
   19       30.114570   0.000000
   20       33.111021   0.000000
   21       34.055503   0.000000
   22       35.016131   0.000000
   23       35.071008   0.000000
   24       38.478811   0.000000
   25       44.674703   0.000000
   26       46.530031   0.000000
   27       48.146534   0.000000
   28       50.941049   0.000000
   29       51.407630   0.000000
   30       51.521860   0.000000
   31       53.160021   0.000000
   32       54.709969   0.000000
   33       55.045138   0.000000
   34       57.485434   0.000000
   35       58.903766   0.000000
   36       59.269139   0.000000
   37       60.746797   0.000000
   38       61.891088   0.000000
   39       63.258239   0.000000
   40       64.250788   0.000000
 
  0.4545455E+00  0.3197108E-16  0.0000000E+00  0.4507889E-02
    1        1.796777   1.000000
    2        1.992239   1.000000
    3        2.221328   1.000000
    4        4.166692   1.000000
    5        4.402656   1.000000
    6        4.710591   1.000000
    7        4.837588   1.000000
    8        6.603799  -0.000007
    9        6.995821  -0.000000
   10        7.075325  -0.000000
   11        8.023706  -0.000000
   12       11.180480  -0.000000
   13       15.082468   0.000000
   14       16.254457   0.000000
   15       19.199936   0.000000
   16       20.723702   0.000000
   17       23.071670   0.000000
   18       28.450352   0.000000
   19       29.834341   0.000000
   20       32.049925   0.000000
   21       33.826208   0.000000
   22       36.004304   0.000000
   23       37.593611   0.000000
   24       37.743811   0.000000
   25       41.340453   0.000000
   26       46.467536   0.000000
   27       48.948545   0.000000
   28       52.469509   0.000000
   29       54.004025   0.000000
   30       54.376707   0.000000
   31       54.885941   0.000000
   32       56.744788   0.000000
   33       58.047875   0.000000
   34       58.714898   0.000000
   35       59.235647   0.000000
   36       59.518004   0.000000
   37       62.851889   0.000000
   38       62.891606   0.000000
   39       63.259384   0.000000
   40       63.808931   0.000000
 
  0.9090909E-01  0.9090909E-01  0.0000000E+00  0.4507889E-02
    1       -1.542417   1.000000
    2        1.981802   1.000000
    3        3.734061   1.000000
    4        3.839400   1.000000
    5        4.435911   1.000000
    6        4.466568   1.000000
    7        5.069682   1.000000
    8        5.257977   1.000017
    9        5.287111   1.000041
   10        5.598895   1.023708
   11        6.582422  -0.000013
   12        8.659528  -0.000000
   13       12.109280   0.000000
   14       25.310731   0.000000
   15       26.320183   0.000000
   16       28.539830   0.000000
   17       30.483773   0.000000
   18       31.819176   0.000000
   19       32.017981   0.000000
   20       32.634454   0.000000
   21       33.185416   0.000000
   22       38.053694   0.000000
   23       38.670070   0.000000
   24       38.729046   0.000000
   25       40.320589   0.000000
   26       40.470691   0.000000
   27       40.888899   0.000000
   28       46.848497   0.000000
   29       47.986785   0.000000
   30       48.241367   0.000000
   31       48.326444   0.000000
   32       52.290261   0.000000
   33       53.652011   0.000000
   34       53.693962   0.000000
   35       55.035631   0.000000
   36       56.418006   0.000000
   37       57.977798   0.000000
   38       60.151402   0.000000
   39       61.569174   0.000000
   40       62.688710   0.000000
 
  0.1818182E+00  0.9090909E-01  0.0000000E+00  0.9015778E-02
    1       -0.428823   1.000000
    2        2.547191   1.000000
    3        3.082295   1.000000
    4        3.612152   1.000000
    5        4.161265   1.000000
    6        4.807604   1.000000
    7        4.849614   1.000000
    8        5.370893   1.000398
    9        5.699801   1.031654
   10        5.932866   0.429415
   11        6.560696  -0.000025
   12       10.336502  -0.000000
   13       12.353852   0.000000
   14       21.566267   0.000000
   15       24.077702   0.000000
   16       26.967771   0.000000
   17       28.956682   0.000000
   18       29.193932   0.000000
   19       31.415875   0.000000
   20       31.943756   0.000000
   21       33.119437   0.000000
   22       36.786801   0.000000
   23       37.988754   0.000000
   24       38.825587   0.000000
   25       41.924382   0.000000
   26       43.064503   0.000000
   27       44.999158   0.000000
   28       48.078615   0.000000
   29       49.866834   0.000000
   30       50.923355   0.000000
   31       51.039941   0.000000
   32       52.764711   0.000000
   33       53.969814   0.000000
   34       54.331722   0.000000
   35       55.250360   0.000000
   36       55.872048   0.000000
   37       59.131836   0.000000
   38       60.450245   0.000000
   39       62.342244   0.000000
   40       63.128780   0.000000
 
  0.2727273E+00  0.9090909E-01  0.0000000E+00  0.9015778E-02
    1        0.905651   1.000000
    2        2.539735   1.000000
    3        2.614132   1.000000
    4        3.673821   1.000000
    5        4.220138   1.000000
    6        4.486581   1.000000
    7        5.055993   1.000000
    8        5.511034   1.007358
    9        6.382332  -0.002382
   10        6.533248  -0.000057
   11        6.769683  -0.000000
   12       12.295192   0.000000
   13       12.821639   0.000000
   14       17.873824   0.000000
   15       22.462795   0.000000
   16       23.530718   0.000000
   17       25.728258   0.000000
   18       27.961889   0.000000
   19       31.069340   0.000000
   20       32.497279   0.000000
   21       32.975851   0.000000
   22       36.282563   0.000000
   23       37.214385   0.000000
   24       39.947411   0.000000
   25       43.711433   0.000000
   26       46.274151   0.000000
   27       47.162694   0.000000
   28       47.232083   0.000000
   29       49.598054   0.000000
   30       51.500303   0.000000
   31       52.337314   0.000000
   32       54.462612   0.000000
   33       55.672252   0.000000
   34       56.574385   0.000000
   35       58.366624   0.000000
   36       60.341008   0.000000
   37       60.814195   0.000000
   38       61.174382   0.000000
   39       61.663611   0.000000
   40       63.272406   0.000000
 
  0.3636364E+00  0.9090909E-01  0.0000000E+00  0.9015778E-02
    1        1.810857   1.000000
    2        2.253018   1.000000
    3        2.350015   1.000000
    4        4.008653   1.000000
    5        4.234273   1.000000
    6        4.593674   1.000000
    7        4.800075   1.000000
    8        6.366162  -0.003283
    9        6.508677  -0.000115
   10        6.841038  -0.000000
   11        7.846592  -0.000000
   12       12.463321   0.000000
   13       14.408477   0.000000
   14       16.101286   0.000000
   15       20.534541   0.000000
   16       21.141425   0.000000
   17       22.566348   0.000000
   18       27.149051   0.000000
   19       30.178225   0.000000
   20       32.040017   0.000000
   21       34.743284   0.000000
   22       36.699315   0.000000
   23       37.465964   0.000000
   24       39.199806   0.000000
   25       43.318442   0.000000
   26       46.181288   0.000000
   27       47.393159   0.000000
   28       49.567130   0.000000
   29       50.816444   0.000000
   30       53.197386   0.000000
   31       54.754231   0.000000
   32       56.644493   0.000000
   33       57.788943   0.000000
   34       58.806986   0.000000
   35       59.745529   0.000000
   36       60.679449   0.000000
   37       61.435094   0.000000
   38       62.478706   0.000000
   39       63.191224   0.000000
   40       64.050827   0.000000
 
  0.4545455E+00  0.9090909E-01  0.0000000E+00  0.4507889E-02
    1        2.043343   1.000000
    2        2.101474   1.000000
    3        2.267378   1.000000
    4        4.143430   1.000000
    5        4.401859   1.000000
    6        4.665378   1.000000
    7        4.703561   1.000000
    8        6.497998  -0.000154
    9        6.865575  -0.000000
   10        6.890232  -0.000000
   11        9.000551  -0.000000
   12       10.926802  -0.000000
   13       15.874491   0.000000
   14       16.705624   0.000000
   15       18.788554   0.000000
   16       19.974789   0.000000
   17       21.449756   0.000000
   18       26.865049   0.000000
   19       29.811429   0.000000
   20       31.893577   0.000000
   21       35.217925   0.000000
   22       37.469007   0.000000
   23       38.143292   0.000000
   24       38.903182   0.000000
   25       41.037498   0.000000
   26       46.934982   0.000000
   27       47.503321   0.000000
   28       49.876566   0.000000
   29       53.571149   0.000000
   30       54.031627   0.000000
   31       56.988857   0.000000
   32       57.154806   0.000000
   33       57.961057   0.000000
   34       58.333009   0.000000
   35       58.555594   0.000000
   36       60.266705   0.000000
   37       63.434652   0.000000
   38       63.703160   0.000000
   39       64.001503   0.000000
   40       64.650967   0.000000
 
  0.1818182E+00  0.1818182E+00  0.0000000E+00  0.4507889E-02
    1        0.791185   1.000000
    2        2.730225   1.000000
    3        3.008109   1.000000
    4        3.217389   1.000000
    5        4.197530   1.000000
    6        4.454384   1.000000
    7        5.021668   1.000000
    8        5.152497   1.000000
    9        6.357398  -0.003881
   10        6.441677  -0.000642
   11        6.834913  -0.000000
   12       12.049924   0.000000
   13       12.902209   0.000000
   14       19.701181   0.000000
   15       20.288595   0.000000
   16       25.247903   0.000000
   17       26.206184   0.000000
   18       27.993649   0.000000
   19       28.481199   0.000000
   20       32.461210   0.000000
   21       34.766121   0.000000
   22       38.042613   0.000000
   23       38.789821   0.000000
   24       41.203443   0.000000
   25       42.051272   0.000000
   26       43.733779   0.000000
   27       44.540741   0.000000
   28       48.294873   0.000000
   29       50.409347   0.000000
   30       50.618363   0.000000
   31       51.012771   0.000000
   32       54.971568   0.000000
   33       55.646805   0.000000
   34       58.186433   0.000000
   35       58.478325   0.000000
   36       59.102005   0.000000
   37       59.593965   0.000000
   38       62.100385   0.000000
   39       62.666175   0.000000
   40       63.114177   0.000000
 
  0.2727273E+00  0.1818182E+00  0.0000000E+00  0.9015778E-02
    1        1.996247   1.000000
    2        2.531379   1.000000
    3        2.761026   1.000000
    4        3.395756   1.000000
    5        4.204001   1.000000
    6        4.457544   1.000000
    7        4.791710   1.000000
    8        5.544627   1.012322
    9        6.337668  -0.005558
   10        6.766070  -0.000000
   11        7.996129  -0.000000
   12       13.683214   0.000000
   13       14.081467   0.000000
   14       16.693414   0.000000
   15       18.783124   0.000000
   16       22.446990   0.000000
   17       24.493137   0.000000
   18       24.794639   0.000000
   19       27.231390   0.000000
   20       34.653246   0.000000
   21       35.251832   0.000000
   22       38.012825   0.000000
   23       40.573537   0.000000
   24       41.903733   0.000000
   25       42.480347   0.000000
   26       44.729557   0.000000
   27       45.639924   0.000000
   28       46.306964   0.000000
   29       49.598306   0.000000
   30       50.431798   0.000000
   31       53.386163   0.000000
   32       57.032520   0.000000
   33       58.111122   0.000000
   34       59.393959   0.000000
   35       61.565220   0.000000
   36       61.567288   0.000000
   37       61.899629   0.000000
   38       62.491879   0.000000
   39       63.557044   0.000000
   40       63.922227   0.000000
 
  0.3636364E+00  0.1818182E+00  0.0000000E+00  0.9015778E-02
    1        2.459235   1.000000
    2        2.464646   1.000000
    3        2.550012   1.000000
    4        3.839542   1.000000
    5        4.141465   1.000000
    6        4.469209   1.000000
    7        4.712059   1.000000
    8        6.193680  -0.032209
    9        6.280601  -0.013585
   10        6.737193  -0.000000
   11        9.506755  -0.000000
   12       12.319253   0.000000
   13       16.200061   0.000000
   14       16.797196   0.000000
   15       17.932648   0.000000
   16       19.771683   0.000000
   17       21.566289   0.000000
   18       24.268980   0.000000
   19       26.610498   0.000000
   20       35.336067   0.000000
   21       36.929582   0.000000
   22       38.273908   0.000000
   23       39.665898   0.000000
   24       40.620350   0.000000
   25       43.691450   0.000000
   26       44.943228   0.000000
   27       46.364731   0.000000
   28       47.377797   0.000000
   29       50.447892   0.000000
   30       52.278731   0.000000
   31       53.234318   0.000000
   32       56.651451   0.000000
   33       57.144604   0.000000
   34       58.802315   0.000000
   35       61.580185   0.000000
   36       62.816584   0.000000
   37       63.275395   0.000000
   38       64.166820   0.000000
   39       64.360298   0.000000
   40       64.774479   0.000000
 
  0.2727273E+00  0.2727273E+00  0.0000000E+00  0.4507889E-02
    1        2.591814   1.000000
    2        2.812504   1.000000
    3        3.081973   1.000000
    4        3.160995   1.000000
    5        4.063531   1.000000
    6        4.415202   1.000000
    7        4.729833   1.000000
    8        5.781884   0.949405
    9        6.164231  -0.035420
   10        6.698340  -0.000000
   11        9.624496  -0.000000
   12       14.314894   0.000000
   13       14.998121   0.000000
   14       16.222507   0.000000
   15       17.346766   0.000000
   16       21.653622   0.000000
   17       21.918322   0.000000
   18       23.301781   0.000000
   19       24.083750   0.000000
   20       36.507760   0.000000
   21       37.100476   0.000000
   22       41.068354   0.000000
   23       42.040693   0.000000
   24       42.126695   0.000000
   25       42.181975   0.000000
   26       43.196493   0.000000
   27       45.218173   0.000000
   28       47.582982   0.000000
   29       47.758185   0.000000
   30       52.179120   0.000000
   31       52.582532   0.000000
   32       54.423085   0.000000
   33       56.986830   0.000000
   34       59.017969   0.000000
   35       62.788274   0.000000
   36       63.563968   0.000000
   37       63.813151   0.000000
   38       64.442553   0.000000
   39       64.960198   0.000000
   40       65.099658   0.000000
 
  0.3636364E+00  0.2727273E+00  0.0000000E+00  0.4507889E-02
    1        2.653665   1.000000
    2        2.965084   1.000000
    3        2.996911   1.000000
    4        3.450641   1.000000
    5        4.119420   1.000000
    6        4.128648   1.000000
    7        4.856220   1.000000
    8        6.095727  -0.011055
    9        6.119553  -0.026818
   10        6.397212  -0.001748
   11       11.363572  -0.000000
   12       12.463629   0.000000
   13       14.615834   0.000000
   14       18.090516   0.000000
   15       18.316564   0.000000
   16       19.559684   0.000000
   17       21.575136   0.000000
   18       21.630256   0.000000
   19       23.512311   0.000000
   20       36.921763   0.000000
   21       39.619467   0.000000
   22       40.095049   0.000000
   23       41.166593   0.000000
   24       41.437006   0.000000
   25       43.017675   0.000000
   26       43.961170   0.000000
   27       47.010223   0.000000
   28       47.693600   0.000000
   29       47.882309   0.000000
   30       51.311144   0.000000
   31       52.458296   0.000000
   32       52.846082   0.000000
   33       56.425756   0.000000
   34       57.067418   0.000000
   35       63.524174   0.000000
   36       64.233212   0.000000
   37       64.624658   0.000000
   38       65.006808   0.000000
   39       65.016870   0.000000
   40       65.383613   0.000000
 
  0.0000000E+00  0.0000000E+00  0.9090909E-01  0.1502630E-02
    1       -2.391167   1.000000
    2        1.270250   1.000000
    3        3.809066   1.000000
    4        4.536730   1.000000
    5        4.536904   1.000000
    6        4.763266   1.000000
    7        4.763444   1.000000
    8        4.852009   1.000000
    9        5.768499   0.972475
   10        5.768541   0.972410
   11        6.553674  -0.000031
   12        6.553717  -0.000031
   13       12.349197   0.000000
   14       26.753573   0.000000
   15       28.981015   0.000000
   16       31.361880   0.000000
   17       33.405762   0.000000
   18       33.405814   0.000000
   19       34.011342   0.000000
   20       34.209081   0.000000
   21       34.209304   0.000000
   22       37.019401   0.000000
   23       37.019416   0.000000
   24       38.256347   0.000000
   25       39.768027   0.000000
   26       39.768042   0.000000
   27       40.206820   0.000000
   28       43.557707   0.000000
   29       43.558080   0.000000
   30       45.306972   0.000000
   31       45.307116   0.000000
   32       46.817600   0.000000
   33       53.834758   0.000000
   34       57.785679   0.000000
   35       57.785905   0.000000
   36       57.923227   0.000000
   37       58.446467   0.000000
   38       58.447384   0.000000
   39       60.194881   0.000000
   40       60.454036   0.000000
 
  0.9090909E-01  0.8937737E-17  0.9090909E-01  0.9015778E-02
    1       -2.078835   1.000000
    2        1.514071   1.000000
    3        3.866092   1.000000
    4        4.254242   1.000000
    5        4.436501   1.000000
    6        4.683704   1.000000
    7        4.709491   1.000000
    8        4.926076   1.000000
    9        5.628239   1.030247
   10        5.679968   1.035141
   11        6.573572  -0.000017
   12        7.355378  -0.000000
   13       12.418508   0.000000
   14       27.056199   0.000000
   15       27.513151   0.000000
   16       29.760693   0.000000
   17       30.782337   0.000000
   18       32.484100   0.000000
   19       33.592635   0.000000
   20       33.964779   0.000000
   21       36.053341   0.000000
   22       36.574921   0.000000
   23       37.143049   0.000000
   24       37.832453   0.000000
   25       40.664133   0.000000
   26       40.923659   0.000000
   27       41.613585   0.000000
   28       42.202102   0.000000
   29       44.623481   0.000000
   30       46.410069   0.000000
   31       47.730606   0.000000
   32       49.116776   0.000000
   33       52.943733   0.000000
   34       56.168331   0.000000
   35       56.445690   0.000000
   36       57.157734   0.000000
   37       58.355678   0.000000
   38       59.557514   0.000000
   39       60.076199   0.000000
   40       61.546528   0.000000
 
  0.1818182E+00 -0.3829387E-17  0.9090909E-01  0.9015778E-02
    1       -1.190919   1.000000
    2        2.103162   1.000000
    3        3.447677   1.000000
    4        3.830965   1.000000
    5        4.222312   1.000000
    6        4.671919   1.000000
    7        5.174153   1.000001
    8        5.321356   1.000108
    9        5.359926   1.000301
   10        5.498529   1.005955
   11        6.601209  -0.000007
   12        8.776335  -0.000000
   13       12.676278   0.000000
   14       23.547433   0.000000
   15       27.683897   0.000000
   16       28.108755   0.000000
   17       28.494470   0.000000
   18       29.175633   0.000000
   19       32.559899   0.000000
   20       34.220825   0.000000
   21       34.429582   0.000000
   22       34.792078   0.000000
   23       37.994423   0.000000
   24       38.414756   0.000000
   25       41.358977   0.000000
   26       42.564359   0.000000
   27       43.907075   0.000000
   28       46.023428   0.000000
   29       46.917120   0.000000
   30       49.871450   0.000000
   31       50.569781   0.000000
   32       51.393330   0.000000
   33       52.522308   0.000000
   34       54.530478   0.000000
   35       54.603922   0.000000
   36       56.503785   0.000000
   37       58.409524   0.000000
   38       59.797715   0.000000
   39       60.460920   0.000000
   40       63.332134   0.000000
 
  0.2727273E+00 -0.8769438E-17  0.9090909E-01  0.9015778E-02
    1        0.084857   1.000000
    2        2.434254   1.000000
    3        2.835780   1.000000
    4        3.813501   1.000000
    5        4.036303   1.000000
    6        4.798933   1.000000
    7        5.187462   1.000002
    8        5.412104   1.001058
    9        5.890045   0.609297
   10        6.012631   0.139633
   11        6.607183  -0.000006
   12       10.294556  -0.000000
   13       13.284810   0.000000
   14       19.579211   0.000000
   15       24.636450   0.000000
   16       25.844743   0.000000
   17       26.882175   0.000000
   18       29.158765   0.000000
   19       30.913058   0.000000
   20       32.726908   0.000000
   21       33.453279   0.000000
   22       35.328573   0.000000
   23       36.167325   0.000000
   24       38.889107   0.000000
   25       44.926570   0.000000
   26       45.353718   0.000000
   27       46.669059   0.000000
   28       47.148585   0.000000
   29       49.670793   0.000000
   30       50.606595   0.000000
   31       51.686943   0.000000
   32       52.692043   0.000000
   33       53.677965   0.000000
   34       55.088050   0.000000
   35       56.772773   0.000000
   36       57.830713   0.000000
   37       59.624813   0.000000
   38       60.256920   0.000000
   39       61.528588   0.000000
   40       63.365977   0.000000
 
  0.3636364E+00 -0.4733814E-16  0.9090909E-01  0.9015778E-02
    1        1.255538   1.000000
    2        2.199336   1.000000
    3        2.489455   1.000000
    4        3.725925   1.000000
    5        4.472324   1.000000
    6        4.652848   1.000000
    7        4.984686   1.000000
    8        6.444140  -0.000605
    9        6.532051  -0.000059
   10        6.581424  -0.000013
   11        6.692436  -0.000000
   12       11.573117   0.000000
   13       14.179156   0.000000
   14       16.574833   0.000000
   15       21.371201   0.000000
   16       23.953657   0.000000
   17       24.130915   0.000000
   18       28.915778   0.000000
   19       30.076789   0.000000
   20       32.133021   0.000000
   21       33.390220   0.000000
   22       35.081899   0.000000
   23       36.454777   0.000000
   24       38.920892   0.000000
   25       43.576972   0.000000
   26       47.788387   0.000000
   27       47.914440   0.000000
   28       50.340470   0.000000
   29       50.483375   0.000000
   30       52.689505   0.000000
   31       52.844679   0.000000
   32       54.694992   0.000000
   33       55.528008   0.000000
   34       56.998133   0.000000
   35       59.453067   0.000000
   36       59.675426   0.000000
   37       60.680356   0.000000
   38       61.637328   0.000000
   39       63.591346   0.000000
   40       64.252098   0.000000
 
  0.4545455E+00  0.3197108E-16  0.9090909E-01  0.9015778E-02
    1        1.734257   1.000000
    2        1.944715   1.000000
    3        2.373560   1.000000
    4        3.784406   1.000000
    5        4.613918   1.000000
    6        4.868007   1.000000
    7        4.970576   1.000000
    8        6.559539  -0.000026
    9        6.998372  -0.000000
   10        7.075285  -0.000000
   11        7.948075  -0.000000
   12       11.007883  -0.000000
   13       14.933958   0.000000
   14       16.356910   0.000000
   15       19.208806   0.000000
   16       21.140442   0.000000
   17       23.181658   0.000000
   18       28.428567   0.000000
   19       29.814773   0.000000
   20       31.284387   0.000000
   21       34.638775   0.000000