       N       E                     dE             d eps       ncg     rms          rms(c)
DAV:   1     0.622656057209E+02    0.62266E+02   -0.28413E+03  9136   0.315E+02
DAV:   2    -0.142646804721E+02   -0.76530E+02   -0.64572E+02  7936   0.944E+01
DAV:   3    -0.190507450387E+02   -0.47861E+01   -0.44901E+01  9440   0.246E+01
DAV:   4    -0.190765209593E+02   -0.25776E-01   -0.25755E-01  9184   0.189E+00
DAV:   5    -0.190765711828E+02   -0.50224E-04   -0.50221E-04  9288   0.784E-02    0.157E+01
DAV:   6    -0.162283661826E+02    0.28482E+01   -0.22882E+00 11120   0.267E+01    0.385E+00
DAV:   7    -0.159120216356E+02    0.31634E+00   -0.19862E-01 10152   0.709E+00    0.100E+00
DAV:   8    -0.158877373274E+02    0.24284E-01   -0.52435E-03 10168   0.486E-01    0.456E-01
DAV:   9    -0.158774982818E+02    0.10239E-01   -0.88167E-04 11360   0.171E-01    0.664E-02
DAV:  10    -0.158775222586E+02   -0.23977E-04   -0.41913E-05  9240   0.253E-02    0.311E-02
DAV:  11    -0.158775185412E+02    0.37174E-05   -0.68886E-07  9384   0.580E-03    0.163E-03
DAV:  12    -0.158775183253E+02    0.21583E-06   -0.26218E-08  5960   0.808E-04
   1 F= -.15877518E+02 E0= -.15878733E+02  d E =0.364543E-02
