 vasp.6.2.0 18Jan21 (build Mar 17 2021 09:06:54) complex                        
  
 executed on             LinuxIFC date 2021.09.09  12:11:04
 serial version


--------------------------------------------------------------------------------------------------------


 INCAR:
   ENCUT = 280.000000
   SIGMA = 0.200000
   EDIFF = 1.00e-06
   GGA = PE
   PREC = normal
   IBRION = 1
   ICHARG = 1
   ISIF = 2
   ISMEAR = 1
   KPAR = 1
   NBANDS = 40
   NSW = 0
   NCORE = 1
   LCHARG = .TRUE.

 POTCAR:    PAW_PBE Fe 06Sep2000                  
 POTCAR:    PAW_PBE Fe 06Sep2000                  
   SHA256 =  cd5a22d9368cc8b5cc476bea79732366149640da08ac9009b0e1b7fc627eea28 Fe/POTCAR             
   COPYR  = (c) Copyright 06Sep2000 Georg Kresse                                                    
   COPYR  = This file is part of the software VASP. Any use, copying, and all other rights are regul
   COPYR  = If you do not have a valid VASP license, you may not use, copy or distribute this file. 
   VRHFIN =Fe:  d7 s1                                                                               
   LEXCH  = PE                                                                                      
   EATOM  =   594.3153 eV,   43.6809 Ry                                                             
                                                                                                    
   TITEL  = PAW_PBE Fe 06Sep2000                                                                    
   LULTRA =        F    use ultrasoft PP ?                                                          
   IUNSCR =        1    unscreen: 0-lin 1-nonlin 2-no                                               
   RPACOR =    2.000    partial core radius                                                         
   POMASS =   55.847; ZVAL   =    8.000    mass and valenz                                          
   RCORE  =    2.300    outmost cutoff radius                                                       
   RWIGS  =    2.460; RWIGS  =    1.302    wigner-seitz radius (au A)                               
   ENMAX  =  267.882; ENMIN  =  200.911 eV                                                          
   RCLOC  =    1.701    cutoff for local pot                                                        
   LCOR   =        T    correct aug charges                                                         
   LPAW   =        T    paw PP                                                                      
   EAUG   =  511.368                                                                                
   DEXC   =    0.000                                                                                
   RMAX   =    2.356    core radius for proj-oper                                                   
   RAUG   =    1.300    factor for augmentation sphere                                              
   RDEP   =    2.442    radius for radial grids                                                     
   RDEPT  =    1.890    core radius for aug-charge                                                  
                                                                                                    
   Atomic configuration                                                                             
    9 entries                                                                                       
     n  l   j            E        occ.                                                              
     1  0  0.50     -6993.8440   2.0000                                                             
     2  0  0.50      -814.6047   2.0000                                                             
     2  1  1.50      -693.3689   6.0000                                                             
     3  0  0.50       -89.4732   2.0000                                                             
     3  1  1.50       -55.6373   6.0000                                                             
     3  2  2.50        -3.8151   7.0000                                                             
     4  0  0.50        -4.2551   1.0000                                                             
     4  1  1.50        -3.4015   0.0000                                                             
     4  3  2.50        -1.3606   0.0000                                                             
   Description                                                                                      
     l       E           TYP  RCUT    TYP  RCUT                                                     
     2     -3.8151135     23  2.300                                                                 
     2     -5.1756961     23  2.300                                                                 
     0     -4.2550963     23  2.300                                                                 
     0      7.2035603     23  2.300                                                                 
     1     -2.7211652     23  2.300                                                                 
     1     18.4316424     23  2.300                                                                 
  local pseudopotential read in
  partial core-charges read in
  partial kinetic energy density read in
  atomic valenz-charges read in
  non local Contribution for L=           2  read in
    real space projection operators read in
  non local Contribution for L=           2  read in
    real space projection operators read in
  non local Contribution for L=           0  read in
    real space projection operators read in
  non local Contribution for L=           0  read in
    real space projection operators read in
  non local Contribution for L=           1  read in
    real space projection operators read in
  non local Contribution for L=           1  read in
    real space projection operators read in
    PAW grid and wavefunctions read in
 
   number of l-projection  operators is LMAX  =           6
   number of lm-projection operators is LMMAX =          18
 
  PAW_PBE Fe 06Sep2000                  :
 energy of atom  1       EATOM= -594.3153
 kinetic energy error for atom=    0.0278 (will be added to EATOM!!)
 
 
 POSCAR: Fe
  positions in cartesian coordinates
  No initial velocities read in
 exchange correlation table for  LEXCH =        8
   RHO(1)=    0.500       N(1)  =     2000
   RHO(2)=  100.500       N(2)  =     4000
 


--------------------------------------------------------------------------------------------------------


 ion  position               nearest neighbor table
   1  0.000  0.000  0.000-   2 2.60   2 2.60   2 2.60   2 2.60   2 2.60   2 2.60
   2  0.333  0.667  0.500-   1 2.60   1 2.60   1 2.60   1 2.60   1 2.60   1 2.60
 
  LATTYP: Found a hexagonal cell.
 ALAT       =     2.4232000000
 C/A-ratio  =     1.8124463519
  
  Lattice vectors:
  
 A1 = (   2.4232000000,   0.0000000000,   0.0000000000)
 A2 = (  -1.2116000000,   2.0985527585,   0.0000000000)
 A3 = (   0.0000000000,   0.0000000000,   4.3919200000)


Analysis of symmetry for initial positions (statically):
=====================================================================
 Subroutine PRICEL returns:
 Original cell was already a primitive cell.
 

 Routine SETGRP: Setting up the symmetry group for a 
 hexagonal supercell.


 Subroutine GETGRP returns: Found 24 space group operations
 (whereof 12 operations were pure point group operations)
 out of a pool of 24 trial point group operations.


The static configuration has the point symmetry D_3h.
 The point group associated with its full space group is D_6h.


Analysis of symmetry for dynamics (positions and initial velocities):
=====================================================================
 Subroutine PRICEL returns:
 Original cell was already a primitive cell.
 

 Routine SETGRP: Setting up the symmetry group for a 
 hexagonal supercell.


 Subroutine GETGRP returns: Found 24 space group operations
 (whereof 12 operations were pure point group operations)
 out of a pool of 24 trial point group operations.


The dynamic configuration has the point symmetry D_3h.
 The point group associated with its full space group is D_6h.


 Subroutine INISYM returns: Found 24 space group operations
 (whereof 12 operations are pure point group operations),
 and found     1 'primitive' translations


----------------------------------------------------------------------------------------

                                     Primitive cell                                     

  volume of cell :      22.3338

  direct lattice vectors                    reciprocal lattice vectors
     2.423200000  0.000000000  0.000000000     0.412677451  0.238259438  0.000000000
    -1.211600000  2.098552758  0.000000000     0.000000000  0.476518875  0.000000000
     0.000000000  0.000000000  4.391920000     0.000000000  0.000000000  0.227690850

  length of vectors
     2.423200000  2.423200000  4.391920000     0.476518875  0.476518875  0.227690850

  position of ions in fractional coordinates (direct lattice)
     0.000000000  0.000000000  0.000000000
     0.333333333  0.666666667  0.500000000

  ion indices of the primitive-cell ions
   primitive index   ion index
                 1           1
                 2           2

----------------------------------------------------------------------------------------

 
 
 KPOINTS: KPOINTS created by Atomic Simulation Env

Automatic generation of k-mesh.
 Grid dimensions read from file:
 generate k-points for:   11   11   11

 Generating k-lattice:

  Cartesian coordinates                     Fractional coordinates (reciprocal lattice)
     0.037516132  0.021659949  0.000000000     0.090909091  0.000000000  0.000000000
     0.000000000  0.043319898  0.000000000     0.000000000  0.090909091  0.000000000
     0.000000000  0.000000000  0.020699168     0.000000000  0.000000000  0.090909091

  Length of vectors
     0.043319898  0.043319898  0.020699168

  Shift w.r.t. Gamma in fractional coordinates (k-lattice)
     0.000000000  0.000000000  0.000000000

 
 Subroutine IBZKPT returns following result:
 ===========================================
 
 Found     96 irreducible k-points:
 
 Following reciprocal coordinates:
            Coordinates               Weight
  0.000000  0.000000  0.000000      1.000000
  0.090909  0.000000  0.000000      6.000000
  0.181818 -0.000000  0.000000      6.000000
  0.272727 -0.000000  0.000000      6.000000
  0.363636 -0.000000  0.000000      6.000000
  0.454545  0.000000  0.000000      6.000000
  0.090909  0.090909  0.000000      6.000000
  0.181818  0.090909  0.000000     12.000000
  0.272727  0.090909  0.000000     12.000000
  0.363636  0.090909  0.000000     12.000000
  0.454545  0.090909  0.000000      6.000000
  0.181818  0.181818  0.000000      6.000000
  0.272727  0.181818  0.000000     12.000000
  0.363636  0.181818  0.000000     12.000000
  0.272727  0.272727  0.000000      6.000000
  0.363636  0.272727  0.000000      6.000000
  0.000000  0.000000  0.090909      2.000000
  0.090909  0.000000  0.090909     12.000000
  0.181818 -0.000000  0.090909     12.000000
  0.272727 -0.000000  0.090909     12.000000
  0.363636 -0.000000  0.090909     12.000000
  0.454545  0.000000  0.090909     12.000000
  0.090909  0.090909  0.090909     12.000000
  0.181818  0.090909  0.090909     24.000000
  0.272727  0.090909  0.090909     24.000000
  0.363636  0.090909  0.090909     24.000000
  0.454545  0.090909  0.090909     12.000000
  0.181818  0.181818  0.090909     12.000000
  0.272727  0.181818  0.090909     24.000000
  0.363636  0.181818  0.090909     24.000000
  0.272727  0.272727  0.090909     12.000000
  0.363636  0.272727  0.090909     12.000000
  0.000000  0.000000  0.181818      2.000000
  0.090909  0.000000  0.181818     12.000000
  0.181818 -0.000000  0.181818     12.000000
  0.272727 -0.000000  0.181818     12.000000
  0.363636 -0.000000  0.181818     12.000000
  0.454545  0.000000  0.181818     12.000000
  0.090909  0.090909  0.181818     12.000000
  0.181818  0.090909  0.181818     24.000000
  0.272727  0.090909  0.181818     24.000000
  0.363636  0.090909  0.181818     24.000000
  0.454545  0.090909  0.181818     12.000000
  0.181818  0.181818  0.181818     12.000000
  0.272727  0.181818  0.181818     24.000000
  0.363636  0.181818  0.181818     24.000000
  0.272727  0.272727  0.181818     12.000000
  0.363636  0.272727  0.181818     12.000000
  0.000000  0.000000  0.272727      2.000000
  0.090909  0.000000  0.272727     12.000000
  0.181818 -0.000000  0.272727     12.000000
  0.272727 -0.000000  0.272727     12.000000
  0.363636 -0.000000  0.272727     12.000000
  0.454545  0.000000  0.272727     12.000000
  0.090909  0.090909  0.272727     12.000000
  0.181818  0.090909  0.272727     24.000000
  0.272727  0.090909  0.272727     24.000000
  0.363636  0.090909  0.272727     24.000000
  0.454545  0.090909  0.272727     12.000000
  0.181818  0.181818  0.272727     12.000000
  0.272727  0.181818  0.272727     24.000000
  0.363636  0.181818  0.272727     24.000000
  0.272727  0.272727  0.272727     12.000000
  0.363636  0.272727  0.272727     12.000000
  0.000000  0.000000  0.363636      2.000000
  0.090909  0.000000  0.363636     12.000000
  0.181818 -0.000000  0.363636     12.000000
  0.272727 -0.000000  0.363636     12.000000
  0.363636 -0.000000  0.363636     12.000000
  0.454545  0.000000  0.363636     12.000000
  0.090909  0.090909  0.363636     12.000000
  0.181818  0.090909  0.363636     24.000000
  0.272727  0.090909  0.363636     24.000000
  0.363636  0.090909  0.363636     24.000000
  0.454545  0.090909  0.363636     12.000000
  0.181818  0.181818  0.363636     12.000000
  0.272727  0.181818  0.363636     24.000000
  0.363636  0.181818  0.363636     24.000000
  0.272727  0.272727  0.363636     12.000000
  0.363636  0.272727  0.363636     12.000000
  0.000000  0.000000  0.454545      2.000000
  0.090909  0.000000  0.454545     12.000000
  0.181818 -0.000000  0.454545     12.000000
  0.272727 -0.000000  0.454545     12.000000
  0.363636 -0.000000  0.454545     12.000000
  0.454545  0.000000  0.454545     12.000000
  0.090909  0.090909  0.454545     12.000000
  0.181818  0.090909  0.454545     24.000000
  0.272727  0.090909  0.454545     24.000000
  0.363636  0.090909  0.454545     24.000000
  0.454545  0.090909  0.454545     12.000000
  0.181818  0.181818  0.454545     12.000000
  0.272727  0.181818  0.454545     24.000000
  0.363636  0.181818  0.454545     24.000000
  0.272727  0.272727  0.454545     12.000000
  0.363636  0.272727  0.454545     12.000000
 
 Following cartesian coordinates:
            Coordinates               Weight
  0.000000  0.000000  0.000000      1.000000
  0.037516  0.021660  0.000000      6.000000
  0.075032  0.043320  0.000000      6.000000
  0.112548  0.064980  0.000000      6.000000
  0.150065  0.086640  0.000000      6.000000
  0.187581  0.108300  0.000000      6.000000
  0.037516  0.064980  0.000000      6.000000
  0.075032  0.086640  0.000000     12.000000
  0.112548  0.108300  0.000000     12.000000
  0.150065  0.129960  0.000000     12.000000
  0.187581  0.151620  0.000000      6.000000
  0.075032  0.129960  0.000000      6.000000
  0.112548  0.151620  0.000000     12.000000
  0.150065  0.173280  0.000000     12.000000
  0.112548  0.194940  0.000000      6.000000
  0.150065  0.216599  0.000000      6.000000
  0.000000  0.000000  0.020699      2.000000
  0.037516  0.021660  0.020699     12.000000
  0.075032  0.043320  0.020699     12.000000
  0.112548  0.064980  0.020699     12.000000
  0.150065  0.086640  0.020699     12.000000
  0.187581  0.108300  0.020699     12.000000
  0.037516  0.064980  0.020699     12.000000
  0.075032  0.086640  0.020699     24.000000
  0.112548  0.108300  0.020699     24.000000
  0.150065  0.129960  0.020699     24.000000
  0.187581  0.151620  0.020699     12.000000
  0.075032  0.129960  0.020699     12.000000
  0.112548  0.151620  0.020699     24.000000
  0.150065  0.173280  0.020699     24.000000
  0.112548  0.194940  0.020699     12.000000
  0.150065  0.216599  0.020699     12.000000
  0.000000  0.000000  0.041398      2.000000
  0.037516  0.021660  0.041398     12.000000
  0.075032  0.043320  0.041398     12.000000
  0.112548  0.064980  0.041398     12.000000
  0.150065  0.086640  0.041398     12.000000
  0.187581  0.108300  0.041398     12.000000
  0.037516  0.064980  0.041398     12.000000
  0.075032  0.086640  0.041398     24.000000
  0.112548  0.108300  0.041398     24.000000
  0.150065  0.129960  0.041398     24.000000
  0.187581  0.151620  0.041398     12.000000
  0.075032  0.129960  0.041398     12.000000
  0.112548  0.151620  0.041398     24.000000
  0.150065  0.173280  0.041398     24.000000
  0.112548  0.194940  0.041398     12.000000
  0.150065  0.216599  0.041398     12.000000
  0.000000  0.000000  0.062098      2.000000
  0.037516  0.021660  0.062098     12.000000
  0.075032  0.043320  0.062098     12.000000
  0.112548  0.064980  0.062098     12.000000
  0.150065  0.086640  0.062098     12.000000
  0.187581  0.108300  0.062098     12.000000
  0.037516  0.064980  0.062098     12.000000
  0.075032  0.086640  0.062098     24.000000
  0.112548  0.108300  0.062098     24.000000
  0.150065  0.129960  0.062098     24.000000
  0.187581  0.151620  0.062098     12.000000
  0.075032  0.129960  0.062098     12.000000
  0.112548  0.151620  0.062098     24.000000
  0.150065  0.173280  0.062098     24.000000
  0.112548  0.194940  0.062098     12.000000
  0.150065  0.216599  0.062098     12.000000
  0.000000  0.000000  0.082797      2.000000
  0.037516  0.021660  0.082797     12.000000
  0.075032  0.043320  0.082797     12.000000
  0.112548  0.064980  0.082797     12.000000
  0.150065  0.086640  0.082797     12.000000
  0.187581  0.108300  0.082797     12.000000
  0.037516  0.064980  0.082797     12.000000
  0.075032  0.086640  0.082797     24.000000
  0.112548  0.108300  0.082797     24.000000
  0.150065  0.129960  0.082797     24.000000
  0.187581  0.151620  0.082797     12.000000
  0.075032  0.129960  0.082797     12.000000
  0.112548  0.151620  0.082797     24.000000
  0.150065  0.173280  0.082797     24.000000
  0.112548  0.194940  0.082797     12.000000
  0.150065  0.216599  0.082797     12.000000
  0.000000  0.000000  0.103496      2.000000
  0.037516  0.021660  0.103496     12.000000
  0.075032  0.043320  0.103496     12.000000
  0.112548  0.064980  0.103496     12.000000
  0.150065  0.086640  0.103496     12.000000
  0.187581  0.108300  0.103496     12.000000
  0.037516  0.064980  0.103496     12.000000
  0.075032  0.086640  0.103496     24.000000
  0.112548  0.108300  0.103496     24.000000
  0.150065  0.129960  0.103496     24.000000
  0.187581  0.151620  0.103496     12.000000
  0.075032  0.129960  0.103496     12.000000
  0.112548  0.151620  0.103496     24.000000
  0.150065  0.173280  0.103496     24.000000
  0.112548  0.194940  0.103496     12.000000
  0.150065  0.216599  0.103496     12.000000
 


--------------------------------------------------------------------------------------------------------




 Dimension of arrays:
   k-points           NKPTS =     96   k-points in BZ     NKDIM =     96   number of bands    NBANDS=     40
   number of dos      NEDOS =    301   number of ions     NIONS =      2
   non local maximal  LDIM  =      6   non local SUM 2l+1 LMDIM =     18
   total plane-waves  NPLWV =   1800
   max r-space proj   IRMAX =      1   max aug-charges    IRDMAX=   3070
   dimension x,y,z NGX =    10 NGY =   10 NGZ =   18
   dimension x,y,z NGXF=    20 NGYF=   20 NGZF=   36
   support grid    NGXF=    20 NGYF=   20 NGZF=   36
   ions per type =               2
   NGX,Y,Z   is equivalent  to a cutoff of   6.86,  6.86,  6.81 a.u.
   NGXF,Y,Z  is equivalent  to a cutoff of  13.72, 13.72, 13.63 a.u.

 SYSTEM =  unknown system                          
 POSCAR =  Fe                                      

 Startparameter for this run:
   NWRITE =      2    write-flag & timer
   PREC   = normal    normal or accurate (medium, high low for compatibility)
   ISTART =      0    job   : 0-new  1-cont  2-samecut
   ICHARG =      1    charge: 1-file 2-atom 10-const
   ISPIN  =      1    spin polarized calculation?
   LNONCOLLINEAR =      F non collinear calculations
   LSORBIT =      F    spin-orbit coupling
   INIWAV =      1    electr: 0-lowe 1-rand  2-diag
   LASPH  =      F    aspherical Exc in radial PAW
   METAGGA=      F    non-selfconsistent MetaGGA calc.

 Electronic Relaxation 1
   ENCUT  =  280.0 eV  20.58 Ry    4.54 a.u.   3.31  3.31  5.99*2*pi/ulx,y,z
   ENINI  =  280.0     initial cutoff
   ENAUG  =  511.4 eV  augmentation charge cutoff
   NELM   =     60;   NELMIN=  2; NELMDL= -5     # of ELM steps 
   EDIFF  = 0.1E-05   stopping-criterion for ELM
   LREAL  =      F    real-space projection
   NLSPLINE    = F    spline interpolate recip. space projectors
   LCOMPAT=      F    compatible to vasp.4.4
   GGA_COMPAT  = T    GGA compatible to vasp.4.4-vasp.4.6
   LMAXPAW     = -100 max onsite density
   LMAXMIX     =    2 max onsite mixed and CHGCAR
   VOSKOWN=      0    Vosko Wilk Nusair interpolation
   ROPT   =    0.00000
 Ionic relaxation
   EDIFFG = 0.1E-04   stopping-criterion for IOM
   NSW    =      0    number of steps for IOM
   NBLOCK =      1;   KBLOCK =      1    inner block; outer block 
   IBRION =     -1    ionic relax: 0-MD 1-quasi-New 2-CG
   NFREE  =      0    steps in history (QN), initial steepest desc. (CG)
   ISIF   =      2    stress and relaxation
   IWAVPR =      0    prediction:  0-non 1-charg 2-wave 3-comb
   ISYM   =      2    0-nonsym 1-usesym 2-fastsym
   LCORR  =      T    Harris-Foulkes like correction to forces

   POTIM  = 0.5000    time-step for ionic-motion
   TEIN   =    0.0    initial temperature
   TEBEG  =    0.0;   TEEND  =   0.0 temperature during run
   SMASS  =  -3.00    Nose mass-parameter (am)
   estimated Nose-frequenzy (Omega)   =  0.10E-29 period in steps = 0.13E+47 mass=  -0.134E-27a.u.
   SCALEE = 1.0000    scale energy and forces
   NPACO  =    256;   APACO  = 16.0  distance and # of slots for P.C.
   PSTRESS=    0.0 pullay stress

  Mass of Ions in am
   POMASS =  55.85
  Ionic Valenz
   ZVAL   =   8.00
  Atomic Wigner-Seitz radii
   RWIGS  =  -1.00
  virtual crystal weights 
   VCA    =   1.00
   NELECT =      16.0000    total number of electrons
   NUPDOWN=      -1.0000    fix difference up-down

 DOS related values:
   EMIN   =  10.00;   EMAX   =-10.00  energy-range for DOS
   EFERMI =   0.00
   ISMEAR =     1;   SIGMA  =   0.20  broadening in eV -4-tet -1-fermi 0-gaus

 Electronic relaxation 2 (details)
   IALGO  =     38    algorithm
   LDIAG  =      T    sub-space diagonalisation (order eigenvalues)
   LSUBROT=      F    optimize rotation matrix (better conditioning)
   TURBO    =      0    0=normal 1=particle mesh
   IRESTART =      0    0=no restart 2=restart with 2 vectors
   NREBOOT  =      0    no. of reboots
   NMIN     =      0    reboot dimension
   EREF     =   0.00    reference energy to select bands
   IMIX   =      4    mixing-type and parameters
     AMIX     =   0.40;   BMIX     =  1.00
     AMIX_MAG =   1.60;   BMIX_MAG =  1.00
     AMIN     =   0.10
     WC   =   100.;   INIMIX=   1;  MIXPRE=   1;  MAXMIX= -45

 Intra band minimization:
   WEIMIN = 0.0000     energy-eigenvalue tresh-hold
   EBREAK =  0.62E-08  absolut break condition
   DEPER  =   0.30     relativ break condition  

   TIME   =   0.40     timestep for ELM

  volume/ion in A,a.u.               =      11.17        75.36
  Fermi-wavevector in a.u.,A,eV,Ry     =   1.464852  2.768168 29.195249  2.145790
  Thomas-Fermi vector in A             =   2.580778
 
 Write flags
   LWAVE        =      T    write WAVECAR
   LDOWNSAMPLE  =      F    k-point downsampling of WAVECAR
   LCHARG       =      T    write CHGCAR
   LVTOT        =      F    write LOCPOT, total local potential
   LVHAR        =      F    write LOCPOT, Hartree potential only
   LELF         =      F    write electronic localiz. function (ELF)
   LORBIT       =      0    0 simple, 1 ext, 2 COOP (PROOUT), +10 PAW based schemes


 Dipole corrections
   LMONO  =      F    monopole corrections only (constant potential shift)
   LDIPOL =      F    correct potential (dipole corrections)
   IDIPOL =      0    1-x, 2-y, 3-z, 4-all directions 
   EPSILON=  1.0000000 bulk dielectric constant

 Exchange correlation treatment:
   GGA     =    PE    GGA type
   LEXCH   =     8    internal setting for exchange type
   VOSKOWN=      0    Vosko Wilk Nusair interpolation
   LHFCALC =     F    Hartree Fock is set to
   LHFONE  =     F    Hartree Fock one center treatment
   AEXX    =    0.0000 exact exchange contribution

 Linear response parameters
   LEPSILON=     F    determine dielectric tensor
   LRPA    =     F    only Hartree local field effects (RPA)
   LNABLA  =     F    use nabla operator in PAW spheres
   LVEL    =     F    velocity operator in full k-point grid
   LINTERFAST=   F  fast interpolation
   KINTER  =     0    interpolate to denser k-point grid
   CSHIFT  =0.1000    complex shift for real part using Kramers Kronig
   OMEGAMAX=  -1.0    maximum frequency
   DEG_THRESHOLD= 0.2000000E-02 threshold for treating states as degnerate
   RTIME   =   -0.100 relaxation time in fs
  (WPLASMAI=    0.000 imaginary part of plasma frequency in eV, 0.658/RTIME)
   DFIELD  = 0.0000000 0.0000000 0.0000000 field for delta impulse in time
 
 Orbital magnetization related:
   ORBITALMAG=     F  switch on orbital magnetization
   LCHIMAG   =     F  perturbation theory with respect to B field
   DQ        =  0.001000  dq finite difference perturbation B field
   LLRAUG    =     F  two centre corrections for induced B field



--------------------------------------------------------------------------------------------------------


 Static calculation
 charge density and potential will be updated during run
 non-spin polarized calculation
 Variant of blocked Davidson
 Davidson routine will perform the subspace rotation
 perform sub-space diagonalisation
    after iterative eigenvector-optimisation
 modified Broyden-mixing scheme, WC =      100.0
 initial mixing is a Kerker type mixing with AMIX =  0.4000 and BMIX =      1.0000
 Hartree-type preconditioning will be used
 using additional bands           32
 reciprocal scheme for non local part
 use partial core corrections
 calculate Harris-corrections to forces 
   (improved forces if not selfconsistent)
 use gradient corrections 
 use of overlap-Matrix (Vanderbilt PP)
 Methfessel and Paxton  Order N= 1 SIGMA  =   0.20


--------------------------------------------------------------------------------------------------------


  energy-cutoff  :      280.00
  volume of cell :       22.33
      direct lattice vectors                 reciprocal lattice vectors
     2.423200000  0.000000000  0.000000000     0.412677451  0.238259438  0.000000000
    -1.211600000  2.098552758  0.000000000     0.000000000  0.476518875  0.000000000
     0.000000000  0.000000000  4.391920000     0.000000000  0.000000000  0.227690850

  length of vectors
     2.423200000  2.423200000  4.391920000     0.476518875  0.476518875  0.227690850


 
 k-points in units of 2pi/SCALE and weight: KPOINTS created by Atomic Simulation Env
   0.00000000  0.00000000  0.00000000       0.001
   0.03751613  0.02165995  0.00000000       0.005
   0.07503226  0.04331990  0.00000000       0.005
   0.11254840  0.06497985  0.00000000       0.005
   0.15006453  0.08663980  0.00000000       0.005
   0.18758066  0.10829974  0.00000000       0.005
   0.03751613  0.06497985  0.00000000       0.005
   0.07503226  0.08663980  0.00000000       0.009
   0.11254840  0.10829974  0.00000000       0.009
   0.15006453  0.12995969  0.00000000       0.009
   0.18758066  0.15161964  0.00000000       0.005
   0.07503226  0.12995969  0.00000000       0.005
   0.11254840  0.15161964  0.00000000       0.009
   0.15006453  0.17327959  0.00000000       0.009
   0.11254840  0.19493954  0.00000000       0.005
   0.15006453  0.21659949  0.00000000       0.005
   0.00000000  0.00000000  0.02069917       0.002
   0.03751613  0.02165995  0.02069917       0.009
   0.07503226  0.04331990  0.02069917       0.009
   0.11254840  0.06497985  0.02069917       0.009
   0.15006453  0.08663980  0.02069917       0.009
   0.18758066  0.10829974  0.02069917       0.009
   0.03751613  0.06497985  0.02069917       0.009
   0.07503226  0.08663980  0.02069917       0.018
   0.11254840  0.10829974  0.02069917       0.018
   0.15006453  0.12995969  0.02069917       0.018
   0.18758066  0.15161964  0.02069917       0.009
   0.07503226  0.12995969  0.02069917       0.009
   0.11254840  0.15161964  0.02069917       0.018
   0.15006453  0.17327959  0.02069917       0.018
   0.11254840  0.19493954  0.02069917       0.009
   0.15006453  0.21659949  0.02069917       0.009
   0.00000000  0.00000000  0.04139834       0.002
   0.03751613  0.02165995  0.04139834       0.009
   0.07503226  0.04331990  0.04139834       0.009
   0.11254840  0.06497985  0.04139834       0.009
   0.15006453  0.08663980  0.04139834       0.009
   0.18758066  0.10829974  0.04139834       0.009
   0.03751613  0.06497985  0.04139834       0.009
   0.07503226  0.08663980  0.04139834       0.018
   0.11254840  0.10829974  0.04139834       0.018
   0.15006453  0.12995969  0.04139834       0.018
   0.18758066  0.15161964  0.04139834       0.009
   0.07503226  0.12995969  0.04139834       0.009
   0.11254840  0.15161964  0.04139834       0.018
   0.15006453  0.17327959  0.04139834       0.018
   0.11254840  0.19493954  0.04139834       0.009
   0.15006453  0.21659949  0.04139834       0.009
   0.00000000  0.00000000  0.06209750       0.002
   0.03751613  0.02165995  0.06209750       0.009
   0.07503226  0.04331990  0.06209750       0.009
   0.11254840  0.06497985  0.06209750       0.009
   0.15006453  0.08663980  0.06209750       0.009
   0.18758066  0.10829974  0.06209750       0.009
   0.03751613  0.06497985  0.06209750       0.009
   0.07503226  0.08663980  0.06209750       0.018
   0.11254840  0.10829974  0.06209750       0.018
   0.15006453  0.12995969  0.06209750       0.018
   0.18758066  0.15161964  0.06209750       0.009
   0.07503226  0.12995969  0.06209750       0.009
   0.11254840  0.15161964  0.06209750       0.018
   0.15006453  0.17327959  0.06209750       0.018
   0.11254840  0.19493954  0.06209750       0.009
   0.15006453  0.21659949  0.06209750       0.009
   0.00000000  0.00000000  0.08279667       0.002
   0.03751613  0.02165995  0.08279667       0.009
   0.07503226  0.04331990  0.08279667       0.009
   0.11254840  0.06497985  0.08279667       0.009
   0.15006453  0.08663980  0.08279667       0.009
   0.18758066  0.10829974  0.08279667       0.009
   0.03751613  0.06497985  0.08279667       0.009
   0.07503226  0.08663980  0.08279667       0.018
   0.11254840  0.10829974  0.08279667       0.018
   0.15006453  0.12995969  0.08279667       0.018
   0.18758066  0.15161964  0.08279667       0.009
   0.07503226  0.12995969  0.08279667       0.009
   0.11254840  0.15161964  0.08279667       0.018
   0.15006453  0.17327959  0.08279667       0.018
   0.11254840  0.19493954  0.08279667       0.009
   0.15006453  0.21659949  0.08279667       0.009
   0.00000000  0.00000000  0.10349584       0.002
   0.03751613  0.02165995  0.10349584       0.009
   0.07503226  0.04331990  0.10349584       0.009
   0.11254840  0.06497985  0.10349584       0.009
   0.15006453  0.08663980  0.10349584       0.009
   0.18758066  0.10829974  0.10349584       0.009
   0.03751613  0.06497985  0.10349584       0.009
   0.07503226  0.08663980  0.10349584       0.018
   0.11254840  0.10829974  0.10349584       0.018
   0.15006453  0.12995969  0.10349584       0.018
   0.18758066  0.15161964  0.10349584       0.009
   0.07503226  0.12995969  0.10349584       0.009
   0.11254840  0.15161964  0.10349584       0.018
   0.15006453  0.17327959  0.10349584       0.018
   0.11254840  0.19493954  0.10349584       0.009
   0.15006453  0.21659949  0.10349584       0.009
 
 k-points in reciprocal lattice and weights: KPOINTS created by Atomic Simulation Env
   0.00000000  0.00000000  0.00000000       0.001
   0.09090909  0.00000000  0.00000000       0.005
   0.18181818 -0.00000000  0.00000000       0.005
   0.27272727 -0.00000000  0.00000000       0.005
   0.36363636 -0.00000000  0.00000000       0.005
   0.45454545  0.00000000  0.00000000       0.005
   0.09090909  0.09090909  0.00000000       0.005
   0.18181818  0.09090909  0.00000000       0.009
   0.27272727  0.09090909  0.00000000       0.009
   0.36363636  0.09090909  0.00000000       0.009
   0.45454545  0.09090909  0.00000000       0.005
   0.18181818  0.18181818  0.00000000       0.005
   0.27272727  0.18181818  0.00000000       0.009
   0.36363636  0.18181818  0.00000000       0.009
   0.27272727  0.27272727  0.00000000       0.005
   0.36363636  0.27272727  0.00000000       0.005
   0.00000000  0.00000000  0.09090909       0.002
   0.09090909  0.00000000  0.09090909       0.009
   0.18181818 -0.00000000  0.09090909       0.009
   0.27272727 -0.00000000  0.09090909       0.009
   0.36363636 -0.00000000  0.09090909       0.009
   0.45454545  0.00000000  0.09090909       0.009
   0.09090909  0.09090909  0.09090909       0.009
   0.18181818  0.09090909  0.09090909       0.018
   0.27272727  0.09090909  0.09090909       0.018
   0.36363636  0.09090909  0.09090909       0.018
   0.45454545  0.09090909  0.09090909       0.009
   0.18181818  0.18181818  0.09090909       0.009
   0.27272727  0.18181818  0.09090909       0.018
   0.36363636  0.18181818  0.09090909       0.018
   0.27272727  0.27272727  0.09090909       0.009
   0.36363636  0.27272727  0.09090909       0.009
   0.00000000  0.00000000  0.18181818       0.002
   0.09090909  0.00000000  0.18181818       0.009
   0.18181818 -0.00000000  0.18181818       0.009
   0.27272727 -0.00000000  0.18181818       0.009
   0.36363636 -0.00000000  0.18181818       0.009
   0.45454545  0.00000000  0.18181818       0.009
   0.09090909  0.09090909  0.18181818       0.009
   0.18181818  0.09090909  0.18181818       0.018
   0.27272727  0.09090909  0.18181818       0.018
   0.36363636  0.09090909  0.18181818       0.018
   0.45454545  0.09090909  0.18181818       0.009
   0.18181818  0.18181818  0.18181818       0.009
   0.27272727  0.18181818  0.18181818       0.018
   0.36363636  0.18181818  0.18181818       0.018
   0.27272727  0.27272727  0.18181818       0.009
   0.36363636  0.27272727  0.18181818       0.009
   0.00000000  0.00000000  0.27272727       0.002
   0.09090909  0.00000000  0.27272727       0.009
   0.18181818 -0.00000000  0.27272727       0.009
   0.27272727 -0.00000000  0.27272727       0.009
   0.36363636 -0.00000000  0.27272727       0.009
   0.45454545  0.00000000  0.27272727       0.009
   0.09090909  0.09090909  0.27272727       0.009
   0.18181818  0.09090909  0.27272727       0.018
   0.27272727  0.09090909  0.27272727       0.018
   0.36363636  0.09090909  0.27272727       0.018
   0.45454545  0.09090909  0.27272727       0.009
   0.18181818  0.18181818  0.27272727       0.009
   0.27272727  0.18181818  0.27272727       0.018
   0.36363636  0.18181818  0.27272727       0.018
   0.27272727  0.27272727  0.27272727       0.009
   0.36363636  0.27272727  0.27272727       0.009
   0.00000000  0.00000000  0.36363636       0.002
   0.09090909  0.00000000  0.36363636       0.009
   0.18181818 -0.00000000  0.36363636       0.009
   0.27272727 -0.00000000  0.36363636       0.009
   0.36363636 -0.00000000  0.36363636       0.009
   0.45454545  0.00000000  0.36363636       0.009
   0.09090909  0.09090909  0.36363636       0.009
   0.18181818  0.09090909  0.36363636       0.018
   0.27272727  0.09090909  0.36363636       0.018
   0.36363636  0.09090909  0.36363636       0.018
   0.45454545  0.09090909  0.36363636       0.009
   0.18181818  0.18181818  0.36363636       0.009
   0.27272727  0.18181818  0.36363636       0.018
   0.36363636  0.18181818  0.36363636       0.018
   0.27272727  0.27272727  0.36363636       0.009
   0.36363636  0.27272727  0.36363636       0.009
   0.00000000  0.00000000  0.45454545       0.002
   0.09090909  0.00000000  0.45454545       0.009
   0.18181818 -0.00000000  0.45454545       0.009
   0.27272727 -0.00000000  0.45454545       0.009
   0.36363636 -0.00000000  0.45454545       0.009
   0.45454545  0.00000000  0.45454545       0.009
   0.09090909  0.09090909  0.45454545       0.009
   0.18181818  0.09090909  0.45454545       0.018
   0.27272727  0.09090909  0.45454545       0.018
   0.36363636  0.09090909  0.45454545       0.018
   0.45454545  0.09090909  0.45454545       0.009
   0.18181818  0.18181818  0.45454545       0.009
   0.27272727  0.18181818  0.45454545       0.018
   0.36363636  0.18181818  0.45454545       0.018
   0.27272727  0.27272727  0.45454545       0.009
   0.36363636  0.27272727  0.45454545       0.009
 
 position of ions in fractional coordinates (direct lattice) 
   0.00000000  0.00000000  0.00000000
   0.33333333  0.66666667  0.50000000
 
 position of ions in cartesian coordinates  (Angst):
   0.00000000  0.00000000  0.00000000
   0.00000000  1.39903517  2.19596000
 


--------------------------------------------------------------------------------------------------------


 k-point   1 :   0.0000 0.0000 0.0000  plane waves:     245
 k-point   2 :   0.0909 0.0000 0.0000  plane waves:     237
 k-point   3 :   0.1818-0.0000 0.0000  plane waves:     246
 k-point   4 :   0.2727-0.0000 0.0000  plane waves:     232
 k-point   5 :   0.3636-0.0000 0.0000  plane waves:     234
 k-point   6 :   0.4545 0.0000 0.0000  plane waves:     236
 k-point   7 :   0.0909 0.0909 0.0000  plane waves:     231
 k-point   8 :   0.1818 0.0909 0.0000  plane waves:     237
 k-point   9 :   0.2727 0.0909 0.0000  plane waves:     240
 k-point  10 :   0.3636 0.0909 0.0000  plane waves:     235
 k-point  11 :   0.4545 0.0909 0.0000  plane waves:     230
 k-point  12 :   0.1818 0.1818 0.0000  plane waves:     235
 k-point  13 :   0.2727 0.1818 0.0000  plane waves:     237
 k-point  14 :   0.3636 0.1818 0.0000  plane waves:     236
 k-point  15 :   0.2727 0.2727 0.0000  plane waves:     235
 k-point  16 :   0.3636 0.2727 0.0000  plane waves:     242
 k-point  17 :   0.0000 0.0000 0.0909  plane waves:     246
 k-point  18 :   0.0909 0.0000 0.0909  plane waves:     238
 k-point  19 :   0.1818-0.0000 0.0909  plane waves:     236
 k-point  20 :   0.2727-0.0000 0.0909  plane waves:     237
 k-point  21 :   0.3636-0.0000 0.0909  plane waves:     236
 k-point  22 :   0.4545 0.0000 0.0909  plane waves:     237
 k-point  23 :   0.0909 0.0909 0.0909  plane waves:     237
 k-point  24 :   0.1818 0.0909 0.0909  plane waves:     236
 k-point  25 :   0.2727 0.0909 0.0909  plane waves:     238
 k-point  26 :   0.3636 0.0909 0.0909  plane waves:     237
 k-point  27 :   0.4545 0.0909 0.0909  plane waves:     236
 k-point  28 :   0.1818 0.1818 0.0909  plane waves:     238
 k-point  29 :   0.2727 0.1818 0.0909  plane waves:     237
 k-point  30 :   0.3636 0.1818 0.0909  plane waves:     237
 k-point  31 :   0.2727 0.2727 0.0909  plane waves:     236
 k-point  32 :   0.3636 0.2727 0.0909  plane waves:     232
 k-point  33 :   0.0000 0.0000 0.1818  plane waves:     246
 k-point  34 :   0.0909 0.0000 0.1818  plane waves:     241
 k-point  35 :   0.1818-0.0000 0.1818  plane waves:     239
 k-point  36 :   0.2727-0.0000 0.1818  plane waves:     234
 k-point  37 :   0.3636-0.0000 0.1818  plane waves:     239
 k-point  38 :   0.4545 0.0000 0.1818  plane waves:     237
 k-point  39 :   0.0909 0.0909 0.1818  plane waves:     239
 k-point  40 :   0.1818 0.0909 0.1818  plane waves:     236
 k-point  41 :   0.2727 0.0909 0.1818  plane waves:     239
 k-point  42 :   0.3636 0.0909 0.1818  plane waves:     236
 k-point  43 :   0.4545 0.0909 0.1818  plane waves:     236
 k-point  44 :   0.1818 0.1818 0.1818  plane waves:     236
 k-point  45 :   0.2727 0.1818 0.1818  plane waves:     238
 k-point  46 :   0.3636 0.1818 0.1818  plane waves:     237
 k-point  47 :   0.2727 0.2727 0.1818  plane waves:     241
 k-point  48 :   0.3636 0.2727 0.1818  plane waves:     236
 k-point  49 :   0.0000 0.0000 0.2727  plane waves:     252
 k-point  50 :   0.0909 0.0000 0.2727  plane waves:     241
 k-point  51 :   0.1818-0.0000 0.2727  plane waves:     242
 k-point  52 :   0.2727-0.0000 0.2727  plane waves:     238
 k-point  53 :   0.3636-0.0000 0.2727  plane waves:     238
 k-point  54 :   0.4545 0.0000 0.2727  plane waves:     238
 k-point  55 :   0.0909 0.0909 0.2727  plane waves:     239
 k-point  56 :   0.1818 0.0909 0.2727  plane waves:     240
 k-point  57 :   0.2727 0.0909 0.2727  plane waves:     239
 k-point  58 :   0.3636 0.0909 0.2727  plane waves:     237
 k-point  59 :   0.4545 0.0909 0.2727  plane waves:     241
 k-point  60 :   0.1818 0.1818 0.2727  plane waves:     236
 k-point  61 :   0.2727 0.1818 0.2727  plane waves:     239
 k-point  62 :   0.3636 0.1818 0.2727  plane waves:     236
 k-point  63 :   0.2727 0.2727 0.2727  plane waves:     237
 k-point  64 :   0.3636 0.2727 0.2727  plane waves:     234
 k-point  65 :   0.0000 0.0000 0.3636  plane waves:     234
 k-point  66 :   0.0909 0.0000 0.3636  plane waves:     248
 k-point  67 :   0.1818-0.0000 0.3636  plane waves:     244
 k-point  68 :   0.2727-0.0000 0.3636  plane waves:     237
 k-point  69 :   0.3636-0.0000 0.3636  plane waves:     239
 k-point  70 :   0.4545 0.0000 0.3636  plane waves:     240
 k-point  71 :   0.0909 0.0909 0.3636  plane waves:     241
 k-point  72 :   0.1818 0.0909 0.3636  plane waves:     239
 k-point  73 :   0.2727 0.0909 0.3636  plane waves:     237
 k-point  74 :   0.3636 0.0909 0.3636  plane waves:     237
 k-point  75 :   0.4545 0.0909 0.3636  plane waves:     242
 k-point  76 :   0.1818 0.1818 0.3636  plane waves:     236
 k-point  77 :   0.2727 0.1818 0.3636  plane waves:     236
 k-point  78 :   0.3636 0.1818 0.3636  plane waves:     235
 k-point  79 :   0.2727 0.2727 0.3636  plane waves:     237
 k-point  80 :   0.3636 0.2727 0.3636  plane waves:     236
 k-point  81 :   0.0000 0.0000 0.4545  plane waves:     240
 k-point  82 :   0.0909 0.0000 0.4545  plane waves:     248
 k-point  83 :   0.1818-0.0000 0.4545  plane waves:     239
 k-point  84 :   0.2727-0.0000 0.4545  plane waves:     234
 k-point  85 :   0.3636-0.0000 0.4545  plane waves:     240
 k-point  86 :   0.4545 0.0000 0.4545  plane waves:     242
 k-point  87 :   0.0909 0.0909 0.4545  plane waves:     247
 k-point  88 :   0.1818 0.0909 0.4545  plane waves:     240
 k-point  89 :   0.2727 0.0909 0.4545  plane waves:     235
 k-point  90 :   0.3636 0.0909 0.4545  plane waves:     240
 k-point  91 :   0.4545 0.0909 0.4545  plane waves:     236
 k-point  92 :   0.1818 0.1818 0.4545  plane waves:     242
 k-point  93 :   0.2727 0.1818 0.4545  plane waves:     236
 k-point  94 :   0.3636 0.1818 0.4545  plane waves:     234
 k-point  95 :   0.2727 0.2727 0.4545  plane waves:     234
 k-point  96 :   0.3636 0.2727 0.4545  plane waves:     237

 maximum number of plane-waves:       252
 maximum index in each direction: 
   IXMAX=    3   IYMAX=    3   IZMAX=    5
   IXMIN=   -3   IYMIN=   -3   IZMIN=   -6


 total amount of memory used by VASP MPI-rank0    52028. kBytes
=======================================================================

   base      :      30000. kBytes
   nonl-proj :       3491. kBytes
   grid      :        812. kBytes
   one-center:         31. kBytes
   wavefun   :      17694. kBytes
 
     INWAV:  cpu time    0.0000: real time    0.0000
 Broyden mixing: mesh for mixing (old mesh)
   NGX =  7   NGY =  7   NGZ = 11
  (NGX  = 20   NGY  = 20   NGZ  = 36)
  gives a total of    539 points

 initial charge density was supplied:
 charge density of overlapping atoms calculated
 number of electron      16.0000000 magnetization 
 keeping initial charge density in first step


--------------------------------------------------------------------------------------------------------


 Maximum index for augmentation-charges         2813 (set IRDMAX)


--------------------------------------------------------------------------------------------------------


 First call to EWALD:  gamma=   0.629
 Maximum number of real-space cells 4x 4x 2
 Maximum number of reciprocal cells 2x 2x 4

    FEWALD:  cpu time    0.0010: real time    0.0010


--------------------------------------- Iteration      1(   1)  ---------------------------------------


    POTLOK:  cpu time    0.0035: real time    0.0035
    SETDIJ:  cpu time    0.0021: real time    0.0021
     EDDAV:  cpu time    0.7873: real time    0.8069
       DOS:  cpu time    0.0057: real time    0.0057
    --------------------------------------------
      LOOP:  cpu time    0.7986: real time    0.8182

 eigenvalue-minimisations  :  9136
 total energy-change (2. order) : 0.6226561E+02  (-0.2841279E+03)
 number of electron      16.0000000 magnetization 
 augmentation part       16.0000000 magnetization 

 Free energy of the ion-electron system (eV)
  ---------------------------------------------------
  alpha Z        PSCENC =       123.78301007
  Ewald energy   TEWEN  =     -1188.83293046
  -Hartree energ DENC   =      -222.06998595
  -exchange      EXHF   =         0.00000000
  -V(xc)+E(xc)   XCENC  =         7.93986399
  PAW double counting   =      1109.69170683    -1125.09647265
  entropy T*S    EENTRO =         0.00206536
  eigenvalues    EBANDS =       168.27344042
  atomic energy  EATOM  =      1188.57490811
  Solvation  Ediel_sol  =         0.00000000
  ---------------------------------------------------
  free energy    TOTEN  =        62.26560572 eV

  energy without entropy =       62.26354036  energy(sigma->0) =       62.26491727


--------------------------------------------------------------------------------------------------------




--------------------------------------- Iteration      1(   2)  ---------------------------------------


     EDDAV:  cpu time    0.7055: real time    0.7056
       DOS:  cpu time    0.0065: real time    0.0065
    --------------------------------------------
      LOOP:  cpu time    0.7121: real time    0.7121

 eigenvalue-minimisations  :  7936
 total energy-change (2. order) :-0.7653029E+02  (-0.6457151E+02)
 number of electron      16.0000000 magnetization 
 augmentation part       16.0000000 magnetization 

 Free energy of the ion-electron system (eV)
  ---------------------------------------------------
  alpha Z        PSCENC =       123.78301007
  Ewald energy   TEWEN  =     -1188.83293046
  -Hartree energ DENC   =      -222.06998595
  -exchange      EXHF   =         0.00000000
  -V(xc)+E(xc)   XCENC  =         7.93986399
  PAW double counting   =      1109.69170683    -1125.09647265
  entropy T*S    EENTRO =         0.00308100
  eigenvalues    EBANDS =        91.74213859
  atomic energy  EATOM  =      1188.57490811
  Solvation  Ediel_sol  =         0.00000000
  ---------------------------------------------------
  free energy    TOTEN  =       -14.26468047 eV

  energy without entropy =      -14.26776147  energy(sigma->0) =      -14.26570747


--------------------------------------------------------------------------------------------------------




--------------------------------------- Iteration      1(   3)  ---------------------------------------


     EDDAV:  cpu time    0.7918: real time    0.7919
       DOS:  cpu time    0.0066: real time    0.0066
    --------------------------------------------
      LOOP:  cpu time    0.7984: real time    0.7984

 eigenvalue-minimisations  :  9440
 total energy-change (2. order) :-0.4786065E+01  (-0.4490114E+01)
 number of electron      16.0000000 magnetization 
 augmentation part       16.0000000 magnetization 

 Free energy of the ion-electron system (eV)
  ---------------------------------------------------
  alpha Z        PSCENC =       123.78301007
  Ewald energy   TEWEN  =     -1188.83293046
  -Hartree energ DENC   =      -222.06998595
  -exchange      EXHF   =         0.00000000
  -V(xc)+E(xc)   XCENC  =         7.93986399
  PAW double counting   =      1109.69170683    -1125.09647265
  entropy T*S    EENTRO =         0.00108974
  eigenvalues    EBANDS =        86.95806528
  atomic energy  EATOM  =      1188.57490811
  Solvation  Ediel_sol  =         0.00000000
  ---------------------------------------------------
  free energy    TOTEN  =       -19.05074504 eV

  energy without entropy =      -19.05183478  energy(sigma->0) =      -19.05110829


--------------------------------------------------------------------------------------------------------




--------------------------------------- Iteration      1(   4)  ---------------------------------------


     EDDAV:  cpu time    0.7702: real time    0.7703
       DOS:  cpu time    0.0068: real time    0.0068
    --------------------------------------------
      LOOP:  cpu time    0.7771: real time    0.7771

 eigenvalue-minimisations  :  9184
 total energy-change (2. order) :-0.2577592E-01  (-0.2575536E-01)
 number of electron      16.0000000 magnetization 
 augmentation part       16.0000000 magnetization 

 Free energy of the ion-electron system (eV)
  ---------------------------------------------------
  alpha Z        PSCENC =       123.78301007
  Ewald energy   TEWEN  =     -1188.83293046
  -Hartree energ DENC   =      -222.06998595
  -exchange      EXHF   =         0.00000000
  -V(xc)+E(xc)   XCENC  =         7.93986399
  PAW double counting   =      1109.69170683    -1125.09647265
  entropy T*S    EENTRO =         0.00099986
  eigenvalues    EBANDS =        86.93237924
  atomic energy  EATOM  =      1188.57490811
  Solvation  Ediel_sol  =         0.00000000
  ---------------------------------------------------
  free energy    TOTEN  =       -19.07652096 eV

  energy without entropy =      -19.07752082  energy(sigma->0) =      -19.07685425


--------------------------------------------------------------------------------------------------------




--------------------------------------- Iteration      1(   5)  ---------------------------------------


     EDDAV:  cpu time    0.7743: real time    0.7744
       DOS:  cpu time    0.0067: real time    0.0067
    CHARGE:  cpu time    0.0203: real time    0.0203
    MIXING:  cpu time    0.0001: real time    0.0001
    --------------------------------------------
      LOOP:  cpu time    0.8016: real time    0.8016

 eigenvalue-minimisations  :  9288
 total energy-change (2. order) :-0.5022356E-04  (-0.5022143E-04)
 number of electron      16.0000055 magnetization 
 augmentation part        7.0292167 magnetization 

 Broyden mixing:
  rms(total) = 0.15725E+01    rms(broyden)= 0.15725E+01
  rms(prec ) = 0.28106E+01
  weight for this iteration     100.00

 Free energy of the ion-electron system (eV)
  ---------------------------------------------------
  alpha Z        PSCENC =       123.78301007
  Ewald energy   TEWEN  =     -1188.83293046
  -Hartree energ DENC   =      -222.06998595
  -exchange      EXHF   =         0.00000000
  -V(xc)+E(xc)   XCENC  =         7.93986399
  PAW double counting   =      1109.69170683    -1125.09647265
  entropy T*S    EENTRO =         0.00099980
  eigenvalues    EBANDS =        86.93232907
  atomic energy  EATOM  =      1188.57490811
  Solvation  Ediel_sol  =         0.00000000
  ---------------------------------------------------
  free energy    TOTEN  =       -19.07657118 eV

  energy without entropy =      -19.07757099  energy(sigma->0) =      -19.07690445


--------------------------------------------------------------------------------------------------------




--------------------------------------- Iteration      1(   6)  ---------------------------------------


    POTLOK:  cpu time    0.0033: real time    0.0033
    SETDIJ:  cpu time    0.0020: real time    0.0020
     EDDAV:  cpu time    0.9103: real time    0.9103
       DOS:  cpu time    0.0069: real time    0.0069
    CHARGE:  cpu time    0.0196: real time    0.0196
    MIXING:  cpu time    0.0002: real time    0.0002
    --------------------------------------------
      LOOP:  cpu time    0.9424: real time    0.9424

 eigenvalue-minimisations  : 11120
 total energy-change (2. order) : 0.2848205E+01  (-0.2288244E+00)
 number of electron      16.0000078 magnetization 
 augmentation part        8.6298133 magnetization 

 Broyden mixing:
  rms(total) = 0.38522E+00    rms(broyden)= 0.38510E+00
  rms(prec ) = 0.65944E+00
  weight for this iteration     100.00

 eigenvalues of (default mixing * dielectric matrix)
  average eigenvalue GAMMA=   0.8521
  0.8521

 Free energy of the ion-electron system (eV)
  ---------------------------------------------------
  alpha Z        PSCENC =       123.78301007
  Ewald energy   TEWEN  =     -1188.83293046
  -Hartree energ DENC   =      -185.20035330
  -exchange      EXHF   =         0.00000000
  -V(xc)+E(xc)   XCENC  =         6.14936898
  PAW double counting   =      1208.37256814    -1218.65348572
  entropy T*S    EENTRO =         0.00313730
  eigenvalues    EBANDS =        49.57541069
  atomic energy  EATOM  =      1188.57490811
  Solvation  Ediel_sol  =         0.00000000
  ---------------------------------------------------
  free energy    TOTEN  =       -16.22836618 eV

  energy without entropy =      -16.23150349  energy(sigma->0) =      -16.22941195


--------------------------------------------------------------------------------------------------------




--------------------------------------- Iteration      1(   7)  ---------------------------------------


    POTLOK:  cpu time    0.0033: real time    0.0033
    SETDIJ:  cpu time    0.0021: real time    0.0021
     EDDAV:  cpu time    0.8406: real time    0.8406
       DOS:  cpu time    0.0069: real time    0.0069
    CHARGE:  cpu time    0.0197: real time    0.0197
    MIXING:  cpu time    0.0002: real time    0.0002
    --------------------------------------------
      LOOP:  cpu time    0.8727: real time    0.8728

 eigenvalue-minimisations  : 10152
 total energy-change (2. order) : 0.3163445E+00  (-0.1986221E-01)
 number of electron      16.0000073 magnetization 
 augmentation part        8.1951221 magnetization 

 Broyden mixing:
  rms(total) = 0.10014E+00    rms(broyden)= 0.10014E+00
  rms(prec ) = 0.20493E+00
  weight for this iteration     100.00

 eigenvalues of (default mixing * dielectric matrix)
  average eigenvalue GAMMA=   0.9227
  1.1414  0.7039

 Free energy of the ion-electron system (eV)
  ---------------------------------------------------
  alpha Z        PSCENC =       123.78301007
  Ewald energy   TEWEN  =     -1188.83293046
  -Hartree energ DENC   =      -191.91222882
  -exchange      EXHF   =         0.00000000
  -V(xc)+E(xc)   XCENC  =         6.50860109
  PAW double counting   =      1274.88701711    -1288.92526555
  entropy T*S    EENTRO =         0.00354541
  eigenvalues    EBANDS =        60.00132139
  atomic energy  EATOM  =      1188.57490811
  Solvation  Ediel_sol  =         0.00000000
  ---------------------------------------------------
  free energy    TOTEN  =       -15.91202164 eV

  energy without entropy =      -15.91556705  energy(sigma->0) =      -15.91320344


--------------------------------------------------------------------------------------------------------




--------------------------------------- Iteration      1(   8)  ---------------------------------------


    POTLOK:  cpu time    0.0034: real time    0.0034
    SETDIJ:  cpu time    0.0021: real time    0.0021
     EDDAV:  cpu time    0.8356: real time    0.8356
       DOS:  cpu time    0.0067: real time    0.0067
    CHARGE:  cpu time    0.0196: real time    0.0196
    MIXING:  cpu time    0.0002: real time    0.0002
    --------------------------------------------
      LOOP:  cpu time    0.8675: real time    0.8675

 eigenvalue-minimisations  : 10168
 total energy-change (2. order) : 0.2428431E-01  (-0.5243455E-03)
 number of electron      16.0000074 magnetization 
 augmentation part        8.2321470 magnetization 

 Broyden mixing:
  rms(total) = 0.45558E-01    rms(broyden)= 0.45557E-01
  rms(prec ) = 0.92119E-01
  weight for this iteration     100.00

 eigenvalues of (default mixing * dielectric matrix)
  average eigenvalue GAMMA=   1.4120
  0.7388  1.0439  2.4535

 Free energy of the ion-electron system (eV)
  ---------------------------------------------------
  alpha Z        PSCENC =       123.78301007
  Ewald energy   TEWEN  =     -1188.83293046
  -Hartree energ DENC   =      -189.81798987
  -exchange      EXHF   =         0.00000000
  -V(xc)+E(xc)   XCENC  =         6.42600208
  PAW double counting   =      1321.37395039    -1336.56577683
  entropy T*S    EENTRO =         0.00364445
  eigenvalues    EBANDS =        59.16744472
  atomic energy  EATOM  =      1188.57490811
  Solvation  Ediel_sol  =         0.00000000
  ---------------------------------------------------
  free energy    TOTEN  =       -15.88773733 eV

  energy without entropy =      -15.89138177  energy(sigma->0) =      -15.88895214


--------------------------------------------------------------------------------------------------------




--------------------------------------- Iteration      1(   9)  ---------------------------------------


    POTLOK:  cpu time    0.0034: real time    0.0034
    SETDIJ:  cpu time    0.0021: real time    0.0021
     EDDAV:  cpu time    0.9237: real time    0.9238
       DOS:  cpu time    0.0068: real time    0.0068
    CHARGE:  cpu time    0.0194: real time    0.0194
    MIXING:  cpu time    0.0002: real time    0.0002
    --------------------------------------------
      LOOP:  cpu time    0.9555: real time    0.9556

 eigenvalue-minimisations  : 11360
 total energy-change (2. order) : 0.1023905E-01  (-0.8816662E-04)
 number of electron      16.0000074 magnetization 
 augmentation part        8.2502689 magnetization 

 Broyden mixing:
  rms(total) = 0.66365E-02    rms(broyden)= 0.66322E-02
  rms(prec ) = 0.70073E-02
  weight for this iteration     100.00

 eigenvalues of (default mixing * dielectric matrix)
  average eigenvalue GAMMA=   1.4374
  2.5252  0.7373  0.9939  1.4931

 Free energy of the ion-electron system (eV)
  ---------------------------------------------------
  alpha Z        PSCENC =       123.78301007
  Ewald energy   TEWEN  =     -1188.83293046
  -Hartree energ DENC   =      -187.73380472
  -exchange      EXHF   =         0.00000000
  -V(xc)+E(xc)   XCENC  =         6.35254472
  PAW double counting   =      1385.11220591    -1401.93204343
  entropy T*S    EENTRO =         0.00364882
  eigenvalues    EBANDS =        58.79496268
  atomic energy  EATOM  =      1188.57490811
  Solvation  Ediel_sol  =         0.00000000
  ---------------------------------------------------
  free energy    TOTEN  =       -15.87749828 eV

  energy without entropy =      -15.88114710  energy(sigma->0) =      -15.87871456


--------------------------------------------------------------------------------------------------------




--------------------------------------- Iteration      1(  10)  ---------------------------------------


    POTLOK:  cpu time    0.0034: real time    0.0034
    SETDIJ:  cpu time    0.0021: real time    0.0021
     EDDAV:  cpu time    0.7699: real time    0.7699
       DOS:  cpu time    0.0062: real time    0.0062
    CHARGE:  cpu time    0.0197: real time    0.0197
    MIXING:  cpu time    0.0002: real time    0.0002
    --------------------------------------------
      LOOP:  cpu time    0.8014: real time    0.8014

 eigenvalue-minimisations  :  9240
 total energy-change (2. order) :-0.2397677E-04  (-0.4191309E-05)
 number of electron      16.0000074 magnetization 
 augmentation part        8.2510857 magnetization 

 Broyden mixing:
  rms(total) = 0.31067E-02    rms(broyden)= 0.31043E-02
  rms(prec ) = 0.34702E-02
  weight for this iteration     100.00

 eigenvalues of (default mixing * dielectric matrix)
  average eigenvalue GAMMA=   1.6083
  2.5578  2.5578  0.7376  1.0126  1.1755

 Free energy of the ion-electron system (eV)
  ---------------------------------------------------
  alpha Z        PSCENC =       123.78301007
  Ewald energy   TEWEN  =     -1188.83293046
  -Hartree energ DENC   =      -187.68813851
  -exchange      EXHF   =         0.00000000
  -V(xc)+E(xc)   XCENC  =         6.35199911
  PAW double counting   =      1388.38144388    -1405.22319594
  entropy T*S    EENTRO =         0.00364490
  eigenvalues    EBANDS =        58.77173658
  atomic energy  EATOM  =      1188.57490811
  Solvation  Ediel_sol  =         0.00000000
  ---------------------------------------------------
  free energy    TOTEN  =       -15.87752226 eV

  energy without entropy =      -15.88116716  energy(sigma->0) =      -15.87873723


--------------------------------------------------------------------------------------------------------




--------------------------------------- Iteration      1(  11)  ---------------------------------------


    POTLOK:  cpu time    0.0034: real time    0.0034
    SETDIJ:  cpu time    0.0021: real time    0.0021
     EDDAV:  cpu time    0.7860: real time    0.7861
       DOS:  cpu time    0.0068: real time    0.0068
    CHARGE:  cpu time    0.0196: real time    0.0196
    MIXING:  cpu time    0.0003: real time    0.0003
    --------------------------------------------
      LOOP:  cpu time    0.8181: real time    0.8182

 eigenvalue-minimisations  :  9384
 total energy-change (2. order) : 0.3717401E-05  (-0.6888587E-07)
 number of electron      16.0000074 magnetization 
 augmentation part        8.2509024 magnetization 

 Broyden mixing:
  rms(total) = 0.16288E-03    rms(broyden)= 0.16206E-03
  rms(prec ) = 0.18833E-03
  weight for this iteration     100.00

 eigenvalues of (default mixing * dielectric matrix)
  average eigenvalue GAMMA=   1.5198
  2.5677  2.5677  0.7375  0.9978  0.9978  1.2501

 Free energy of the ion-electron system (eV)
  ---------------------------------------------------
  alpha Z        PSCENC =       123.78301007
  Ewald energy   TEWEN  =     -1188.83293046
  -Hartree energ DENC   =      -187.74047757
  -exchange      EXHF   =         0.00000000
  -V(xc)+E(xc)   XCENC  =         6.35466657
  PAW double counting   =      1388.42451996    -1405.21596721
  entropy T*S    EENTRO =         0.00364530
  eigenvalues    EBANDS =        58.77110668
  atomic energy  EATOM  =      1188.57490811
  Solvation  Ediel_sol  =         0.00000000
  ---------------------------------------------------
  free energy    TOTEN  =       -15.87751854 eV

  energy without entropy =      -15.88116384  energy(sigma->0) =      -15.87873364


--------------------------------------------------------------------------------------------------------




--------------------------------------- Iteration      1(  12)  ---------------------------------------


    POTLOK:  cpu time    0.0033: real time    0.0033
    SETDIJ:  cpu time    0.0022: real time    0.0022
     EDDAV:  cpu time    0.5770: real time    0.5771
       DOS:  cpu time    0.0069: real time    0.0069
    --------------------------------------------
      LOOP:  cpu time    0.5894: real time    0.5895

 eigenvalue-minimisations  :  5960
 total energy-change (2. order) : 0.2158333E-06  (-0.2621843E-08)
 number of electron      16.0000074 magnetization 
 augmentation part        8.2509024 magnetization 

 Free energy of the ion-electron system (eV)
  ---------------------------------------------------
  alpha Z        PSCENC =       123.78301007
  Ewald energy   TEWEN  =     -1188.83293046
  -Hartree energ DENC   =      -187.74174501
  -exchange      EXHF   =         0.00000000
  -V(xc)+E(xc)   XCENC  =         6.35477309
  PAW double counting   =      1388.56517111    -1405.35484385
  entropy T*S    EENTRO =         0.00364543
  eigenvalues    EBANDS =        58.77049318
  atomic energy  EATOM  =      1188.57490811
  Solvation  Ediel_sol  =         0.00000000
  ---------------------------------------------------
  free energy    TOTEN  =       -15.87751833 eV

  energy without entropy =      -15.88116375  energy(sigma->0) =      -15.87873347


--------------------------------------------------------------------------------------------------------




 average (electrostatic) potential at core
  the test charge radii are     1.0103
  (the norm of the test charge is              1.0000)
       1 -43.5260       2 -43.5258
 
 
 
 E-fermi :   5.9161     XC(G=0): -13.2565     alpha+bet :-13.8807

 Fermi energy:         5.9161195412

 k-point     1 :       0.0000    0.0000    0.0000
  band No.  band energies     occupation 
      1      -2.4619      2.00000
      2       1.3160      2.00000
      3       3.8262      2.00000
      4       4.5410      2.00000
      5       4.5412      2.00000
      6       4.7748      2.00000
      7       4.7750      2.00000
      8       5.0398      2.00000
      9       5.7421      2.01168
     10       5.7422      2.01160
     11       6.5623     -0.00005
     12       6.5623     -0.00005
     13      11.9958      0.00000
     14      27.4673      0.00000
     15      28.9159      0.00000
     16      31.5000      0.00000
     17      33.3527      0.00000
     18      33.3528      0.00000
     19      33.3972      0.00000
     20      34.1931      0.00000
     21      34.1933      0.00000
     22      37.1182      0.00000
     23      37.1182      0.00000
     24      38.0457      0.00000
     25      40.0463      0.00000
     26      40.1151      0.00000
     27      40.1151      0.00000
     28      43.3075      0.00000
     29      43.3079      0.00000
     30      44.8686      0.00000
     31      44.8688      0.00000
     32      46.9121      0.00000
     33      54.3078      0.00000
     34      58.8505      0.00000
     35      58.8515      0.00000
     36      58.9521      0.00000
     37      59.6068      0.00000
     38      59.6068      0.00000
     39      59.7094      0.00000
     40      60.1380      0.00000

 k-point     2 :       0.0909    0.0000    0.0000
  band No.  band energies     occupation 
      1      -2.1482      2.00000
      2       1.5563      2.00000
      3       3.8791      2.00000
      4       4.3782      2.00000
      5       4.4522      2.00000
      6       4.6694      2.00000
      7       4.7157      2.00000
      8       4.9387      2.00000
      9       5.5948      2.04553
     10       5.6489      2.06766
     11       6.5845     -0.00002
     12       7.4928     -0.00000
     13      12.0280      0.00000
     14      27.3965      0.00000
     15      27.8609      0.00000
     16      29.7704      0.00000
     17      30.7172      0.00000
     18      33.1230      0.00000
     19      33.1249      0.00000
     20      33.3321      0.00000
     21      36.3709      0.00000
     22      36.5003      0.00000
     23      37.0672      0.00000
     24      37.6329      0.00000
     25      40.7065      0.00000
     26      40.9304      0.00000
     27      41.4287      0.00000
     28      41.9095      0.00000
     29      44.8504      0.00000
     30      46.1170      0.00000
     31      47.4171      0.00000
     32      49.1179      0.00000
     33      54.1467      0.00000
     34      56.0423      0.00000
     35      57.1492      0.00000
     36      57.4643      0.00000
     37      58.2398      0.00000
     38      59.4656      0.00000
     39      61.1192      0.00000
     40      61.7826      0.00000

 k-point     3 :       0.1818   -0.0000    0.0000
  band No.  band energies     occupation 
      1      -1.2547      2.00000
      2       2.1339      2.00000
      3       3.5073      2.00000
      4       3.8202      2.00000
      5       4.2442      2.00000
      6       4.7200      2.00000
      7       5.1984      2.00000
      8       5.2424      2.00002
      9       5.3909      2.00129
     10       5.4267      2.00292
     11       6.6147     -0.00001
     12       9.1146     -0.00000
     13      12.1501      0.00000
     14      23.4846      0.00000
     15      28.0247      0.00000
     16      28.4885      0.00000
     17      28.5884      0.00000
     18      29.1917      0.00000
     19      32.5463      0.00000
     20      33.9184      0.00000
     21      34.0216      0.00000
     22      35.3264      0.00000
     23      37.4894      0.00000
     24      37.9584      0.00000
     25      41.1724      0.00000
     26      42.6112      0.00000
     27      44.1158      0.00000
     28      46.0470      0.00000
     29      46.9982      0.00000
     30      49.9897      0.00000
     31      50.2345      0.00000
     32      52.4301      0.00000
     33      53.0342      0.00000
     34      53.2117      0.00000
     35      55.3944      0.00000
     36      56.5835      0.00000
     37      57.8524      0.00000
     38      59.1496      0.00000
     39      61.7061      0.00000
     40      63.5467      0.00000

 k-point     4 :       0.2727   -0.0000    0.0000
  band No.  band energies     occupation 
      1       0.0373      2.00000
      2       2.4570      2.00000
      3       2.8450      2.00000
      4       3.8148      2.00000
      5       4.0589      2.00000
      6       4.7984      2.00000
      7       5.1710      2.00000
      8       5.3708      2.00079
      9       5.8845      1.26362
     10       6.0229      0.22358
     11       6.6264     -0.00001
     12      11.0036     -0.00000
     13      12.4447      0.00000
     14      19.5226      0.00000
     15      25.0832      0.00000
     16      25.7520      0.00000
     17      26.5488      0.00000
     18      29.5906      0.00000
     19      30.9462      0.00000
     20      33.2807      0.00000
     21      34.3993      0.00000
     22      34.5489      0.00000
     23      35.0442      0.00000
     24      38.4041      0.00000
     25      44.8495      0.00000
     26      46.0522      0.00000
     27      47.5248      0.00000
     28      48.0282      0.00000
     29      48.1168      0.00000
     30      50.4495      0.00000
     31      51.4340      0.00000
     32      52.4189      0.00000
     33      54.5876      0.00000
     34      55.6006      0.00000
     35      56.2814      0.00000
     36      57.9011      0.00000
     37      59.0179      0.00000
     38      59.9462      0.00000
     39      62.4531      0.00000
     40      62.6848      0.00000

 k-point     5 :       0.3636   -0.0000    0.0000
  band No.  band energies     occupation 
      1       1.2523      2.00000
      2       2.2373      2.00000
      3       2.4218      2.00000
      4       3.8953      2.00000
      5       4.4002      2.00000
      6       4.4946      2.00000
      7       4.9574      2.00000
      8       6.4751     -0.00056
      9       6.5726     -0.00004
     10       6.6155     -0.00001
     11       6.6530     -0.00000
     12      12.6386      0.00000
     13      13.0743      0.00000
     14      16.4917      0.00000
     15      21.7952      0.00000
     16      23.4892      0.00000
     17      24.0266      0.00000
     18      28.9997      0.00000
     19      30.1146      0.00000
     20      33.1110      0.00000
     21      34.0555      0.00000
     22      35.0161      0.00000
     23      35.0710      0.00000
     24      38.4788      0.00000
     25      44.6747      0.00000
     26      46.5300      0.00000
     27      48.1465      0.00000
     28      50.9410      0.00000
     29      51.4076      0.00000
     30      51.5219      0.00000
     31      53.1600      0.00000
     32      54.7100      0.00000
     33      55.0451      0.00000
     34      57.4854      0.00000
     35      58.9038      0.00000
     36      59.2691      0.00000
     37      60.7468      0.00000
     38      61.8911      0.00000
     39      63.2582      0.00000
     40      64.2508      0.00000

 k-point     6 :       0.4545    0.0000    0.0000
  band No.  band energies     occupation 
      1       1.7968      2.00000
      2       1.9922      2.00000
      3       2.2213      2.00000
      4       4.1667      2.00000
      5       4.4027      2.00000
      6       4.7106      2.00000
      7       4.8376      2.00000
      8       6.6038     -0.00001
      9       6.9958     -0.00000
     10       7.0753     -0.00000
     11       8.0237     -0.00000
     12      11.1805     -0.00000
     13      15.0825      0.00000
     14      16.2545      0.00000
     15      19.1999      0.00000
     16      20.7237      0.00000
     17      23.0717      0.00000
     18      28.4504      0.00000
     19      29.8343      0.00000
     20      32.0499      0.00000
     21      33.8262      0.00000
     22      36.0043      0.00000
     23      37.5936      0.00000
     24      37.7438      0.00000
     25      41.3405      0.00000
     26      46.4675      0.00000
     27      48.9485      0.00000
     28      52.4695      0.00000
     29      54.0040      0.00000
     30      54.3767      0.00000
     31      54.8859      0.00000
     32      56.7448      0.00000
     33      58.0479      0.00000
     34      58.7149      0.00000
     35      59.2356      0.00000
     36      59.5180      0.00000
     37      62.8519      0.00000
     38      62.8916      0.00000
     39      63.2594      0.00000
     40      63.8089      0.00000

 k-point     7 :       0.0909    0.0909    0.0000
  band No.  band energies     occupation 
      1      -1.5424      2.00000
      2       1.9818      2.00000
      3       3.7341      2.00000
      4       3.8394      2.00000
      5       4.4359      2.00000
      6       4.4666      2.00000
      7       5.0697      2.00000
      8       5.2580      2.00003
      9       5.2871      2.00008
     10       5.5989      2.04742
     11       6.5824     -0.00003
     12       8.6595     -0.00000
     13      12.1093      0.00000
     14      25.3107      0.00000
     15      26.3202      0.00000
     16      28.5398      0.00000
     17      30.4838      0.00000
     18      31.8192      0.00000
     19      32.0180      0.00000
     20      32.6345      0.00000
     21      33.1854      0.00000
     22      38.0537      0.00000
     23      38.6701      0.00000
     24      38.7290      0.00000
     25      40.3206      0.00000
     26      40.4707      0.00000
     27      40.8889      0.00000
     28      46.8485      0.00000
     29      47.9868      0.00000
     30      48.2414      0.00000
     31      48.3264      0.00000
     32      52.2903      0.00000
     33      53.6520      0.00000
     34      53.6940      0.00000
     35      55.0356      0.00000
     36      56.4180      0.00000
     37      57.9778      0.00000
     38      60.1514      0.00000
     39      61.5692      0.00000
     40      62.6887      0.00000

 k-point     8 :       0.1818    0.0909    0.0000
  band No.  band energies     occupation 
      1      -0.4288      2.00000
      2       2.5472      2.00000
      3       3.0823      2.00000
      4       3.6122      2.00000
      5       4.1613      2.00000
      6       4.8076      2.00000
      7       4.8496      2.00000
      8       5.3709      2.00080
      9       5.6998      2.06331
     10       5.9329      0.85883
     11       6.5607     -0.00005
     12      10.3365     -0.00000
     13      12.3539      0.00000
     14      21.5663      0.00000
     15      24.0777      0.00000
     16      26.9678      0.00000
     17      28.9567      0.00000
     18      29.1939      0.00000
     19      31.4159      0.00000
     20      31.9438      0.00000
     21      33.1194      0.00000
     22      36.7868      0.00000
     23      37.9888      0.00000
     24      38.8256      0.00000
     25      41.9244      0.00000
     26      43.0645      0.00000
     27      44.9992      0.00000
     28      48.0786      0.00000
     29      49.8668      0.00000
     30      50.9234      0.00000
     31      51.0399      0.00000
     32      52.7647      0.00000
     33      53.9698      0.00000
     34      54.3317      0.00000
     35      55.2504      0.00000
     36      55.8720      0.00000
     37      59.1318      0.00000
     38      60.4502      0.00000
     39      62.3422      0.00000
     40      63.1288      0.00000

 k-point     9 :       0.2727    0.0909    0.0000
  band No.  band energies     occupation 
      1       0.9057      2.00000
      2       2.5397      2.00000
      3       2.6141      2.00000
      4       3.6738      2.00000
      5       4.2201      2.00000
      6       4.4866      2.00000
      7       5.0560      2.00000
      8       5.5110      2.01472
      9       6.3823     -0.00476
     10       6.5332     -0.00011
     11       6.7697     -0.00000
     12      12.2952      0.00000
     13      12.8216      0.00000
     14      17.8738      0.00000
     15      22.4628      0.00000
     16      23.5307      0.00000
     17      25.7283      0.00000
     18      27.9619      0.00000
     19      31.0693      0.00000
     20      32.4973      0.00000
     21      32.9759      0.00000
     22      36.2826      0.00000
     23      37.2144      0.00000
     24      39.9474      0.00000
     25      43.7114      0.00000
     26      46.2742      0.00000
     27      47.1627      0.00000
     28      47.2321      0.00000
     29      49.5981      0.00000
     30      51.5003      0.00000
     31      52.3373      0.00000
     32      54.4626      0.00000
     33      55.6723      0.00000
     34      56.5744      0.00000
     35      58.3666      0.00000
     36      60.3410      0.00000
     37      60.8142      0.00000
     38      61.1744      0.00000
     39      61.6636      0.00000
     40      63.2724      0.00000

 k-point    10 :       0.3636    0.0909    0.0000
  band No.  band energies     occupation 
      1       1.8109      2.00000
      2       2.2530      2.00000
      3       2.3500      2.00000
      4       4.0087      2.00000
      5       4.2343      2.00000
      6       4.5937      2.00000
      7       4.8001      2.00000
      8       6.3662     -0.00657
      9       6.5087     -0.00023
     10       6.8410     -0.00000
     11       7.8466     -0.00000
     12      12.4633      0.00000
     13      14.4085      0.00000
     14      16.1013      0.00000
     15      20.5345      0.00000
     16      21.1414      0.00000
     17      22.5663      0.00000
     18      27.1491      0.00000
     19      30.1782      0.00000
     20      32.0400      0.00000
     21      34.7433      0.00000
     22      36.6993      0.00000
     23      37.4660      0.00000
     24      39.1998      0.00000
     25      43.3184      0.00000
     26      46.1813      0.00000
     27      47.3932      0.00000
     28      49.5671      0.00000
     29      50.8164      0.00000
     30      53.1974      0.00000
     31      54.7542      0.00000
     32      56.6445      0.00000
     33      57.7889      0.00000
     34      58.8070      0.00000
     35      59.7455      0.00000
     36      60.6794      0.00000
     37      61.4351      0.00000
     38      62.4787      0.00000
     39      63.1912      0.00000
     40      64.0508      0.00000

 k-point    11 :       0.4545    0.0909    0.0000
  band No.  band energies     occupation 
      1       2.0433      2.00000
      2       2.1015      2.00000
      3       2.2674      2.00000
      4       4.1434      2.00000
      5       4.4019      2.00000
      6       4.6654      2.00000
      7       4.7036      2.00000
      8       6.4980     -0.00031
      9       6.8656     -0.00000
     10       6.8902     -0.00000
     11       9.0006     -0.00000
     12      10.9268     -0.00000
     13      15.8745      0.00000
     14      16.7056      0.00000
     15      18.7886      0.00000
     16      19.9748      0.00000
     17      21.4498      0.00000
     18      26.8650      0.00000
     19      29.8114      0.00000
[...]
     18      24.4166      0.00000
     19      29.6011      0.00000
     20      30.5393      0.00000
     21      33.3242      0.00000
     22      33.6787      0.00000
     23      38.6332      0.00000
     24      39.7401      0.00000
     25      45.1053      0.00000
     26      46.7988      0.00000
     27      48.9822      0.00000
     28      50.0960      0.00000
     29      51.5536      0.00000
     30      53.2976      0.00000
     31      56.2740      0.00000
     32      56.6585      0.00000
     33      57.7485      0.00000
     34      58.3122      0.00000
     35      59.9431      0.00000
     36      60.4398      0.00000
     37      61.1225      0.00000
     38      61.7361      0.00000
     39      63.3178      0.00000
     40      63.7650      0.00000

 k-point    91 :       0.4545    0.0909    0.4545
  band No.  band energies     occupation 
      1       1.7539      2.00000
      2       1.8669      2.00000
      3       2.9443      2.00000
      4       2.9924      2.00000
      5       5.0496      2.00000
      6       5.3783      2.00095
      7       5.9332      0.85616
      8       6.2059     -0.05970
      9       6.6799     -0.00000
     10       6.7335     -0.00000
     11       8.9621     -0.00000
     12       9.3852     -0.00000
     13      14.7023      0.00000
     14      14.7320      0.00000
     15      22.8809      0.00000
     16      23.5124      0.00000
     17      23.9500      0.00000
     18      24.2958      0.00000
     19      29.0885      0.00000
     20      29.4511      0.00000
     21      32.8194      0.00000
     22      32.8410      0.00000
     23      38.6611      0.00000
     24      39.7666      0.00000
     25      45.1733      0.00000
     26      46.8270      0.00000
     27      50.9131      0.00000
     28      52.7483      0.00000
     29      54.1120      0.00000
     30      54.3970      0.00000
     31      54.8170      0.00000
     32      54.8481      0.00000
     33      57.8132      0.00000
     34      58.1443      0.00000
     35      61.2925      0.00000
     36      61.4089      0.00000
     37      61.9342      0.00000
     38      62.3125      0.00000
     39      63.3582      0.00000
     40      64.7395      0.00000

 k-point    92 :       0.1818    0.1818    0.4545
  band No.  band energies     occupation 
      1       1.6107      2.00000
      2       1.8868      2.00000
      3       3.4341      2.00000
      4       3.4925      2.00000
      5       3.8737      2.00000
      6       3.9116      2.00000
      7       5.3699      2.00078
      8       5.5619      2.03113
      9       6.4814     -0.00048
     10       6.6423     -0.00000
     11       7.0688     -0.00000
     12       7.4845     -0.00000
     13      20.2425      0.00000
     14      20.9559      0.00000
     15      21.5231      0.00000
     16      22.0654      0.00000
     17      22.6231      0.00000
     18      23.3184      0.00000
     19      33.6415      0.00000
     20      34.7009      0.00000
     21      35.4257      0.00000
     22      36.4777      0.00000
     23      37.6881      0.00000
     24      37.8905      0.00000
     25      43.3089      0.00000
     26      43.6351      0.00000
     27      47.0906      0.00000
     28      48.7957      0.00000
     29      50.4120      0.00000
     30      50.6319      0.00000
     31      52.7706      0.00000
     32      53.4535      0.00000
     33      56.0364      0.00000
     34      56.1798      0.00000
     35      57.8564      0.00000
     36      58.2943      0.00000
     37      60.9765      0.00000
     38      61.5233      0.00000
     39      63.2764      0.00000
     40      63.3048      0.00000

 k-point    93 :       0.2727    0.1818    0.4545
  band No.  band energies     occupation 
      1       2.0939      2.00000
      2       2.1942      2.00000
      3       3.2584      2.00000
      4       3.4086      2.00000
      5       4.1904      2.00000
      6       4.2992      2.00000
      7       5.2461      2.00002
      8       5.4408      2.00395
      9       6.5697     -0.00004
     10       6.8074     -0.00000
     11       8.4589     -0.00000
     12       8.9056     -0.00000
     13      17.7974      0.00000
     14      18.3120      0.00000
     15      20.4084      0.00000
     16      21.0580      0.00000
     17      22.5800      0.00000
     18      24.1029      0.00000
     19      31.2286      0.00000
     20      32.7974      0.00000
     21      33.7059      0.00000
     22      35.1971      0.00000
     23      38.7309      0.00000
     24      39.1638      0.00000
     25      44.9652      0.00000
     26      45.4833      0.00000
     27      48.2701      0.00000
     28      50.2178      0.00000
     29      51.7209      0.00000
     30      53.3176      0.00000
     31      54.8139      0.00000
     32      55.7498      0.00000
     33      57.8862      0.00000
     34      58.1339      0.00000
     35      59.0040      0.00000
     36      59.4969      0.00000
     37      59.9685      0.00000
     38      60.4765      0.00000
     39      63.1731      0.00000
     40      63.6154      0.00000

 k-point    94 :       0.3636    0.1818    0.4545
  band No.  band energies     occupation 
      1       2.1791      2.00000
      2       2.2986      2.00000
      3       3.1833      2.00000
      4       3.3181      2.00000
      5       4.3359      2.00000
      6       4.5897      2.00000
      7       5.5039      2.01306
      8       5.5959      2.04603
      9       6.5554     -0.00006
     10       6.7042     -0.00000
     11      10.1012     -0.00000
     12      10.4955     -0.00000
     13      15.1981      0.00000
     14      15.5516      0.00000
     15      19.8457      0.00000
     16      20.5192      0.00000
     17      24.1350      0.00000
     18      25.1364      0.00000
     19      29.4365      0.00000
     20      30.4240      0.00000
     21      32.9483      0.00000
     22      34.3877      0.00000
     23      39.1556      0.00000
     24      39.5150      0.00000
     25      48.2661      0.00000
     26      49.1078      0.00000
     27      49.2389      0.00000
     28      50.5447      0.00000
     29      52.3286      0.00000
     30      53.6724      0.00000
     31      54.0148      0.00000
     32      54.7630      0.00000
     33      56.9732      0.00000
     34      57.8573      0.00000
     35      59.1655      0.00000
     36      60.6323      0.00000
     37      62.1259      0.00000
     38      62.5303      0.00000
     39      63.0658      0.00000
     40      63.4024      0.00000

 k-point    95 :       0.2727    0.2727    0.4545
  band No.  band energies     occupation 
      1       2.5509      2.00000
      2       2.5892      2.00000
      3       3.3729      2.00000
      4       3.5547      2.00000
      5       3.9205      2.00000
      6       4.0814      2.00000
      7       5.1099      2.00000
      8       5.2810      2.00007
      9       6.5660     -0.00004
     10       6.7312     -0.00000
     11      10.4680     -0.00000
     12      10.9433     -0.00000
     13      16.4179      0.00000
     14      16.7800      0.00000
     15      17.9304      0.00000
     16      18.2770      0.00000
     17      24.2548      0.00000
     18      25.7131      0.00000
     19      29.6332      0.00000
     20      30.8584      0.00000
     21      32.5634      0.00000
     22      33.5239      0.00000
     23      41.8131      0.00000
     24      42.1924      0.00000
     25      45.2987      0.00000
     26      45.4190      0.00000
     27      50.6762      0.00000
     28      52.3306      0.00000
     29      52.8982      0.00000
     30      53.1238      0.00000
     31      55.1456      0.00000
     32      55.3019      0.00000
     33      56.5670      0.00000
     34      56.6189      0.00000
     35      57.5283      0.00000
     36      58.1986      0.00000
     37      62.2086      0.00000
     38      62.6689      0.00000
     39      63.5682      0.00000
     40      63.5821      0.00000

 k-point    96 :       0.3636    0.2727    0.4545
  band No.  band energies     occupation 
      1       2.7423      2.00000
      2       2.8472      2.00000
      3       3.3497      2.00000
      4       3.4455      2.00000
      5       3.8826      2.00000
      6       4.0044      2.00000
      7       5.1418      2.00000
      8       5.2705      2.00005
      9       6.5528     -0.00006
     10       6.6110     -0.00001
     11      12.2429      0.00000
     12      12.3638      0.00000
     13      14.7455      0.00000
     14      15.0141      0.00000
     15      17.2862      0.00000
     16      17.7199      0.00000
     17      25.9826      0.00000
     18      26.4815      0.00000
     19      28.5925      0.00000
     20      29.0356      0.00000
     21      32.2167      0.00000
     22      32.9879      0.00000
     23      42.7967      0.00000
     24      43.3939      0.00000
     25      47.4274      0.00000
     26      47.8738      0.00000
     27      49.3744      0.00000
     28      49.7957      0.00000
     29      52.4385      0.00000
     30      52.9922      0.00000
     31      54.9208      0.00000
     32      55.3945      0.00000
     33      55.9615      0.00000
     34      56.5414      0.00000
     35      58.6794      0.00000
     36      59.2790      0.00000
     37      60.4422      0.00000
     38      61.1028      0.00000
     39      64.8818      0.00000
     40      64.8931      0.00000


--------------------------------------------------------------------------------------------------------


 soft charge-density along one line, spin component           1
         0         1         2         3         4         5         6         7         8         9
x     7.7491    0.0000    0.1176   -0.2036   -0.0615   -0.1065    0.0137   -0.0000    0.0020   -0.0034
x     0.0000    0.0000
y     7.7491    0.0000    0.1176    0.2036   -0.0615    0.1065    0.0137    0.0000    0.0020    0.0034
y     0.0000    0.0000
z     7.7491    0.0000    0.0000    0.0000    0.7279    0.0000    0.0000    0.0000   -0.1863    0.0000
z     0.0000    0.0000    0.0045    0.0000    0.0000    0.0000    0.0116   -0.0000    0.0000    0.0000
 total charge-density along one line
x    16.0000    0.0000    1.5350   -2.6588    0.3393    0.5878    0.0546   -0.0000   -0.0001    0.0001
x     0.0007    0.0012   -0.0013    0.0000    0.0002   -0.0003   -0.0001   -0.0001    0.0002   -0.0000
x    -0.0001    0.0000
y    16.0000    0.0000    1.5350    2.6588    0.3393   -0.5878    0.0546    0.0000   -0.0001   -0.0001
y     0.0007   -0.0012   -0.0013   -0.0000    0.0002    0.0003   -0.0001    0.0001    0.0002    0.0000
y    -0.0001   -0.0000
z    16.0000    0.0000   -0.0000    0.0000    6.5880   -0.0000   -0.0000    0.0000    1.6875   -0.0000
z    -0.0000   -0.0000    0.1141   -0.0000   -0.0000   -0.0000   -0.0070    0.0000   -0.0000    0.0000
z     0.0064   -0.0000    0.0000   -0.0000   -0.0025    0.0000    0.0000   -0.0000    0.0011    0.0000
z     0.0000   -0.0000   -0.0006    0.0000   -0.0000    0.0000    0.0005   -0.0000
 
 pseudopotential strength for first ion, spin component:           1
 -5.012  -0.000  -0.000  -0.000  -0.000  -5.560  -0.000  -0.000
 -0.000  -5.004  -0.000  -0.000   0.000  -0.000  -5.552  -0.000
 -0.000  -0.000  -5.012  -0.000  -0.000  -0.000  -0.000  -5.560
 -0.000  -0.000  -0.000  -5.004  -0.000  -0.000  -0.000  -0.000
 -0.000   0.000  -0.000  -0.000  -5.012  -0.000   0.000  -0.000
 -5.560  -0.000  -0.000  -0.000  -0.000  -6.066  -0.000  -0.000
 -0.000  -5.552  -0.000  -0.000   0.000  -0.000  -6.058  -0.000
 -0.000  -0.000  -5.560  -0.000  -0.000  -0.000  -0.000  -6.066
 -0.000  -0.000  -0.000  -5.552  -0.000  -0.000  -0.000  -0.000
 -0.000   0.000  -0.000  -0.000  -5.560  -0.000   0.000  -0.000
  0.000   0.000   0.001   0.000  -0.000   0.000   0.000   0.001
  0.000   0.000   0.002   0.000  -0.000   0.000   0.000   0.002
 -0.000   0.000   0.000   0.000  -0.001  -0.000   0.000   0.000
  0.000  -0.000   0.000  -0.000   0.000   0.000  -0.000   0.000
 -0.001   0.000   0.000   0.000  -0.000  -0.001   0.000   0.000
 -0.000   0.000   0.000   0.000  -0.001  -0.000   0.000   0.000
  0.000  -0.000   0.000  -0.000   0.000   0.000  -0.000   0.000
 -0.001   0.000   0.000   0.000  -0.000  -0.001   0.000   0.000
 total augmentation occupancy for first ion, spin component:           1
  1.500  -0.000   0.000   0.000   0.000  -0.700   0.000  -0.000   0.000  -0.000   0.000  -0.000   0.000   0.000   0.027  -0.000
 -0.000   2.093  -0.000  -0.000   0.000   0.000  -1.009   0.000   0.000  -0.000   0.000   0.000   0.000  -0.000  -0.000   0.000
  0.000   0.000   1.265  -0.000  -0.000  -0.000   0.000  -0.478   0.000   0.000   0.071  -0.013   0.000   0.000   0.000  -0.000
  0.000  -0.000  -0.000   2.093  -0.000   0.000   0.000   0.000  -1.009   0.000   0.000  -0.000   0.000  -0.000   0.000   0.000
  0.000   0.000  -0.000   0.000   1.500   0.000   0.000   0.000   0.000  -0.700   0.000  -0.000   0.027   0.000  -0.000  -0.001
 -0.700  -0.000  -0.000   0.000   0.000   1.262   0.000   0.000  -0.000   0.000  -0.000   0.000  -0.000   0.000  -0.038   0.000
 -0.000  -1.009   0.000   0.000   0.000   0.000   1.258   0.000  -0.000   0.000   0.000   0.000  -0.000  -0.000   0.000   0.000
 -0.000  -0.000  -0.478   0.000   0.000   0.000   0.000   1.032  -0.000  -0.000  -0.171   0.016  -0.000   0.000   0.000  -0.000
  0.000   0.000   0.000  -1.009   0.000   0.000  -0.000  -0.000   1.258  -0.000  -0.000   0.000   0.000   0.000   0.000   0.000
  0.000   0.000   0.000   0.000  -0.700  -0.000   0.000  -0.000   0.000   1.262  -0.000   0.000  -0.038  -0.000   0.000   0.003
  0.000  -0.000   0.071   0.000   0.000  -0.000   0.000  -0.171   0.000  -0.000   2.399  -0.262  -0.000   0.000   0.000  -0.000
 -0.000   0.000  -0.013  -0.000  -0.000   0.000  -0.000   0.016   0.000   0.000  -0.262   0.033   0.000   0.000   0.000   0.000
  0.000  -0.000   0.000   0.000   0.027  -0.000   0.000   0.000   0.000  -0.038  -0.000   0.000   0.308  -0.000  -0.000  -0.025
  0.000   0.000   0.000  -0.000  -0.000   0.000   0.000   0.000   0.000  -0.000   0.000   0.000   0.000   0.273  -0.000  -0.000
  0.027   0.000   0.000   0.000  -0.000  -0.038   0.000   0.000   0.000   0.000  -0.000   0.000  -0.000   0.000   0.308   0.000
 -0.000   0.000  -0.000   0.000  -0.001   0.000   0.000   0.000   0.000   0.003  -0.000   0.000  -0.025  -0.000   0.000   0.002
  0.000   0.000   0.000  -0.000  -0.000   0.000   0.000   0.000   0.000   0.000   0.000   0.000  -0.000  -0.025  -0.000   0.000
 -0.001   0.000   0.000   0.000   0.000   0.003  -0.000   0.000   0.000  -0.000   0.000  -0.000   0.000   0.000  -0.025  -0.000


------------------------ aborting loop because EDIFF is reached ----------------------------------------


    CHARGE:  cpu time    0.0197: real time    0.0197
    FORLOC:  cpu time    0.0002: real time    0.0002
    FORNL :  cpu time    0.1044: real time    0.1044
    STRESS:  cpu time    0.1541: real time    0.1540
    FORCOR:  cpu time    0.0035: real time    0.0035
    FORHAR:  cpu time    0.0008: real time    0.0008
    MIXING:  cpu time    0.0002: real time    0.0002

  FORCE on cell =-STRESS in cart. coord.  units (eV):
  Direction    XX          YY          ZZ          XY          YZ          ZX
  --------------------------------------------------------------------------------------
  Alpha Z   123.78301   123.78301   123.78301
  Ewald    -375.78812  -375.78812  -437.25753     0.00000    -0.00000    -0.00000
  Hartree    70.90247    70.90247    45.93667    -0.00000    -0.00000    -0.00000
  E(xc)     -77.77960   -77.77975   -77.48761     0.00038     0.00000     0.00000
  Local      88.78248    88.78273   172.81130    -0.00093     0.00000     0.00000
  n-local   -54.54775   -53.46620   -56.43668    -3.62672     1.33291     0.81952
  augment    76.02575    76.02478    76.31065     0.00143     0.00000    -0.00000
  Kinetic   150.64259   144.21978   145.58229     1.76265    -0.78117     0.34413
  Fock        0.00000     0.00000     0.00000     0.00000     0.00000     0.00000
  -------------------------------------------------------------------------------------
  Total      -0.65023    -0.65023    -6.75791     0.00000    -0.00000     0.00000
  in kB     -46.64629   -46.64629  -484.79650     0.00000    -0.00000     0.00000
  external pressure =     -192.70 kB  Pullay stress =        0.00 kB


 VOLUME and BASIS-vectors are now :
 -----------------------------------------------------------------------------
  energy-cutoff  :      280.00
  volume of cell :       22.33
      direct lattice vectors                 reciprocal lattice vectors
     2.423200000  0.000000000  0.000000000     0.412677451  0.238259438  0.000000000
    -1.211600000  2.098552758  0.000000000     0.000000000  0.476518875  0.000000000
     0.000000000  0.000000000  4.391920000     0.000000000  0.000000000  0.227690850

  length of vectors
     2.423200000  2.423200000  4.391920000     0.476518875  0.476518875  0.227690850


 FORCES acting on ions
    electron-ion (+dipol)            ewald-force                    non-local-force                 convergence-correction
 -----------------------------------------------------------------------------------------------
   0.186E-05 -.161E-05 0.569E-14   0.466E-12 -.250E-12 -.227E-13   -.595E-17 0.926E-18 -.129E-20   -.380E-09 0.725E-10 -.281E-13
   0.114E-04 0.543E-05 0.278E-12   -.465E-12 0.244E-12 0.227E-13   0.476E-17 -.325E-17 0.343E-19   0.344E-09 -.477E-10 0.466E-13
 -----------------------------------------------------------------------------------------------
   0.133E-04 0.382E-05 0.284E-12   0.737E-15 -.691E-14 0.519E-17   -.119E-17 -.232E-17 0.330E-19   -.360E-10 0.248E-10 0.185E-13
 
 
 POSITION                                       TOTAL-FORCE (eV/Angst)
 -----------------------------------------------------------------------------------
      0.00000      0.00000      0.00000         0.000000     -0.000000     -0.000000
      0.00000      1.39904      2.19596        -0.000000      0.000000      0.000000
 -----------------------------------------------------------------------------------
    total drift:                                0.000013      0.000004      0.000000


--------------------------------------------------------------------------------------------------------



  FREE ENERGIE OF THE ION-ELECTRON SYSTEM (eV)
  ---------------------------------------------------
  free  energy   TOTEN  =       -15.87751833 eV

  energy  without entropy=      -15.88116375  energy(sigma->0) =      -15.87873347
 


--------------------------------------------------------------------------------------------------------


    POTLOK:  cpu time    0.0054: real time    0.0055


--------------------------------------------------------------------------------------------------------


 writing wavefunctions
     LOOP+:  cpu time   10.0648: real time   10.0850
    4ORBIT:  cpu time    0.0000: real time    0.0000

 total amount of memory used by VASP MPI-rank0    52028. kBytes
=======================================================================

   base      :      30000. kBytes
   nonl-proj :       3491. kBytes
   grid      :        812. kBytes
   one-center:         31. kBytes
   wavefun   :      17694. kBytes
 
  
  
 General timing and accounting informations for this job:
 ========================================================
  
                  Total CPU time used (sec):       10.259
                            User time (sec):       10.215
                          System time (sec):        0.044
                         Elapsed time (sec):       10.268
  
                   Maximum memory used (kb):       56936.
                   Average memory used (kb):          N/A
  
                          Minor page faults:         7872
                          Major page faults:            0
                 Voluntary context switches:           26
