<?xml version="1.0" encoding="ISO-8859-1"?>
<modeling>
 <generator>
  <i name="program" type="string">vasp </i>
  <i name="version" type="string">6.2.0  </i>
  <i name="subversion" type="string">18Jan21 (build Mar 17 2021 09:06:54) complex                          serial </i>
  <i name="platform" type="string">LinuxIFC </i>
  <i name="date" type="string">2021 09 09 </i>
  <i name="time" type="string">12:11:04 </i>
 </generator>
 <incar>
  <i type="string" name="PREC">normal</i>
  <i type="int" name="ICHARG">     1</i>
  <i type="int" name="IBRION">     1</i>
  <i name="EDIFF">      0.00000100</i>
  <i type="int" name="NSW">     0</i>
  <i type="int" name="ISIF">     2</i>
  <i name="ENCUT">    280.00000000</i>
  <i type="int" name="NBANDS">    40</i>
  <i type="int" name="ISMEAR">     1</i>
  <i name="SIGMA">      0.20000000</i>
  <i type="logical" name="LCHARG"> T  </i>
  <i type="int" name="KPAR">     1</i>
  <i type="int" name="NCORE">     1</i>
  <i type="string" name="GGA">PE</i>
 </incar>
 <primitive_cell>
  <structure name="primitive_cell" >
   <crystal>
    <varray name="basis" >
     <v>       2.42320000       0.00000000       0.00000000 </v>
     <v>      -1.21160000       2.09855276       0.00000000 </v>
     <v>       0.00000000       0.00000000       4.39192000 </v>
    </varray>
    <i name="volume">     22.33384887 </i>
    <varray name="rec_basis" >
     <v>       0.41267745       0.23825944       0.00000000 </v>
     <v>       0.00000000       0.47651888       0.00000000 </v>
     <v>       0.00000000       0.00000000       0.22769085 </v>
    </varray>
   </crystal>
   <varray name="positions" >
    <v>       0.00000000       0.00000000       0.00000000 </v>
    <v>       0.33333333       0.66666667       0.50000000 </v>
   </varray>
  </structure>
  <varray name="primitive_index" >
   <v type="int" >        1 </v>
   <v type="int" >        2 </v>
  </varray>
 </primitive_cell>
 <kpoints>
  <generation param="Monkhorst-Pack">
   <v type="int" name="divisions">      11       11       11 </v>
   <v name="usershift">      0.00000000       0.00000000       0.00000000 </v>
   <v name="genvec1">      0.09090909       0.00000000       0.00000000 </v>
   <v name="genvec2">      0.00000000       0.09090909       0.00000000 </v>
   <v name="genvec3">      0.00000000       0.00000000       0.09090909 </v>
   <v name="shift">      0.00000000       0.00000000       0.00000000 </v>
  </generation>
  <varray name="kpointlist" >
   <v>       0.00000000       0.00000000       0.00000000 </v>
   <v>       0.09090909       0.00000000       0.00000000 </v>
   <v>       0.18181818      -0.00000000       0.00000000 </v>
   <v>       0.27272727      -0.00000000       0.00000000 </v>
   <v>       0.36363636      -0.00000000       0.00000000 </v>
   <v>       0.45454545       0.00000000       0.00000000 </v>
   <v>       0.09090909       0.09090909       0.00000000 </v>
   <v>       0.18181818       0.09090909       0.00000000 </v>
   <v>       0.27272727       0.09090909       0.00000000 </v>
   <v>       0.36363636       0.09090909       0.00000000 </v>
   <v>       0.45454545       0.09090909       0.00000000 </v>
   <v>       0.18181818       0.18181818       0.00000000 </v>
   <v>       0.27272727       0.18181818       0.00000000 </v>
   <v>       0.36363636       0.18181818       0.00000000 </v>
   <v>       0.27272727       0.27272727       0.00000000 </v>
   <v>       0.36363636       0.27272727       0.00000000 </v>
   <v>       0.00000000       0.00000000       0.09090909 </v>
   <v>       0.09090909       0.00000000       0.09090909 </v>
   <v>       0.18181818      -0.00000000       0.09090909 </v>
   <v>       0.27272727      -0.00000000       0.09090909 </v>
   <v>       0.36363636      -0.00000000       0.09090909 </v>
   <v>       0.45454545       0.00000000       0.09090909 </v>
   <v>       0.09090909       0.09090909       0.09090909 </v>
   <v>       0.18181818       0.09090909       0.09090909 </v>
   <v>       0.27272727       0.09090909       0.09090909 </v>
   <v>       0.36363636       0.09090909       0.09090909 </v>
   <v>       0.45454545       0.09090909       0.09090909 </v>
   <v>       0.18181818       0.18181818       0.09090909 </v>
   <v>       0.27272727       0.18181818       0.09090909 </v>
   <v>       0.36363636       0.18181818       0.09090909 </v>
   <v>       0.27272727       0.27272727       0.09090909 </v>
   <v>       0.36363636       0.27272727       0.09090909 </v>
   <v>       0.00000000       0.00000000       0.18181818 </v>
   <v>       0.09090909       0.00000000       0.18181818 </v>
   <v>       0.18181818      -0.00000000       0.18181818 </v>
   <v>       0.27272727      -0.00000000       0.18181818 </v>
   <v>       0.36363636      -0.00000000       0.18181818 </v>
   <v>       0.45454545       0.00000000       0.18181818 </v>
   <v>       0.09090909       0.09090909       0.18181818 </v>
   <v>       0.18181818       0.09090909       0.18181818 </v>
   <v>       0.27272727       0.09090909       0.18181818 </v>
   <v>       0.36363636       0.09090909       0.18181818 </v>
   <v>       0.45454545       0.09090909       0.18181818 </v>
   <v>       0.18181818       0.18181818       0.18181818 </v>
   <v>       0.27272727       0.18181818       0.18181818 </v>
   <v>       0.36363636       0.18181818       0.18181818 </v>
   <v>       0.27272727       0.27272727       0.18181818 </v>
   <v>       0.36363636       0.27272727       0.18181818 </v>
   <v>       0.00000000       0.00000000       0.27272727 </v>
   <v>       0.09090909       0.00000000       0.27272727 </v>
   <v>       0.18181818      -0.00000000       0.27272727 </v>
   <v>       0.27272727      -0.00000000       0.27272727 </v>
   <v>       0.36363636      -0.00000000       0.27272727 </v>
   <v>       0.45454545       0.00000000       0.27272727 </v>
   <v>       0.09090909       0.09090909       0.27272727 </v>
   <v>       0.18181818       0.09090909       0.27272727 </v>
   <v>       0.27272727       0.09090909       0.27272727 </v>
   <v>       0.36363636       0.09090909       0.27272727 </v>
   <v>       0.45454545       0.09090909       0.27272727 </v>
   <v>       0.18181818       0.18181818       0.27272727 </v>
   <v>       0.27272727       0.18181818       0.27272727 </v>
   <v>       0.36363636       0.18181818       0.27272727 </v>
   <v>       0.27272727       0.27272727       0.27272727 </v>
   <v>       0.36363636       0.27272727       0.27272727 </v>
   <v>       0.00000000       0.00000000       0.36363636 </v>
   <v>       0.09090909       0.00000000       0.36363636 </v>
   <v>       0.18181818      -0.00000000       0.36363636 </v>
   <v>       0.27272727      -0.00000000       0.36363636 </v>
   <v>       0.36363636      -0.00000000       0.36363636 </v>
   <v>       0.45454545       0.00000000       0.36363636 </v>
   <v>       0.09090909       0.09090909       0.36363636 </v>
   <v>       0.18181818       0.09090909       0.36363636 </v>
   <v>       0.27272727       0.09090909       0.36363636 </v>
   <v>       0.36363636       0.09090909       0.36363636 </v>
   <v>       0.45454545       0.09090909       0.36363636 </v>
   <v>       0.18181818       0.18181818       0.36363636 </v>
   <v>       0.27272727       0.18181818       0.36363636 </v>
   <v>       0.36363636       0.18181818       0.36363636 </v>
   <v>       0.27272727       0.27272727       0.36363636 </v>
   <v>       0.36363636       0.27272727       0.36363636 </v>
   <v>       0.00000000       0.00000000       0.45454545 </v>
   <v>       0.09090909       0.00000000       0.45454545 </v>
   <v>       0.18181818      -0.00000000       0.45454545 </v>
   <v>       0.27272727      -0.00000000       0.45454545 </v>
   <v>       0.36363636      -0.00000000       0.45454545 </v>
   <v>       0.45454545       0.00000000       0.45454545 </v>
   <v>       0.09090909       0.09090909       0.45454545 </v>
   <v>       0.18181818       0.09090909       0.45454545 </v>
   <v>       0.27272727       0.09090909       0.45454545 </v>
   <v>       0.36363636       0.09090909       0.45454545 </v>
   <v>       0.45454545       0.09090909       0.45454545 </v>
   <v>       0.18181818       0.18181818       0.45454545 </v>
   <v>       0.27272727       0.18181818       0.45454545 </v>
   <v>       0.36363636       0.18181818       0.45454545 </v>
   <v>       0.27272727       0.27272727       0.45454545 </v>
   <v>       0.36363636       0.27272727       0.45454545 </v>
  </varray>
  <varray name="weights" >
   <v>       0.00075131 </v>
   <v>       0.00450789 </v>
   <v>       0.00450789 </v>
   <v>       0.00450789 </v>
   <v>       0.00450789 </v>
   <v>       0.00450789 </v>
   <v>       0.00450789 </v>
   <v>       0.00901578 </v>
   <v>       0.00901578 </v>
   <v>       0.00901578 </v>
   <v>       0.00450789 </v>
   <v>       0.00450789 </v>
   <v>       0.00901578 </v>
   <v>       0.00901578 </v>
   <v>       0.00450789 </v>
   <v>       0.00450789 </v>
   <v>       0.00150263 </v>
   <v>       0.00901578 </v>
   <v>       0.00901578 </v>
   <v>       0.00901578 </v>
   <v>       0.00901578 </v>
   <v>       0.00901578 </v>
   <v>       0.00901578 </v>
   <v>       0.01803156 </v>
   <v>       0.01803156 </v>
   <v>       0.01803156 </v>
   <v>       0.00901578 </v>
   <v>       0.00901578 </v>
   <v>       0.01803156 </v>
   <v>       0.01803156 </v>
   <v>       0.00901578 </v>
   <v>       0.00901578 </v>
   <v>       0.00150263 </v>
   <v>       0.00901578 </v>
   <v>       0.00901578 </v>
   <v>       0.00901578 </v>
   <v>       0.00901578 </v>
   <v>       0.00901578 </v>
   <v>       0.00901578 </v>
   <v>       0.01803156 </v>
   <v>       0.01803156 </v>
   <v>       0.01803156 </v>
   <v>       0.00901578 </v>
   <v>       0.00901578 </v>
   <v>       0.01803156 </v>
   <v>       0.01803156 </v>
   <v>       0.00901578 </v>
   <v>       0.00901578 </v>
   <v>       0.00150263 </v>
   <v>       0.00901578 </v>
   <v>       0.00901578 </v>
   <v>       0.00901578 </v>
   <v>       0.00901578 </v>
   <v>       0.00901578 </v>
   <v>       0.00901578 </v>
   <v>       0.01803156 </v>
   <v>       0.01803156 </v>
   <v>       0.01803156 </v>
   <v>       0.00901578 </v>
   <v>       0.00901578 </v>
   <v>       0.01803156 </v>
   <v>       0.01803156 </v>
   <v>       0.00901578 </v>
   <v>       0.00901578 </v>
   <v>       0.00150263 </v>
   <v>       0.00901578 </v>
   <v>       0.00901578 </v>
   <v>       0.00901578 </v>
   <v>       0.00901578 </v>
   <v>       0.00901578 </v>
   <v>       0.00901578 </v>
   <v>       0.01803156 </v>
   <v>       0.01803156 </v>
   <v>       0.01803156 </v>
   <v>       0.00901578 </v>
   <v>       0.00901578 </v>
   <v>       0.01803156 </v>
   <v>       0.01803156 </v>
   <v>       0.00901578 </v>
   <v>       0.00901578 </v>
   <v>       0.00150263 </v>
   <v>       0.00901578 </v>
   <v>       0.00901578 </v>
   <v>       0.00901578 </v>
   <v>       0.00901578 </v>
   <v>       0.00901578 </v>
   <v>       0.00901578 </v>
   <v>       0.01803156 </v>
   <v>       0.01803156 </v>
   <v>       0.01803156 </v>
   <v>       0.00901578 </v>
   <v>       0.00901578 </v>
   <v>       0.01803156 </v>
   <v>       0.01803156 </v>
   <v>       0.00901578 </v>
   <v>       0.00901578 </v>
  </varray>
 </kpoints>
 <parameters>
  <separator name="general" >
   <i type="string" name="SYSTEM">unknown system</i>
   <i type="logical" name="LCOMPAT"> F  </i>
  </separator>
  <separator name="electronic" >
   <i type="string" name="PREC">normal</i>
   <i name="ENMAX">    280.00000000</i>
   <i name="ENAUG">    511.36800000</i>
   <i name="EDIFF">      0.00000100</i>
   <i type="int" name="IALGO">    38</i>
   <i type="int" name="IWAVPR">     0</i>
   <i type="int" name="NBANDS">    40</i>
   <i type="int" name="NBANDSLOW">    -1</i>
   <i type="int" name="NBANDSHIGH">    -1</i>
   <i name="NELECT">     16.00000000</i>
   <i type="int" name="TURBO">     0</i>
   <i type="int" name="IRESTART">     0</i>
   <i type="int" name="NREBOOT">     0</i>
   <i type="int" name="NMIN">     0</i>
   <i name="EREF">      0.00000000</i>
   <separator name="electronic smearing" >
    <i type="int" name="ISMEAR">     1</i>
    <i name="SIGMA">      0.20000000</i>
    <i name="KSPACING">      0.50000000</i>
    <i type="logical" name="KGAMMA"> T  </i>
    <i type="logical" name="KBLOWUP"> T  </i>
   </separator>
   <separator name="electronic projectors" >
    <i type="logical" name="LREAL"> F  </i>
    <v name="ROPT">      0.00000000</v>
    <i type="int" name="LMAXPAW">  -100</i>
    <i type="int" name="LMAXMIX">     2</i>
    <i type="logical" name="NLSPLINE"> F  </i>
   </separator>
   <separator name="electronic startup" >
    <i type="int" name="ISTART">     0</i>
    <i type="int" name="ICHARG">     1</i>
    <i type="int" name="INIWAV">     1</i>
   </separator>
   <separator name="electronic spin" >
    <i type="int" name="ISPIN">     1</i>
    <i type="logical" name="LNONCOLLINEAR"> F  </i>
    <v name="MAGMOM">      1.00000000      1.00000000</v>
    <i name="NUPDOWN">     -1.00000000</i>
    <i type="logical" name="LSORBIT"> F  </i>
    <v name="SAXIS">      0.00000000      0.00000000      1.00000000</v>
    <i type="logical" name="LSPIRAL"> F  </i>
    <v name="QSPIRAL">      0.00000000      0.00000000      0.00000000</v>
    <i type="logical" name="LZEROZ"> F  </i>
   </separator>
   <separator name="electronic exchange-correlation" >
    <i type="logical" name="LASPH"> F  </i>
    <i type="logical" name="LMETAGGA"> F  </i>
   </separator>
   <separator name="electronic convergence" >
    <i type="int" name="NELM">    60</i>
    <i type="int" name="NELMDL">    -5</i>
    <i type="int" name="NELMIN">     2</i>
    <i name="ENINI">    280.00000000</i>
    <separator name="electronic convergence detail" >
     <i type="logical" name="LDIAG"> T  </i>
     <i type="logical" name="LSUBROT"> F  </i>
     <i name="WEIMIN">      0.00000000</i>
     <i name="EBREAK">      0.00000001</i>
     <i name="DEPER">      0.30000000</i>
     <i type="int" name="NRMM">     4</i>
     <i name="TIME">      0.40000000</i>
    </separator>
   </separator>
   <separator name="electronic mixer" >
    <i name="AMIX">      0.40000000</i>
    <i name="BMIX">      1.00000000</i>
    <i name="AMIN">      0.10000000</i>
    <i name="AMIX_MAG">      1.60000000</i>
    <i name="BMIX_MAG">      1.00000000</i>
    <separator name="electronic mixer details" >
     <i type="int" name="IMIX">     4</i>
     <i type="logical" name="MIXFIRST"> F  </i>
     <i type="int" name="MAXMIX">   -45</i>
     <i name="WC">    100.00000000</i>
     <i type="int" name="INIMIX">     1</i>
     <i type="int" name="MIXPRE">     1</i>
     <i type="int" name="MREMOVE">     5</i>
    </separator>
   </separator>
   <separator name="electronic dipolcorrection" >
    <i type="logical" name="LDIPOL"> F  </i>
    <i type="logical" name="LMONO"> F  </i>
    <i type="int" name="IDIPOL">     0</i>
    <i name="EPSILON">      1.00000000</i>
    <v name="DIPOL">   -100.00000000   -100.00000000   -100.00000000</v>
    <i name="EFIELD">      0.00000000</i>
   </separator>
  </separator>
  <separator name="grids" >
   <i type="int" name="NGX">    10</i>
   <i type="int" name="NGY">    10</i>
   <i type="int" name="NGZ">    18</i>
   <i type="int" name="NGXF">    20</i>
   <i type="int" name="NGYF">    20</i>
   <i type="int" name="NGZF">    36</i>
   <i type="logical" name="ADDGRID"> F  </i>
  </separator>
  <separator name="ionic" >
   <i type="int" name="NSW">     0</i>
   <i type="int" name="IBRION">    -1</i>
   <i type="int" name="MDALGO">     0</i>
   <i type="int" name="ISIF">     2</i>
   <i name="PSTRESS">      0.00000000</i>
   <i name="EDIFFG">      0.00001000</i>
   <i type="int" name="NFREE">     0</i>
   <i name="POTIM">      0.50000000</i>
   <i name="SMASS">     -3.00000000</i>
   <i name="SCALEE">      1.00000000</i>
  </separator>
  <separator name="ionic md" >
   <i name="TEBEG">      0.00010000</i>
   <i name="TEEND">      0.00010000</i>
   <i type="int" name="NBLOCK">     1</i>
   <i type="int" name="KBLOCK">     1</i>
   <i type="int" name="NPACO">   256</i>
   <i name="APACO">     16.00000000</i>
  </separator>
  <separator name="symmetry" >
   <i type="int" name="ISYM">     2</i>
   <i name="SYMPREC">      0.00001000</i>
  </separator>
  <separator name="dos" >
   <i type="int" name="LORBIT">     0</i>
   <v name="RWIGS">     -1.00000000</v>
   <i type="int" name="NEDOS">   301</i>
   <i name="EMIN">     10.00000000</i>
   <i name="EMAX">    -10.00000000</i>
   <i name="EFERMI">      0.00000000</i>
  </separator>
  <separator name="writing" >
   <i type="int" name="NWRITE">     2</i>
   <i type="logical" name="LWAVE"> T  </i>
   <i type="logical" name="LDOWNSAMPLE"> F  </i>
   <i type="logical" name="LCHARG"> T  </i>
   <i type="logical" name="LPARD"> F  </i>
   <i type="logical" name="LVTOT"> F  </i>
   <i type="logical" name="LVHAR"> F  </i>
   <i type="logical" name="LELF"> F  </i>
   <i type="logical" name="LOPTICS"> F  </i>
   <v name="STM">      0.00000000      0.00000000      0.00000000      0.00000000      0.00000000      0.00000000      0.00000000</v>
  </separator>
  <separator name="performance" >
   <i type="int" name="NPAR">     1</i>
   <i type="int" name="NSIM">     4</i>
   <i type="int" name="NBLK">    -1</i>
   <i type="logical" name="LPLANE"> T  </i>
   <i type="logical" name="LSCALAPACK"> F  </i>
   <i type="logical" name="LSCAAWARE"> F  </i>
   <i type="logical" name="LSCALU"> F  </i>
   <i type="logical" name="LASYNC"> F  </i>
   <i type="logical" name="LORBITALREAL"> F  </i>
  </separator>
  <separator name="miscellaneous" >
   <i type="int" name="IDIOT">     3</i>
   <i type="int" name="PHON_NSTRUCT">    -1</i>
   <i type="logical" name="LMUSIC"> F  </i>
   <v name="POMASS">     55.84700000</v>
   <v name="DARWINR">      0.00000000</v>
   <v name="DARWINV">      1.00000000</v>
   <i type="logical" name="LCORR"> T  </i>
  </separator>
  <i type="logical" name="GGA_COMPAT"> T  </i>
  <i type="logical" name="LBERRY"> F  </i>
  <i type="int" name="ICORELEVEL">     0</i>
  <i type="logical" name="LDAU"> F  </i>
  <i type="int" name="I_CONSTRAINED_M">     0</i>
  <separator name="electronic exchange-correlation" >
   <i type="string" name="GGA">PE</i>
   <i type="int" name="VOSKOWN">     0</i>
   <i type="logical" name="LHFCALC"> F  </i>
   <i type="string" name="PRECFOCK"></i>
   <i type="logical" name="LSYMGRAD"> F  </i>
   <i type="logical" name="LHFONE"> F  </i>
   <i type="logical" name="LRHFCALC"> F  </i>
   <i type="logical" name="LTHOMAS"> F  </i>
   <i type="logical" name="LMODELHF"> F  </i>
   <i type="logical" name="LFOCKACE"> F  </i>
   <i name="ENCUT4O">     -1.00000000</i>
   <i type="int" name="EXXOEP">     0</i>
   <i type="int" name="FOURORBIT">     0</i>
   <i name="AEXX">      0.00000000</i>
   <i name="HFALPHA">      0.00000000</i>
   <i name="MCALPHA">      0.00000000</i>
   <i name="ALDAX">      1.00000000</i>
   <i name="AGGAX">      1.00000000</i>
   <i name="ALDAC">      1.00000000</i>
   <i name="AGGAC">      1.00000000</i>
   <i type="int" name="NKREDX">     1</i>
   <i type="int" name="NKREDY">     1</i>
   <i type="int" name="NKREDZ">     1</i>
   <i type="logical" name="SHIFTRED"> F  </i>
   <i type="logical" name="ODDONLY"> F  </i>
   <i type="logical" name="EVENONLY"> F  </i>
   <i type="int" name="LMAXFOCK">     0</i>
   <i type="int" name="NMAXFOCKAE">     0</i>
   <i type="logical" name="LFOCKAEDFT"> F  </i>
   <i name="HFSCREEN">      0.00000000</i>
   <i name="HFSCREENC">      0.00000000</i>
   <i type="int" name="NBANDSGWLOW">     0</i>
  </separator>
  <separator name="vdW DFT" >
   <i type="logical" name="LUSE_VDW"> F  </i>
   <i name="Zab_VDW">     -0.84910000</i>
   <i name="PARAM1">      0.12340000</i>
   <i name="PARAM2">      1.00000000</i>
   <i name="PARAM3">      0.00000000</i>
  </separator>
  <separator name="model GW" >
   <i type="int" name="MODEL_GW">     0</i>
   <i name="MODEL_EPS0">      6.70015466</i>
   <i name="MODEL_ALPHA">      1.00000000</i>
  </separator>
  <separator name="linear response parameters" >
   <i type="logical" name="LEPSILON"> F  </i>
   <i type="logical" name="LRPA"> F  </i>
   <i type="logical" name="LNABLA"> F  </i>
   <i type="logical" name="LVEL"> F  </i>
   <i type="int" name="KINTER">     0</i>
   <i name="CSHIFT">      0.10000000</i>
   <i name="OMEGAMAX">     -1.00000000</i>
   <i name="DEG_THRESHOLD">      0.00200000</i>
   <i name="RTIME">     -0.10000000</i>
   <i name="WPLASMAI">      0.00000000</i>
   <v name="DFIELD">      0.00000000      0.00000000      0.00000000</v>
   <v name="WPLASMA">      0.00000000      0.00000000      0.00000000      0.00000000      0.00000000      0.00000000      0.00000000      0.00000000      0.00000000</v>
  </separator>
  <separator name="orbital magnetization" >
   <i type="logical" name="NUCIND"> F  </i>
   <v name="MAGPOS">      0.00000000      0.00000000      0.00000000</v>
   <i type="logical" name="LNICSALL"> T  </i>
   <i type="logical" name="ORBITALMAG"> F  </i>
   <i type="logical" name="LMAGBLOCH"> F  </i>
   <i type="logical" name="LCHIMAG"> F  </i>
   <i type="logical" name="LGAUGE"> T  </i>
   <i type="int" name="MAGATOM">     0</i>
   <v name="MAGDIPOL">      0.00000000      0.00000000      0.00000000</v>
   <v name="AVECCONST">      0.00000000      0.00000000      0.00000000</v>
  </separator>
  <separator name="response functions" >
   <i type="logical" name="LFINITE_TEMPERATURE"> F  </i>
   <i type="logical" name="LADDER"> F  </i>
   <i type="logical" name="LRPAFORCE"> F  </i>
   <i type="logical" name="LFXC"> F  </i>
   <i type="logical" name="LHARTREE"> T  </i>
   <i type="int" name="IBSE">     0</i>
   <v type="int" name="KPOINT">    -1     0     0     0</v>
   <i type="logical" name="LTCTC"> F  </i>
   <i type="logical" name="LTCTE"> F  </i>
   <i type="logical" name="LTETE"> F  </i>
   <i type="logical" name="LTRIPLET"> F  </i>
   <i type="logical" name="LFXCEPS"> F  </i>
   <i type="logical" name="LFXHEG"> F  </i>
   <i type="int" name="NATURALO">     2</i>
   <i type="logical" name="LHOLEGF"> F  </i>
   <i type="logical" name="L2ORDER"> F  </i>
   <i type="logical" name="LDMP1"> F  </i>
   <i type="logical" name="LMP2LT"> F  </i>
   <i type="logical" name="LSMP2LT"> F  </i>
   <i type="logical" name="LGWLF"> F  </i>
   <i name="ENCUTGW">     -2.00000000</i>
   <i name="ENCUTGWSOFT">     -2.00000000</i>
   <i name="ENCUTLF">     -1.00000000</i>
   <i type="logical" name="LESF_SPLINES"> F  </i>
   <i type="int" name="LMAXMP2">    -1</i>
   <i name="SCISSOR">      0.00000000</i>
   <i type="int" name="NOMEGA">     0</i>
   <i type="int" name="NOMEGAR">     0</i>
   <i type="int" name="NBANDSGW">    -1</i>
   <i type="int" name="NBANDSO">    -1</i>
   <i type="int" name="NBANDSV">    -1</i>
   <i type="int" name="NELM">     1</i>
   <i type="int" name="NELMHF">     1</i>
   <i type="int" name="DIM">     3</i>
   <i type="int" name="IESPILON">     4</i>
   <i type="int" name="ANTIRES">     0</i>
   <i name="OMEGAMAX">    -30.00000000</i>
   <i name="OMEGAMIN">    -30.00000000</i>
   <i name="OMEGATL">   -200.00000000</i>
   <i type="int" name="OMEGAGRID">     0</i>
   <i name="CSHIFT">     -0.10000000</i>
   <i type="logical" name="LSELFENERGY"> F  </i>
   <i type="logical" name="LSPECTRAL"> F  </i>
   <i type="logical" name="LSPECTRALGW"> F  </i>
   <i type="logical" name="LSINGLES"> F  </i>
   <i type="logical" name="LFERMIGW"> F  </i>
   <i type="logical" name="ODDONLYGW"> F  </i>
   <i type="logical" name="EVENONLYGW"> F  </i>
   <i type="int" name="NKREDLFX">     1</i>
   <i type="int" name="NKREDLFY">     1</i>
   <i type="int" name="NKREDLFZ">     1</i>
   <i type="int" name="MAXMEM">  2800</i>
   <i type="int" name="TELESCOPE">     0</i>
   <i type="int" name="NTAUPAR">    -1</i>
   <i type="int" name="NOMEGAPAR">    -1</i>
   <i name="DAMP_NEWTON">      0.80000001</i>
   <i name="LAMBDA">      1.00000000</i>
  </separator>
  <separator name="External order field" >
   <i name="OFIELD_KAPPA">      0.00000000</i>
   <v name="OFIELD_K">      0.00000000      0.00000000      0.00000000</v>
   <i name="OFIELD_Q6_NEAR">      0.00000000</i>
   <i name="OFIELD_Q6_FAR">      0.00000000</i>
   <i name="OFIELD_A">      0.00000000</i>
  </separator>
 </parameters>
 <atominfo>
  <atoms>       2 </atoms>
  <types>       1 </types>
  <array name="atoms" >
   <dimension dim="1">ion</dimension>
   <field type="string">element</field>
   <field type="int">atomtype</field>
   <set>
    <rc><c>Fe</c><c>   1</c></rc>
    <rc><c>Fe</c><c>   1</c></rc>
   </set>
  </array>
  <array name="atomtypes" >
   <dimension dim="1">type</dimension>
   <field type="int">atomspertype</field>
   <field type="string">element</field>
   <field>mass</field>
   <field>valence</field>
   <field type="string">pseudopotential</field>
   <set>
    <rc><c>   2</c><c>Fe</c><c>     55.84700000</c><c>      8.00000000</c><c>  PAW_PBE Fe 06Sep2000                  </c></rc>
   </set>
  </array>
 </atominfo>
 <structure name="initialpos" >
  <crystal>
   <varray name="basis" >
    <v>       2.42320000       0.00000000       0.00000000 </v>
    <v>      -1.21160000       2.09855276       0.00000000 </v>
    <v>       0.00000000       0.00000000       4.39192000 </v>
   </varray>
   <i name="volume">     22.33384887 </i>
   <varray name="rec_basis" >
    <v>       0.41267745       0.23825944       0.00000000 </v>
    <v>       0.00000000       0.47651888       0.00000000 </v>
    <v>       0.00000000       0.00000000       0.22769085 </v>
   </varray>
  </crystal>
  <varray name="positions" >
   <v>       0.00000000       0.00000000       0.00000000 </v>
   <v>       0.33333333       0.66666667       0.50000000 </v>
  </varray>
 </structure>
 <calculation>
  <scstep>
   <time name="dav">    0.79    0.81</time>
   <time name="total">    0.80    0.82</time>
   <energy>
    <i name="alphaZ">    123.78301007 </i>
    <i name="ewald">  -1188.83293046 </i>
    <i name="hartreedc">   -222.06998595 </i>
    <i name="XCdc">      7.93986399 </i>
    <i name="pawpsdc">   1109.69170683 </i>
    <i name="pawaedc">  -1125.09647265 </i>
    <i name="eentropy">      0.00206536 </i>
    <i name="bandstr">    168.27344042 </i>
    <i name="atom">   1188.57490811 </i>
    <i name="e_fr_energy">     62.26560572 </i>
    <i name="e_wo_entrp">     62.26354036 </i>
    <i name="e_0_energy">     62.26491727 </i>
   </energy>
  </scstep>
  <scstep>
   <time name="dav">    0.71    0.71</time>
   <time name="total">    0.71    0.71</time>
   <energy>
    <i name="e_fr_energy">    -14.26468047 </i>
    <i name="e_wo_entrp">    -14.26776147 </i>
    <i name="e_0_energy">    -14.26570747 </i>
   </energy>
  </scstep>
  <scstep>
   <time name="dav">    0.79    0.79</time>
   <time name="total">    0.80    0.80</time>
   <energy>
    <i name="e_fr_energy">    -19.05074504 </i>
    <i name="e_wo_entrp">    -19.05183478 </i>
    <i name="e_0_energy">    -19.05110829 </i>
   </energy>
  </scstep>
  <scstep>
   <time name="dav">    0.77    0.77</time>
   <time name="total">    0.78    0.78</time>
   <energy>
    <i name="e_fr_energy">    -19.07652096 </i>
    <i name="e_wo_entrp">    -19.07752082 </i>
    <i name="e_0_energy">    -19.07685425 </i>
   </energy>
  </scstep>
  <scstep>
   <time name="dav">    0.77    0.77</time>
   <time name="total">    0.80    0.80</time>
   <energy>
    <i name="e_fr_energy">    -19.07657118 </i>
    <i name="e_wo_entrp">    -19.07757099 </i>
    <i name="e_0_energy">    -19.07690445 </i>
   </energy>
  </scstep>
  <scstep>
   <time name="dav">    0.91    0.91</time>
   <time name="total">    0.94    0.94</time>
   <energy>
    <i name="e_fr_energy">    -16.22836618 </i>
    <i name="e_wo_entrp">    -16.23150349 </i>
    <i name="e_0_energy">    -16.22941195 </i>
   </energy>
  </scstep>
  <scstep>
   <time name="dav">    0.84    0.84</time>
   <time name="total">    0.87    0.87</time>
   <energy>
    <i name="e_fr_energy">    -15.91202164 </i>
    <i name="e_wo_entrp">    -15.91556705 </i>
    <i name="e_0_energy">    -15.91320344 </i>
   </energy>
  </scstep>
  <scstep>
   <time name="dav">    0.84    0.84</time>
   <time name="total">    0.87    0.87</time>
   <energy>
    <i name="e_fr_energy">    -15.88773733 </i>
    <i name="e_wo_entrp">    -15.89138177 </i>
    <i name="e_0_energy">    -15.88895214 </i>
   </energy>
  </scstep>
  <scstep>
   <time name="dav">    0.92    0.92</time>
   <time name="total">    0.96    0.96</time>
   <energy>
    <i name="e_fr_energy">    -15.87749828 </i>
    <i name="e_wo_entrp">    -15.88114710 </i>
    <i name="e_0_energy">    -15.87871456 </i>
   </energy>
  </scstep>
  <scstep>
   <time name="dav">    0.77    0.77</time>
   <time name="total">    0.80    0.80</time>
   <energy>
    <i name="e_fr_energy">    -15.87752226 </i>
    <i name="e_wo_entrp">    -15.88116716 </i>
    <i name="e_0_energy">    -15.87873723 </i>
   </energy>
  </scstep>
  <scstep>
   <time name="dav">    0.79    0.79</time>
   <time name="total">    0.82    0.82</time>
   <energy>
    <i name="e_fr_energy">    -15.87751854 </i>
    <i name="e_wo_entrp">    -15.88116384 </i>
    <i name="e_0_energy">    -15.87873364 </i>
   </energy>
  </scstep>
  <scstep>
   <time name="dav">    0.58    0.58</time>
   <time name="total">    0.59    0.59</time>
   <energy>
    <i name="alphaZ">    123.78301007 </i>
    <i name="ewald">  -1188.83293046 </i>
    <i name="hartreedc">   -187.74174501 </i>
    <i name="XCdc">      6.35477309 </i>
    <i name="pawpsdc">   1388.56517111 </i>
    <i name="pawaedc">  -1405.35484385 </i>
    <i name="eentropy">      0.00364543 </i>
    <i name="bandstr">     58.77049318 </i>
    <i name="atom">   1188.57490811 </i>
    <i name="e_fr_energy">    -15.87751833 </i>
    <i name="e_wo_entrp">    -15.88116375 </i>
    <i name="e_0_energy">    -15.87873347 </i>
   </energy>
  </scstep>
  <structure>
   <crystal>
    <varray name="basis" >
     <v>       2.42320000       0.00000000       0.00000000 </v>
     <v>      -1.21160000       2.09855276       0.00000000 </v>
     <v>       0.00000000       0.00000000       4.39192000 </v>
    </varray>
    <i name="volume">     22.33384887 </i>
    <varray name="rec_basis" >
     <v>       0.41267745       0.23825944       0.00000000 </v>
     <v>       0.00000000       0.47651888       0.00000000 </v>
     <v>       0.00000000       0.00000000       0.22769085 </v>
    </varray>
   </crystal>
   <varray name="positions" >
    <v>       0.00000000       0.00000000       0.00000000 </v>
    <v>       0.33333333       0.66666667       0.50000000 </v>
   </varray>
  </structure>
  <varray name="forces" >
   <v>       0.00000000      -0.00000000      -0.00000000 </v>
   <v>      -0.00000000       0.00000000       0.00000000 </v>
  </varray>
  <varray name="stress" >
   <v>     -46.64628594       0.00000000       0.00000000 </v>
   <v>       0.00000000     -46.64628594      -0.00000000 </v>
   <v>       0.00000000      -0.00000000    -484.79649930 </v>
  </varray>
  <energy>
   <i name="e_fr_energy">    -15.87751833 </i>
   <i name="e_wo_entrp">    -15.88116375 </i>
   <i name="e_0_energy">    -15.87873347 </i>
  </energy>
  <time name="totalsc">   10.06   10.08</time>
  <eigenvalues>
   <array>
    <dimension dim="1">band</dimension>
    <dimension dim="2">kpoint</dimension>
    <dimension dim="3">spin</dimension>
    <field>eigene</field>
    <field>occ</field>
    <set>
     <set comment="spin 1">
      <set comment="kpoint 1">
       <r>   -2.4619    1.0000 </r>
       <r>    1.3160    1.0000 </r>
       <r>    3.8262    1.0000 </r>
       <r>    4.5410    1.0000 </r>
       <r>    4.5412    1.0000 </r>
       <r>    4.7748    1.0000 </r>
       <r>    4.7750    1.0000 </r>
       <r>    5.0398    1.0000 </r>
       <r>    5.7421    1.0058 </r>
       <r>    5.7422    1.0058 </r>
       <r>    6.5623   -0.0000 </r>
       <r>    6.5623   -0.0000 </r>
       <r>   11.9958    0.0000 </r>
       <r>   27.4673    0.0000 </r>
       <r>   28.9159    0.0000 </r>
       <r>   31.5000    0.0000 </r>
       <r>   33.3527    0.0000 </r>
       <r>   33.3528    0.0000 </r>
       <r>   33.3972    0.0000 </r>
       <r>   34.1931    0.0000 </r>
       <r>   34.1933    0.0000 </r>
       <r>   37.1182    0.0000 </r>
       <r>   37.1182    0.0000 </r>
       <r>   38.0457    0.0000 </r>
       <r>   40.0463    0.0000 </r>
       <r>   40.1151    0.0000 </r>
       <r>   40.1151    0.0000 </r>
       <r>   43.3075    0.0000 </r>
       <r>   43.3079    0.0000 </r>
       <r>   44.8686    0.0000 </r>
       <r>   44.8688    0.0000 </r>
       <r>   46.9121    0.0000 </r>
       <r>   54.3078    0.0000 </r>
       <r>   58.8505    0.0000 </r>
       <r>   58.8515    0.0000 </r>
       <r>   58.9521    0.0000 </r>
       <r>   59.6068    0.0000 </r>
       <r>   59.6068    0.0000 </r>
       <r>   59.7094    0.0000 </r>
       <r>   60.1380    0.0000 </r>
      </set>
      <set comment="kpoint 2">
       <r>   -2.1482    1.0000 </r>
       <r>    1.5563    1.0000 </r>
       <r>    3.8791    1.0000 </r>
       <r>    4.3782    1.0000 </r>
       <r>    4.4522    1.0000 </r>
       <r>    4.6694    1.0000 </r>
       <r>    4.7157    1.0000 </r>
       <r>    4.9387    1.0000 </r>
       <r>    5.5948    1.0228 </r>
       <r>    5.6489    1.0338 </r>
       <r>    6.5845   -0.0000 </r>
       <r>    7.4928   -0.0000 </r>
       <r>   12.0280    0.0000 </r>
       <r>   27.3965    0.0000 </r>
       <r>   27.8609    0.0000 </r>
       <r>   29.7704    0.0000 </r>
       <r>   30.7172    0.0000 </r>
       <r>   33.1230    0.0000 </r>
       <r>   33.1249    0.0000 </r>
       <r>   33.3321    0.0000 </r>
       <r>   36.3709    0.0000 </r>
       <r>   36.5003    0.0000 </r>
       <r>   37.0672    0.0000 </r>
       <r>   37.6329    0.0000 </r>
       <r>   40.7065    0.0000 </r>
       <r>   40.9304    0.0000 </r>
       <r>   41.4287    0.0000 </r>
       <r>   41.9095    0.0000 </r>
       <r>   44.8504    0.0000 </r>
       <r>   46.1170    0.0000 </r>
       <r>   47.4171    0.0000 </r>
       <r>   49.1179    0.0000 </r>
       <r>   54.1467    0.0000 </r>
       <r>   56.0423    0.0000 </r>
       <r>   57.1492    0.0000 </r>
       <r>   57.4643    0.0000 </r>
       <r>   58.2398    0.0000 </r>
       <r>   59.4656    0.0000 </r>
       <r>   61.1192    0.0000 </r>
       <r>   61.7826    0.0000 </r>
      </set>
      <set comment="kpoint 3">
       <r>   -1.2547    1.0000 </r>
       <r>    2.1339    1.0000 </r>
       <r>    3.5073    1.0000 </r>
       <r>    3.8202    1.0000 </r>
       <r>    4.2442    1.0000 </r>
       <r>    4.7200    1.0000 </r>
       <r>    5.1984    1.0000 </r>
       <r>    5.2424    1.0000 </r>
       <r>    5.3909    1.0006 </r>
       <r>    5.4267    1.0015 </r>
       <r>    6.6147   -0.0000 </r>
       <r>    9.1146   -0.0000 </r>
       <r>   12.1501    0.0000 </r>
       <r>   23.4846    0.0000 </r>
       <r>   28.0247    0.0000 </r>
       <r>   28.4885    0.0000 </r>
       <r>   28.5884    0.0000 </r>
       <r>   29.1917    0.0000 </r>
       <r>   32.5463    0.0000 </r>
       <r>   33.9184    0.0000 </r>
       <r>   34.0216    0.0000 </r>
       <r>   35.3264    0.0000 </r>
       <r>   37.4894    0.0000 </r>
       <r>   37.9584    0.0000 </r>
       <r>   41.1724    0.0000 </r>
       <r>   42.6112    0.0000 </r>
       <r>   44.1158    0.0000 </r>
       <r>   46.0470    0.0000 </r>
       <r>   46.9982    0.0000 </r>
       <r>   49.9897    0.0000 </r>
       <r>   50.2345    0.0000 </r>
       <r>   52.4301    0.0000 </r>
       <r>   53.0342    0.0000 </r>
       <r>   53.2117    0.0000 </r>
       <r>   55.3944    0.0000 </r>
       <r>   56.5835    0.0000 </r>
       <r>   57.8524    0.0000 </r>
       <r>   59.1496    0.0000 </r>
       <r>   61.7061    0.0000 </r>
       <r>   63.5467    0.0000 </r>
      </set>
      <set comment="kpoint 4">
       <r>    0.0373    1.0000 </r>
       <r>    2.4570    1.0000 </r>
       <r>    2.8450    1.0000 </r>
       <r>    3.8148    1.0000 </r>
       <r>    4.0589    1.0000 </r>
       <r>    4.7984    1.0000 </r>
       <r>    5.1710    1.0000 </r>
       <r>    5.3708    1.0004 </r>
       <r>    5.8845    0.6318 </r>
       <r>    6.0229    0.1118 </r>
       <r>    6.6264   -0.0000 </r>
       <r>   11.0036   -0.0000 </r>
       <r>   12.4447    0.0000 </r>
       <r>   19.5226    0.0000 </r>
       <r>   25.0832    0.0000 </r>
       <r>   25.7520    0.0000 </r>
       <r>   26.5488    0.0000 </r>
       <r>   29.5906    0.0000 </r>
       <r>   30.9462    0.0000 </r>
       <r>   33.2807    0.0000 </r>
       <r>   34.3993    0.0000 </r>
       <r>   34.5489    0.0000 </r>
       <r>   35.0442    0.0000 </r>
       <r>   38.4041    0.0000 </r>
       <r>   44.8495    0.0000 </r>
       <r>   46.0522    0.0000 </r>
       <r>   47.5248    0.0000 </r>
       <r>   48.0282    0.0000 </r>
       <r>   48.1168    0.0000 </r>
       <r>   50.4495    0.0000 </r>
       <r>   51.4340    0.0000 </r>
       <r>   52.4189    0.0000 </r>
       <r>   54.5876    0.0000 </r>
       <r>   55.6006    0.0000 </r>
       <r>   56.2814    0.0000 </r>
       <r>   57.9011    0.0000 </r>
       <r>   59.0179    0.0000 </r>
       <r>   59.9462    0.0000 </r>
       <r>   62.4531    0.0000 </r>
       <r>   62.6848    0.0000 </r>
      </set>
      <set comment="kpoint 5">
       <r>    1.2523    1.0000 </r>
       <r>    2.2373    1.0000 </r>
       <r>    2.4218    1.0000 </r>
       <r>    3.8953    1.0000 </r>
       <r>    4.4002    1.0000 </r>
       <r>    4.4946    1.0000 </r>
       <r>    4.9574    1.0000 </r>
       <r>    6.4751   -0.0003 </r>
       <r>    6.5726   -0.0000 </r>
       <r>    6.6155   -0.0000 </r>
       <r>    6.6530   -0.0000 </r>
       <r>   12.6386    0.0000 </r>
       <r>   13.0743    0.0000 </r>
       <r>   16.4917    0.0000 </r>
       <r>   21.7952    0.0000 </r>
       <r>   23.4892    0.0000 </r>
       <r>   24.0266    0.0000 </r>
       <r>   28.9997    0.0000 </r>
       <r>   30.1146    0.0000 </r>
       <r>   33.1110    0.0000 </r>
       <r>   34.0555    0.0000 </r>
       <r>   35.0161    0.0000 </r>
       <r>   35.0710    0.0000 </r>
       <r>   38.4788    0.0000 </r>
       <r>   44.6747    0.0000 </r>
       <r>   46.5300    0.0000 </r>
       <r>   48.1465    0.0000 </r>
       <r>   50.9410    0.0000 </r>
       <r>   51.4076    0.0000 </r>
       <r>   51.5219    0.0000 </r>
       <r>   53.1600    0.0000 </r>
       <r>   54.7100    0.0000 </r>
       <r>   55.0451    0.0000 </r>
       <r>   57.4854    0.0000 </r>
       <r>   58.9038    0.0000 </r>
       <r>   59.2691    0.0000 </r>
       <r>   60.7468    0.0000 </r>
       <r>   61.8911    0.0000 </r>
       <r>   63.2582    0.0000 </r>
       <r>   64.2508    0.0000 </r>
      </set>
      <set comment="kpoint 6">
       <r>    1.7968    1.0000 </r>
       <r>    1.9922    1.0000 </r>
       <r>    2.2213    1.0000 </r>
       <r>    4.1667    1.0000 </r>
       <r>    4.4027    1.0000 </r>
       <r>    4.7106    1.0000 </r>
       <r>    4.8376    1.0000 </r>
       <r>    6.6038   -0.0000 </r>
       <r>    6.9958   -0.0000 </r>
       <r>    7.0753   -0.0000 </r>
       <r>    8.0237   -0.0000 </r>
       <r>   11.1805   -0.0000 </r>
       <r>   15.0825    0.0000 </r>
       <r>   16.2545    0.0000 </r>
       <r>   19.1999    0.0000 </r>
       <r>   20.7237    0.0000 </r>
       <r>   23.0717    0.0000 </r>
       <r>   28.4504    0.0000 </r>
       <r>   29.8343    0.0000 </r>
       <r>   32.0499    0.0000 </r>
       <r>   33.8262    0.0000 </r>
       <r>   36.0043    0.0000 </r>
       <r>   37.5936    0.0000 </r>
       <r>   37.7438    0.0000 </r>
       <r>   41.3405    0.0000 </r>
       <r>   46.4675    0.0000 </r>
       <r>   48.9485    0.0000 </r>
       <r>   52.4695    0.0000 </r>
       <r>   54.0040    0.0000 </r>
       <r>   54.3767    0.0000 </r>
       <r>   54.8859    0.0000 </r>
       <r>   56.7448    0.0000 </r>
       <r>   58.0479    0.0000 </r>
       <r>   58.7149    0.0000 </r>
       <r>   59.2356    0.0000 </r>
       <r>   59.5180    0.0000 </r>
       <r>   62.8519    0.0000 </r>
       <r>   62.8916    0.0000 </r>
       <r>   63.2594    0.0000 </r>
       <r>   63.8089    0.0000 </r>
      </set>
      <set comment="kpoint 7">
       <r>   -1.5424    1.0000 </r>
       <r>    1.9818    1.0000 </r>
       <r>    3.7341    1.0000 </r>
       <r>    3.8394    1.0000 </r>
       <r>    4.4359    1.0000 </r>
       <r>    4.4666    1.0000 </r>
       <r>    5.0697    1.0000 </r>
       <r>    5.2580    1.0000 </r>
       <r>    5.2871    1.0000 </r>
       <r>    5.5989    1.0237 </r>
       <r>    6.5824   -0.0000 </r>
       <r>    8.6595   -0.0000 </r>
       <r>   12.1093    0.0000 </r>
       <r>   25.3107    0.0000 </r>
       <r>   26.3202    0.0000 </r>
       <r>   28.5398    0.0000 </r>
       <r>   30.4838    0.0000 </r>
       <r>   31.8192    0.0000 </r>
       <r>   32.0180    0.0000 </r>
       <r>   32.6345    0.0000 </r>
       <r>   33.1854    0.0000 </r>
       <r>   38.0537    0.0000 </r>
       <r>   38.6701    0.0000 </r>
       <r>   38.7290    0.0000 </r>
       <r>   40.3206    0.0000 </r>
       <r>   40.4707    0.0000 </r>
       <r>   40.8889    0.0000 </r>
       <r>   46.8485    0.0000 </r>
       <r>   47.9868    0.0000 </r>
       <r>   48.2414    0.0000 </r>
       <r>   48.3264    0.0000 </r>
       <r>   52.2903    0.0000 </r>
       <r>   53.6520    0.0000 </r>
       <r>   53.6940    0.0000 </r>
       <r>   55.0356    0.0000 </r>
       <r>   56.4180    0.0000 </r>
       <r>   57.9778    0.0000 </r>
       <r>   60.1514    0.0000 </r>
       <r>   61.5692    0.0000 </r>
       <r>   62.6887    0.0000 </r>
      </set>
      <set comment="kpoint 8">
       <r>   -0.4288    1.0000 </r>
       <r>    2.5472    1.0000 </r>
       <r>    3.0823    1.0000 </r>
       <r>    3.6122    1.0000 </r>
       <r>    4.1613    1.0000 </r>
       <r>    4.8076    1.0000 </r>
       <r>    4.8496    1.0000 </r>
       <r>    5.3709    1.0004 </r>
       <r>    5.6998    1.0317 </r>
       <r>    5.9329    0.4294 </r>
       <r>    6.5607   -0.0000 </r>
       <r>   10.3365   -0.0000 </r>
       <r>   12.3539    0.0000 </r>
       <r>   21.5663    0.0000 </r>
       <r>   24.0777    0.0000 </r>
       <r>   26.9678    0.0000 </r>
       <r>   28.9567    0.0000 </r>
       <r>   29.1939    0.0000 </r>
       <r>   31.4159    0.0000 </r>
       <r>   31.9438    0.0000 </r>
       <r>   33.1194    0.0000 </r>
       <r>   36.7868    0.0000 </r>
       <r>   37.9888    0.0000 </r>
       <r>   38.8256    0.0000 </r>
       <r>   41.9244    0.0000 </r>
       <r>   43.0645    0.0000 </r>
       <r>   44.9992    0.0000 </r>
       <r>   48.0786    0.0000 </r>
       <r>   49.8668    0.0000 </r>
       <r>   50.9234    0.0000 </r>
       <r>   51.0399    0.0000 </r>
       <r>   52.7647    0.0000 </r>
       <r>   53.9698    0.0000 </r>
       <r>   54.3317    0.0000 </r>
       <r>   55.2504    0.0000 </r>
       <r>   55.8720    0.0000 </r>
       <r>   59.1318    0.0000 </r>
       <r>   60.4502    0.0000 </r>
       <r>   62.3422    0.0000 </r>
       <r>   63.1288    0.0000 </r>
      </set>
      <set comment="kpoint 9">
       <r>    0.9057    1.0000 </r>
       <r>    2.5397    1.0000 </r>
       <r>    2.6141    1.0000 </r>
       <r>    3.6738    1.0000 </r>
       <r>    4.2201    1.0000 </r>
       <r>    4.4866    1.0000 </r>
       <r>    5.0560    1.0000 </r>
       <r>    5.5110    1.0074 </r>
       <r>    6.3823   -0.0024 </r>
       <r>    6.5332   -0.0001 </r>
       <r>    6.7697   -0.0000 </r>
       <r>   12.2952    0.0000 </r>
       <r>   12.8216    0.0000 </r>
       <r>   17.8738    0.0000 </r>
       <r>   22.4628    0.0000 </r>
       <r>   23.5307    0.0000 </r>
       <r>   25.7283    0.0000 </r>
       <r>   27.9619    0.0000 </r>
       <r>   31.0693    0.0000 </r>
       <r>   32.4973    0.0000 </r>
       <r>   32.9759    0.0000 </r>
       <r>   36.2826    0.0000 </r>
       <r>   37.2144    0.0000 </r>
       <r>   39.9474    0.0000 </r>
       <r>   43.7114    0.0000 </r>
       <r>   46.2742    0.0000 </r>
       <r>   47.1627    0.0000 </r>
       <r>   47.2321    0.0000 </r>
       <r>   49.5981    0.0000 </r>
       <r>   51.5003    0.0000 </r>
       <r>   52.3373    0.0000 </r>
       <r>   54.4626    0.0000 </r>
       <r>   55.6723    0.0000 </r>
       <r>   56.5744    0.0000 </r>
       <r>   58.3666    0.0000 </r>
       <r>   60.3410    0.0000 </r>
       <r>   60.8142    0.0000 </r>
       <r>   61.1744    0.0000 </r>
       <r>   61.6636    0.0000 </r>
       <r>   63.2724    0.0000 </r>
      </set>
      <set comment="kpoint 10">
       <r>    1.8109    1.0000 </r>
       <r>    2.2530    1.0000 </r>
       <r>    2.3500    1.0000 </r>
       <r>    4.0087    1.0000 </r>
       <r>    4.2343    1.0000 </r>
       <r>    4.5937    1.0000 </r>
       <r>    4.8001    1.0000 </r>
       <r>    6.3662   -0.0033 </r>
       <r>    6.5087   -0.0001 </r>
       <r>    6.8410   -0.0000 </r>
       <r>    7.8466   -0.0000 </r>
       <r>   12.4633    0.0000 </r>
       <r>   14.4085    0.0000 </r>
       <r>   16.1013    0.0000 </r>
       <r>   20.5345    0.0000 </r>
       <r>   21.1414    0.0000 </r>
       <r>   22.5663    0.0000 </r>
       <r>   27.1491    0.0000 </r>
       <r>   30.1782    0.0000 </r>
       <r>   32.0400    0.0000 </r>
       <r>   34.7433    0.0000 </r>
       <r>   36.6993    0.0000 </r>
       <r>   37.4660    0.0000 </r>
       <r>   39.1998    0.0000 </r>
       <r>   43.3184    0.0000 </r>
       <r>   46.1813    0.0000 </r>
       <r>   47.3932    0.0000 </r>
       <r>   49.5671    0.0000 </r>
       <r>   50.8164    0.0000 </r>
       <r>   53.1974    0.0000 </r>
       <r>   54.7542    0.0000 </r>
       <r>   56.6445    0.0000 </r>
       <r>   57.7889    0.0000 </r>
       <r>   58.8070    0.0000 </r>
       <r>   59.7455    0.0000 </r>
       <r>   60.6794    0.0000 </r>
       <r>   61.4351    0.0000 </r>
       <r>   62.4787    0.0000 </r>
       <r>   63.1912    0.0000 </r>
       <r>   64.0508    0.0000 </r>
      </set>
      <set comment="kpoint 11">
       <r>    2.0433    1.0000 </r>
       <r>    2.1015    1.0000 </r>
       <r>    2.2674    1.0000 </r>
       <r>    4.1434    1.0000 </r>
       <r>    4.4019    1.0000 </r>
       <r>    4.6654    1.0000 </r>
       <r>    4.7036    1.0000 </r>
       <r>    6.4980   -0.0002 </r>
       <r>    6.8656   -0.0000 </r>
       <r>    6.8902   -0.0000 </r>
       <r>    9.0006   -0.0000 </r>
       <r>   10.9268   -0.0000 </r>
       <r>   15.8745    0.0000 </r>
       <r>   16.7056    0.0000 </r>
       <r>   18.7886    0.0000 </r>
       <r>   19.9748    0.0000 </r>
       <r>   21.4498    0.0000 </r>
       <r>   26.8650    0.0000 </r>
       <r>   29.8114    0.0000 </r>
       <r>   31.8936    0.0000 </r>
       <r>   35.2179    0.0000 </r>
       <r>   37.4690    0.0000 </r>
       <r>   38.1433    0.0000 </r>
       <r>   38.9032    0.0000 </r>
       <r>   41.0375    0.0000 </r>
       <r>   46.9350    0.0000 </r>
       <r>   47.5033    0.0000 </r>
       <r>   49.8766    0.0000 </r>
       <r>   53.5711    0.0000 </r>
       <r>   54.0316    0.0000 </r>
       <r>   56.9889    0.0000 </r>
       <r>   57.1548    0.0000 </r>
       <r>   57.9611    0.0000 </r>
       <r>   58.3330    0.0000 </r>
       <r>   58.5556    0.0000 </r>
       <r>   60.2667    0.0000 </r>
       <r>   63.4347    0.0000 </r>
       <r>   63.7032    0.0000 </r>
       <r>   64.0015    0.0000 </r>
       <r>   64.6510    0.0000 </r>
      </set>
      <set comment="kpoint 12">
       <r>    0.7912    1.0000 </r>
       <r>    2.7302    1.0000 </r>
       <r>    3.0081    1.0000 </r>
       <r>    3.2174    1.0000 </r>
       <r>    4.1975    1.0000 </r>
       <r>    4.4544    1.0000 </r>
       <r>    5.0217    1.0000 </r>
       <r>    5.1525    1.0000 </r>
       <r>    6.3574   -0.0039 </r>
       <r>    6.4417   -0.0006 </r>
       <r>    6.8349   -0.0000 </r>
       <r>   12.0499    0.0000 </r>
       <r>   12.9022    0.0000 </r>
       <r>   19.7012    0.0000 </r>
       <r>   20.2886    0.0000 </r>
       <r>   25.2479    0.0000 </r>
       <r>   26.2062    0.0000 </r>
       <r>   27.9936    0.0000 </r>
       <r>   28.4812    0.0000 </r>
       <r>   32.4612    0.0000 </r>
       <r>   34.7661    0.0000 </r>
       <r>   38.0426    0.0000 </r>
       <r>   38.7898    0.0000 </r>
       <r>   41.2034    0.0000 </r>
       <r>   42.0513    0.0000 </r>
       <r>   43.7338    0.0000 </r>
       <r>   44.5407    0.0000 </r>
       <r>   48.2949    0.0000 </r>
       <r>   50.4093    0.0000 </r>
       <r>   50.6184    0.0000 </r>
       <r>   51.0128    0.0000 </r>
       <r>   54.9716    0.0000 </r>
       <r>   55.6468    0.0000 </r>
       <r>   58.1864    0.0000 </r>
       <r>   58.4783    0.0000 </r>
       <r>   59.1020    0.0000 </r>
       <r>   59.5940    0.0000 </r>
       <r>   62.1004    0.0000 </r>
       <r>   62.6662    0.0000 </r>
       <r>   63.1142    0.0000 </r>
      </set>
      <set comment="kpoint 13">
       <r>    1.9962    1.0000 </r>
       <r>    2.5314    1.0000 </r>
       <r>    2.7610    1.0000 </r>
       <r>    3.3958    1.0000 </r>
       <r>    4.2040    1.0000 </r>
       <r>    4.4575    1.0000 </r>
       <r>    4.7917    1.0000 </r>
       <r>    5.5446    1.0123 </r>
       <r>    6.3377   -0.0056 </r>
       <r>    6.7661   -0.0000 </r>
       <r>    7.9961   -0.0000 </r>
       <r>   13.6832    0.0000 </r>
       <r>   14.0815    0.0000 </r>
       <r>   16.6934    0.0000 </r>
       <r>   18.7831    0.0000 </r>
       <r>   22.4470    0.0000 </r>
       <r>   24.4931    0.0000 </r>
       <r>   24.7946    0.0000 </r>
       <r>   27.2314    0.0000 </r>
       <r>   34.6532    0.0000 </r>
       <r>   35.2518    0.0000 </r>
       <r>   38.0128    0.0000 </r>
       <r>   40.5735    0.0000 </r>
       <r>   41.9037    0.0000 </r>
       <r>   42.4803    0.0000 </r>
       <r>   44.7296    0.0000 </r>
       <r>   45.6399    0.0000 </r>
       <r>   46.3070    0.0000 </r>
       <r>   49.5983    0.0000 </r>
       <r>   50.4318    0.0000 </r>
       <r>   53.3862    0.0000 </r>
       <r>   57.0325    0.0000 </r>
       <r>   58.1111    0.0000 </r>
       <r>   59.3940    0.0000 </r>
       <r>   61.5652    0.0000 </r>
       <r>   61.5673    0.0000 </r>
       <r>   61.8996    0.0000 </r>
       <r>   62.4919    0.0000 </r>
       <r>   63.5570    0.0000 </r>
       <r>   63.9222    0.0000 </r>
      </set>
      <set comment="kpoint 14">
       <r>    2.4592    1.0000 </r>
       <r>    2.4646    1.0000 </r>
       <r>    2.5500    1.0000 </r>
       <r>    3.8395    1.0000 </r>
       <r>    4.1415    1.0000 </r>
       <r>    4.4692    1.0000 </r>
       <r>    4.7121    1.0000 </r>
       <r>    6.1937   -0.0322 </r>
       <r>    6.2806   -0.0136 </r>
       <r>    6.7372   -0.0000 </r>
       <r>    9.5068   -0.0000 </r>
       <r>   12.3193    0.0000 </r>
       <r>   16.2001    0.0000 </r>
       <r>   16.7972    0.0000 </r>
       <r>   17.9326    0.0000 </r>
       <r>   19.7717    0.0000 </r>
       <r>   21.5663    0.0000 </r>
       <r>   24.2690    0.0000 </r>
       <r>   26.6105    0.0000 </r>
       <r>   35.3361    0.0000 </r>
       <r>   36.9296    0.0000 </r>
       <r>   38.2739    0.0000 </r>
       <r>   39.6659    0.0000 </r>
       <r>   40.6203    0.0000 </r>
       <r>   43.6914    0.0000 </r>
       <r>   44.9432    0.0000 </r>
       <r>   46.3647    0.0000 </r>
       <r>   47.3778    0.0000 </r>
       <r>   50.4479    0.0000 </r>
       <r>   52.2787    0.0000 </r>
       <r>   53.2343    0.0000 </r>
       <r>   56.6515    0.0000 </r>
       <r>   57.1446    0.0000 </r>
       <r>   58.8023    0.0000 </r>
       <r>   61.5802    0.0000 </r>
       <r>   62.8166    0.0000 </r>
       <r>   63.2754    0.0000 </r>
       <r>   64.1668    0.0000 </r>
       <r>   64.3603    0.0000 </r>
       <r>   64.7745    0.0000 </r>
      </set>
      <set comment="kpoint 15">
       <r>    2.5918    1.0000 </r>
       <r>    2.8125    1.0000 </r>
       <r>    3.0820    1.0000 </r>
       <r>    3.1610    1.0000 </r>
       <r>    4.0635    1.0000 </r>
       <r>    4.4152    1.0000 </r>
       <r>    4.7298    1.0000 </r>
       <r>    5.7819    0.9494 </r>
       <r>    6.1642   -0.0354 </r>
       <r>    6.6983   -0.0000 </r>
       <r>    9.6245   -0.0000 </r>
       <r>   14.3149    0.0000 </r>
       <r>   14.9981    0.0000 </r>
       <r>   16.2225    0.0000 </r>
       <r>   17.3468    0.0000 </r>
       <r>   21.6536    0.0000 </r>
       <r>   21.9183    0.0000 </r>
       <r>   23.3018    0.0000 </r>
       <r>   24.0837    0.0000 </r>
       <r>   36.5078    0.0000 </r>
       <r>   37.1005    0.0000 </r>
       <r>   41.0684    0.0000 </r>
       <r>   42.0407    0.0000 </r>
       <r>   42.1267    0.0000 </r>
       <r>   42.1820    0.0000 </r>
       <r>   43.1965    0.0000 </r>
       <r>   45.2182    0.0000 </r>
       <r>   47.5830    0.0000 </r>
       <r>   47.7582    0.0000 </r>
       <r>   52.1791    0.0000 </r>
       <r>   52.5825    0.0000 </r>
       <r>   54.4231    0.0000 </r>
       <r>   56.9868    0.0000 </r>
       <r>   59.0180    0.0000 </r>
       <r>   62.7883    0.0000 </r>
       <r>   63.5640    0.0000 </r>
       <r>   63.8132    0.0000 </r>
       <r>   64.4426    0.0000 </r>
       <r>   64.9602    0.0000 </r>
       <r>   65.0997    0.0000 </r>
      </set>
      <set comment="kpoint 16">
       <r>    2.6537    1.0000 </r>
       <r>    2.9651    1.0000 </r>
       <r>    2.9969    1.0000 </r>
       <r>    3.4506    1.0000 </r>
       <r>    4.1194    1.0000 </r>
       <r>    4.1286    1.0000 </r>
       <r>    4.8562    1.0000 </r>
       <r>    6.0957   -0.0111 </r>
       <r>    6.1196   -0.0268 </r>
       <r>    6.3972   -0.0017 </r>
       <r>   11.3636   -0.0000 </r>
       <r>   12.4636    0.0000 </r>
       <r>   14.6158    0.0000 </r>
       <r>   18.0905    0.0000 </r>
       <r>   18.3166    0.0000 </r>
       <r>   19.5597    0.0000 </r>
       <r>   21.5751    0.0000 </r>
       <r>   21.6303    0.0000 </r>
       <r>   23.5123    0.0000 </r>
       <r>   36.9218    0.0000 </r>
       <r>   39.6195    0.0000 </r>
       <r>   40.0950    0.0000 </r>
       <r>   41.1666    0.0000 </r>
       <r>   41.4370    0.0000 </r>
       <r>   43.0177    0.0000 </r>
       <r>   43.9612    0.0000 </r>
       <r>   47.0102    0.0000 </r>
       <r>   47.6936    0.0000 </r>
       <r>   47.8823    0.0000 </r>
       <r>   51.3111    0.0000 </r>
       <r>   52.4583    0.0000 </r>
       <r>   52.8461    0.0000 </r>
       <r>   56.4258    0.0000 </r>
       <r>   57.0674    0.0000 </r>
       <r>   63.5242    0.0000 </r>
       <r>   64.2332    0.0000 </r>
       <r>   64.6247    0.0000 </r>
       <r>   65.0068    0.0000 </r>
       <r>   65.0169    0.0000 </r>
       <r>   65.3836    0.0000 </r>
      </set>
      <set comment="kpoint 17">
       <r>   -2.3912    1.0000 </r>
       <r>    1.2703    1.0000 </r>
       <r>    3.8091    1.0000 </r>
       <r>    4.5367    1.0000 </r>
       <r>    4.5369    1.0000 </r>
       <r>    4.7633    1.0000 </r>
       <r>    4.7634    1.0000 </r>
       <r>    4.8520    1.0000 </r>
       <r>    5.7685    0.9725 </r>
       <r>    5.7685    0.9724 </r>
       <r>    6.5537   -0.0000 </r>
       <r>    6.5537   -0.0000 </r>
       <r>   12.3492    0.0000 </r>
       <r>   26.7536    0.0000 </r>
       <r>   28.9810    0.0000 </r>
       <r>   31.3619    0.0000 </r>
       <r>   33.4058    0.0000 </r>
       <r>   33.4058    0.0000 </r>
       <r>   34.0113    0.0000 </r>
       <r>   34.2091    0.0000 </r>
       <r>   34.2093    0.0000 </r>
       <r>   37.0194    0.0000 </r>
       <r>   37.0194    0.0000 </r>
       <r>   38.2563    0.0000 </r>
       <r>   39.7680    0.0000 </r>
       <r>   39.7680    0.0000 </r>
       <r>   40.2068    0.0000 </r>
       <r>   43.5577    0.0000 </r>
       <r>   43.5581    0.0000 </r>
       <r>   45.3070    0.0000 </r>
       <r>   45.3071    0.0000 </r>
       <r>   46.8176    0.0000 </r>
       <r>   53.8348    0.0000 </r>
       <r>   57.7857    0.0000 </r>
       <r>   57.7859    0.0000 </r>
       <r>   57.9232    0.0000 </r>
       <r>   58.4465    0.0000 </r>
       <r>   58.4474    0.0000 </r>
       <r>   60.1949    0.0000 </r>
       <r>   60.4540    0.0000 </r>
      </set>
      <set comment="kpoint 18">
       <r>   -2.0788    1.0000 </r>
       <r>    1.5141    1.0000 </r>
       <r>    3.8661    1.0000 </r>
       <r>    4.2542    1.0000 </r>
       <r>    4.4365    1.0000 </r>
       <r>    4.6837    1.0000 </r>
       <r>    4.7095    1.0000 </r>
       <r>    4.9261    1.0000 </r>
       <r>    5.6282    1.0302 </r>
       <r>    5.6800    1.0351 </r>
       <r>    6.5736   -0.0000 </r>
       <r>    7.3554   -0.0000 </r>
       <r>   12.4185    0.0000 </r>
       <r>   27.0562    0.0000 </r>
       <r>   27.5132    0.0000 </r>
       <r>   29.7607    0.0000 </r>
       <r>   30.7823    0.0000 </r>
       <r>   32.4841    0.0000 </r>
       <r>   33.5926    0.0000 </r>
       <r>   33.9648    0.0000 </r>
       <r>   36.0533    0.0000 </r>
       <r>   36.5749    0.0000 </r>
       <r>   37.1430    0.0000 </r>
       <r>   37.8325    0.0000 </r>
       <r>   40.6641    0.0000 </r>
       <r>   40.9237    0.0000 </r>
       <r>   41.6136    0.0000 </r>
       <r>   42.2021    0.0000 </r>
       <r>   44.6235    0.0000 </r>
       <r>   46.4101    0.0000 </r>
       <r>   47.7306    0.0000 </r>
       <r>   49.1168    0.0000 </r>
       <r>   52.9437    0.0000 </r>
       <r>   56.1683    0.0000 </r>
       <r>   56.4457    0.0000 </r>
       <r>   57.1577    0.0000 </r>
       <r>   58.3557    0.0000 </r>
       <r>   59.5575    0.0000 </r>
       <r>   60.0762    0.0000 </r>
       <r>   61.5465    0.0000 </r>
      </set>
      <set comment="kpoint 19">
       <r>   -1.1909    1.0000 </r>
       <r>    2.1032    1.0000 </r>
       <r>    3.4477    1.0000 </r>
       <r>    3.8310    1.0000 </r>
       <r>    4.2223    1.0000 </r>
       <r>    4.6719    1.0000 </r>
       <r>    5.1742    1.0000 </r>
       <r>    5.3214    1.0001 </r>
       <r>    5.3599    1.0003 </r>
       <r>    5.4985    1.0060 </r>
       <r>    6.6012   -0.0000 </r>
       <r>    8.7763   -0.0000 </r>
       <r>   12.6763    0.0000 </r>
       <r>   23.5474    0.0000 </r>
       <r>   27.6839    0.0000 </r>
       <r>   28.1088    0.0000 </r>
       <r>   28.4945    0.0000 </r>
       <r>   29.1756    0.0000 </r>
       <r>   32.5599    0.0000 </r>
       <r>   34.2208    0.0000 </r>
       <r>   34.4296    0.0000 </r>
       <r>   34.7921    0.0000 </r>
       <r>   37.9944    0.0000 </r>
       <r>   38.4148    0.0000 </r>
       <r>   41.3590    0.0000 </r>
       <r>   42.5644    0.0000 </r>
       <r>   43.9071    0.0000 </r>
       <r>   46.0234    0.0000 </r>
       <r>   46.9171    0.0000 </r>
       <r>   49.8714    0.0000 </r>
       <r>   50.5698    0.0000 </r>
       <r>   51.3933    0.0000 </r>
       <r>   52.5223    0.0000 </r>
       <r>   54.5305    0.0000 </r>
       <r>   54.6039    0.0000 </r>
       <r>   56.5038    0.0000 </r>
       <r>   58.4095    0.0000 </r>
       <r>   59.7977    0.0000 </r>
       <r>   60.4609    0.0000 </r>
       <r>   63.3321    0.0000 </r>
      </set>
      <set comment="kpoint 20">
       <r>    0.0849    1.0000 </r>
       <r>    2.4343    1.0000 </r>
       <r>    2.8358    1.0000 </r>
       <r>    3.8135    1.0000 </r>
       <r>    4.0363    1.0000 </r>
       <r>    4.7989    1.0000 </r>
       <r>    5.1875    1.0000 </r>
       <r>    5.4121    1.0011 </r>
       <r>    5.8900    0.6093 </r>
       <r>    6.0126    0.1396 </r>
       <r>    6.6072   -0.0000 </r>
       <r>   10.2946   -0.0000 </r>
       <r>   13.2848    0.0000 </r>
       <r>   19.5792    0.0000 </r>
       <r>   24.6364    0.0000 </r>
       <r>   25.8447    0.0000 </r>
       <r>   26.8822    0.0000 </r>
       <r>   29.1588    0.0000 </r>
       <r>   30.9131    0.0000 </r>
       <r>   32.7269    0.0000 </r>
       <r>   33.4533    0.0000 </r>
       <r>   35.3286    0.0000 </r>
       <r>   36.1673    0.0000 </r>
       <r>   38.8891    0.0000 </r>
       <r>   44.9266    0.0000 </r>
       <r>   45.3537    0.0000 </r>
       <r>   46.6691    0.0000 </r>
       <r>   47.1486    0.0000 </r>
       <r>   49.6708    0.0000 </r>
       <r>   50.6066    0.0000 </r>
       <r>   51.6869    0.0000 </r>
       <r>   52.6920    0.0000 </r>
       <r>   53.6780    0.0000 </r>
       <r>   55.0880    0.0000 </r>
       <r>   56.7728    0.0000 </r>
       <r>   57.8307    0.0000 </r>
       <r>   59.6248    0.0000 </r>
       <r>   60.2569    0.0000 </r>
       <r>   61.5286    0.0000 </r>
       <r>   63.3660    0.0000 </r>
      </set>
      <set comment="kpoint 21">
       <r>    1.2555    1.0000 </r>
       <r>    2.1993    1.0000 </r>
       <r>    2.4895    1.0000 </r>
       <r>    3.7259    1.0000 </r>
       <r>    4.4723    1.0000 </r>
       <r>    4.6528    1.0000 </r>
       <r>    4.9847    1.0000 </r>
       <r>    6.4441   -0.0006 </r>
       <r>    6.5321   -0.0001 </r>
       <r>    6.5814   -0.0000 </r>
       <r>    6.6924   -0.0000 </r>
       <r>   11.5731    0.0000 </r>
       <r>   14.1792    0.0000 </r>
       <r>   16.5748    0.0000 </r>
       <r>   21.3712    0.0000 </r>
       <r>   23.9537    0.0000 </r>
       <r>   24.1309    0.0000 </r>
       <r>   28.9158    0.0000 </r>
       <r>   30.0768    0.0000 </r>
       <r>   32.1330    0.0000 </r>
       <r>   33.3902    0.0000 </r>
       <r>   35.0819    0.0000 </r>
       <r>   36.4548    0.0000 </r>
       <r>   38.9209    0.0000 </r>
       <r>   43.5770    0.0000 </r>
       <r>   47.7884    0.0000 </r>
       <r>   47.9144    0.0000 </r>
       <r>   50.3405    0.0000 </r>
       <r>   50.4834    0.0000 </r>
       <r>   52.6895    0.0000 </r>
       <r>   52.8447    0.0000 </r>
       <r>   54.6950    0.0000 </r>
       <r>   55.5280    0.0000 </r>
       <r>   56.9981    0.0000 </r>
       <r>   59.4531    0.0000 </r>
       <r>   59.6754    0.0000 </r>
       <r>   60.6804    0.0000 </r>
       <r>   61.6373    0.0000 </r>
       <r>   63.5913    0.0000 </r>
       <r>   64.2521    0.0000 </r>
      </set>
      <set comment="kpoint 22">
       <r>    1.7343    1.0000 </r>
       <r>    1.9447    1.0000 </r>
       <r>    2.3736    1.0000 </r>
       <r>    3.7844    1.0000 </r>
       <r>    4.6139    1.0000 </r>
       <r>    4.8680    1.0000 </r>
       <r>    4.9706    1.0000 </r>
       <r>    6.5595   -0.0000 </r>
       <r>    6.9984   -0.0000 </r>
       <r>    7.0753   -0.0000 </r>
       <r>    7.9481   -0.0000 </r>
       <r>   11.0079   -0.0000 </r>
       <r>   14.9340    0.0000 </r>
       <r>   16.3569    0.0000 </r>
       <r>   19.2088    0.0000 </r>
       <r>   21.1404    0.0000 </r>
       <r>   23.1817    0.0000 </r>
       <r>   28.4286    0.0000 </r>
       <r>   29.8148    0.0000 </r>
       <r>   31.2844    0.0000 </r>
       <r>   34.6388    0.0000 </r>
       <r>   35.0216    0.0000 </r>
       <r>   36.6514    0.0000 </r>
       <r>   39.2498    0.0000 </r>
       <r>   41.4230    0.0000 </r>
       <r>   47.1923    0.0000 </r>
       <r>   48.4076    0.0000 </r>
       <r>   51.3300    0.0000 </r>
       <r>   53.8123    0.0000 </r>
       <r>   54.8440    0.0000 </r>
       <r>   55.6723    0.0000 </r>
       <r>   57.2088    0.0000 </r>
       <r>   57.6473    0.0000 </r>
       <r>   58.5030    0.0000 </r>
       <r>   59.6689    0.0000 </r>
       <r>   59.8641    0.0000 </r>
       <r>   62.7658    0.0000 </r>
       <r>   62.8351    0.0000 </r>
       <r>   63.4368    0.0000 </r>
       <r>   63.5681    0.0000 </r>
      </set>
      <set comment="kpoint 23">
       <r>   -1.4765    1.0000 </r>
       <r>    1.9469    1.0000 </r>
       <r>    3.6576    1.0000 </r>
       <r>    3.8448    1.0000 </r>
       <r>    4.3779    1.0000 </r>
       <r>    4.4806    1.0000 </r>
       <r>    5.0526    1.0000 </r>
       <r>    5.2358    1.0000 </r>
       <r>    5.3621    1.0003 </r>
       <r>    5.6295    1.0305 </r>
       <r>    6.5676   -0.0000 </r>
       <r>    8.3831   -0.0000 </r>
       <r>   12.5847    0.0000 </r>
       <r>   25.3486    0.0000 </r>
       <r>   26.3728    0.0000 </r>
       <r>   27.7536    0.0000 </r>
       <r>   30.0487    0.0000 </r>
       <r>   31.8508    0.0000 </r>
       <r>   32.3113    0.0000 </r>
       <r>   32.4718    0.0000 </r>
       <r>   33.9462    0.0000 </r>
       <r>   38.0398    0.0000 </r>
       <r>   38.5320    0.0000 </r>
       <r>   39.2942    0.0000 </r>
       <r>   39.5508    0.0000 </r>
       <r>   40.9779    0.0000 </r>
       <r>   41.3225    0.0000 </r>
       <r>   46.6260    0.0000 </r>
       <r>   47.6127    0.0000 </r>
       <r>   48.4173    0.0000 </r>
       <r>   48.7640    0.0000 </r>
       <r>   51.6592    0.0000 </r>
       <r>   52.0966    0.0000 </r>
       <r>   54.1418    0.0000 </r>
       <r>   55.6136    0.0000 </r>
       <r>   57.3044    0.0000 </r>
       <r>   57.6785    0.0000 </r>
       <r>   59.0005    0.0000 </r>
       <r>   61.0209    0.0000 </r>
       <r>   63.4313    0.0000 </r>
      </set>
      <set comment="kpoint 24">
       <r>   -0.3727    1.0000 </r>
       <r>    2.5256    1.0000 </r>
       <r>    3.0463    1.0000 </r>
       <r>    3.6293    1.0000 </r>
       <r>    4.1439    1.0000 </r>
       <r>    4.6330    1.0000 </r>
       <r>    5.0527    1.0000 </r>
       <r>    5.3459    1.0002 </r>
       <r>    5.7420    1.0059 </r>
       <r>    5.9186    0.4896 </r>
       <r>    6.5481   -0.0000 </r>
       <r>    9.7930   -0.0000 </r>
       <r>   13.0485    0.0000 </r>
       <r>   21.6254    0.0000 </r>
       <r>   24.1379    0.0000 </r>
       <r>   26.6048    0.0000 </r>
       <r>   28.3230    0.0000 </r>
       <r>   29.5924    0.0000 </r>
       <r>   30.6152    0.0000 </r>
       <r>   32.5207    0.0000 </r>
       <r>   33.5273    0.0000 </r>
       <r>   37.3447    0.0000 </r>
       <r>   37.4669    0.0000 </r>
       <r>   39.4427    0.0000 </r>
       <r>   41.8885    0.0000 </r>
       <r>   42.9188    0.0000 </r>
       <r>   45.2041    0.0000 </r>
       <r>   47.3626    0.0000 </r>
       <r>   49.7680    0.0000 </r>
       <r>   50.2477    0.0000 </r>
       <r>   51.8100    0.0000 </r>
       <r>   52.9223    0.0000 </r>
       <r>   53.3046    0.0000 </r>
       <r>   54.8150    0.0000 </r>
       <r>   55.0841    0.0000 </r>
       <r>   56.6644    0.0000 </r>
       <r>   58.9748    0.0000 </r>
       <r>   60.0053    0.0000 </r>
       <r>   61.6347    0.0000 </r>
       <r>   63.2822    0.0000 </r>
      </set>
      <set comment="kpoint 25">
       <r>    0.9342    1.0000 </r>
       <r>    2.4947    1.0000 </r>
       <r>    2.6535    1.0000 </r>
       <r>    3.6535    1.0000 </r>
       <r>    4.1863    1.0000 </r>
       <r>    4.5621    1.0000 </r>
       <r>    5.0643    1.0000 </r>
       <r>    5.5274    1.0096 </r>
       <r>    6.3933   -0.0019 </r>
       <r>    6.4753   -0.0003 </r>
       <r>    6.7954   -0.0000 </r>
       <r>   11.2560   -0.0000 </r>
       <r>   13.9666    0.0000 </r>
       <r>   17.9342    0.0000 </r>
       <r>   22.4774    0.0000 </r>
       <r>   23.2113    0.0000 </r>
       <r>   26.1039    0.0000 </r>
       <r>   27.6878    0.0000 </r>
       <r>   31.1592    0.0000 </r>
       <r>   31.8221    0.0000 </r>
       <r>   33.0096    0.0000 </r>
       <r>   36.7593    0.0000 </r>
       <r>   37.4204    0.0000 </r>
       <r>   40.4103    0.0000 </r>
       <r>   43.3318    0.0000 </r>
       <r>   45.0479    0.0000 </r>
       <r>   46.8621    0.0000 </r>
       <r>   48.6032    0.0000 </r>
       <r>   49.8235    0.0000 </r>
       <r>   51.0051    0.0000 </r>
       <r>   52.7478    0.0000 </r>
       <r>   54.4676    0.0000 </r>
       <r>   55.5199    0.0000 </r>
       <r>   56.8637    0.0000 </r>
       <r>   58.3516    0.0000 </r>
       <r>   59.8800    0.0000 </r>
       <r>   60.3955    0.0000 </r>
       <r>   61.6208    0.0000 </r>
       <r>   62.0984    0.0000 </r>
       <r>   63.1714    0.0000 </r>
      </set>
      <set comment="kpoint 26">
       <r>    1.7703    1.0000 </r>
       <r>    2.2039    1.0000 </r>
       <r>    2.4791    1.0000 </r>
       <r>    3.7193    1.0000 </r>
       <r>    4.5287    1.0000 </r>
       <r>    4.5924    1.0000 </r>
       <r>    4.8720    1.0000 </r>
       <r>    6.3544   -0.0041 </r>
       <r>    6.4601   -0.0004 </r>
       <r>    6.8510   -0.0000 </r>
       <r>    7.8329   -0.0000 </r>
       <r>   12.0003    0.0000 </r>
       <r>   14.6539    0.0000 </r>
       <r>   16.3686    0.0000 </r>
       <r>   20.1274    0.0000 </r>
       <r>   21.4009    0.0000 </r>
       <r>   22.9524    0.0000 </r>
       <r>   26.8774    0.0000 </r>
       <r>   30.4567    0.0000 </r>
       <r>   31.9398    0.0000 </r>
       <r>   33.8107    0.0000 </r>
       <r>   36.2404    0.0000 </r>
       <r>   38.4508    0.0000 </r>
       <r>   39.5209    0.0000 </r>
       <r>   42.9485    0.0000 </r>
       <r>   46.1097    0.0000 </r>
       <r>   47.4735    0.0000 </r>
       <r>   49.7035    0.0000 </r>
       <r>   51.4970    0.0000 </r>
       <r>   52.8769    0.0000 </r>
       <r>   54.5741    0.0000 </r>
       <r>   56.4041    0.0000 </r>
       <r>   57.8570    0.0000 </r>
       <r>   58.8435    0.0000 </r>
       <r>   60.1466    0.0000 </r>
       <r>   60.5559    0.0000 </r>
       <r>   61.6560    0.0000 </r>
       <r>   62.3225    0.0000 </r>
       <r>   63.4030    0.0000 </r>
       <r>   63.9852    0.0000 </r>
      </set>
      <set comment="kpoint 27">
       <r>    1.9449    1.0000 </r>
       <r>    2.0519    1.0000 </r>
       <r>    2.4648    1.0000 </r>
       <r>    3.7755    1.0000 </r>
       <r>    4.5681    1.0000 </r>
       <r>    4.8056    1.0000 </r>
       <r>    4.8456    1.0000 </r>
       <r>    6.4492   -0.0005 </r>
       <r>    6.8612   -0.0000 </r>
       <r>    6.8874   -0.0000 </r>
       <r>    8.9495   -0.0000 </r>
       <r>   10.8573   -0.0000 </r>
       <r>   15.7171    0.0000 </r>
       <r>   16.3585    0.0000 </r>
       <r>   19.2703    0.0000 </r>
       <r>   20.2385    0.0000 </r>
       <r>   21.5960    0.0000 </r>
       <r>   26.5904    0.0000 </r>
       <r>   30.0871    0.0000 </r>
       <r>   31.8546    0.0000 </r>
       <r>   34.7520    0.0000 </r>
       <r>   35.9083    0.0000 </r>
       <r>   38.3559    0.0000 </r>
       <r>   40.6281    0.0000 </r>
       <r>   40.8960    0.0000 </r>
       <r>   46.4839    0.0000 </r>
       <r>   47.5449    0.0000 </r>
       <r>   50.6148    0.0000 </r>
       <r>   53.6229    0.0000 </r>
       <r>   54.0265    0.0000 </r>
       <r>   56.1855    0.0000 </r>
       <r>   56.7570    0.0000 </r>
       <r>   57.9417    0.0000 </r>
       <r>   58.7214    0.0000 </r>
       <r>   58.8049    0.0000 </r>
       <r>   61.1058    0.0000 </r>
       <r>   63.3211    0.0000 </r>
       <r>   63.4519    0.0000 </r>
       <r>   64.1281    0.0000 </r>
       <r>   64.2352    0.0000 </r>
      </set>
      <set comment="kpoint 28">
       <r>    0.8293    1.0000 </r>
       <r>    2.6887    1.0000 </r>
       <r>    3.0307    1.0000 </r>
       <r>    3.2329    1.0000 </r>
       <r>    4.1962    1.0000 </r>
       <r>    4.3948    1.0000 </r>
       <r>    5.1111    1.0000 </r>
       <r>    5.1355    1.0000 </r>
       <r>    6.3780   -0.0026 </r>
       <r>    6.3852   -0.0022 </r>
       <r>    6.8605   -0.0000 </r>
       <r>   11.1461   -0.0000 </r>
       <r>   13.9228    0.0000 </r>
       <r>   19.7620    0.0000 </r>
       <r>   20.3578    0.0000 </r>
       <r>   24.8895    0.0000 </r>
       <r>   25.7886    0.0000 </r>
       <r>   28.4597    0.0000 </r>
       <r>   28.7060    0.0000 </r>
       <r>   31.6334    0.0000 </r>
       <r>   35.4164    0.0000 </r>
       <r>   38.5688    0.0000 </r>
       <r>   38.7525    0.0000 </r>
       <r>   40.9340    0.0000 </r>
       <r>   41.3905    0.0000 </r>
       <r>   44.3654    0.0000 </r>
       <r>   44.3986    0.0000 </r>
       <r>   48.2650    0.0000 </r>
       <r>   48.9480    0.0000 </r>
       <r>   50.8825    0.0000 </r>
       <r>   52.7563    0.0000 </r>
       <r>   55.1152    0.0000 </r>
       <r>   55.6480    0.0000 </r>
       <r>   57.5351    0.0000 </r>
       <r>   58.0871    0.0000 </r>
       <r>   59.5367    0.0000 </r>
       <r>   60.0068    0.0000 </r>
       <r>   60.8483    0.0000 </r>
       <r>   62.3053    0.0000 </r>
       <r>   62.7104    0.0000 </r>
      </set>
      <set comment="kpoint 29">
       <r>    1.9884    1.0000 </r>
       <r>    2.5291    1.0000 </r>
       <r>    2.7824    1.0000 </r>
       <r>    3.3989    1.0000 </r>
       <r>    4.2094    1.0000 </r>
       <r>    4.4593    1.0000 </r>
       <r>    4.8076    1.0000 </r>
       <r>    5.5725    1.0178 </r>
       <r>    6.2848   -0.0128 </r>
       <r>    6.7883   -0.0000 </r>
       <r>    8.0089   -0.0000 </r>
       <r>   12.6334    0.0000 </r>
       <r>   15.1645    0.0000 </r>
       <r>   16.8031    0.0000 </r>
       <r>   18.8480    0.0000 </r>
       <r>   22.0309    0.0000 </r>
       <r>   24.3826    0.0000 </r>
       <r>   25.0029    0.0000 </r>
       <r>   27.7001    0.0000 </r>
       <r>   33.1914    0.0000 </r>
       <r>   36.0819    0.0000 </r>
       <r>   38.4919    0.0000 </r>
       <r>   40.0213    0.0000 </r>
       <r>   42.0065    0.0000 </r>
       <r>   42.5042    0.0000 </r>
       <r>   43.7720    0.0000 </r>
       <r>   46.3687    0.0000 </r>
       <r>   46.7869    0.0000 </r>
       <r>   49.1959    0.0000 </r>
       <r>   51.2834    0.0000 </r>
       <r>   53.6199    0.0000 </r>
       <r>   57.0804    0.0000 </r>
       <r>   58.0129    0.0000 </r>
       <r>   59.3254    0.0000 </r>
       <r>   60.6739    0.0000 </r>
       <r>   61.5367    0.0000 </r>
       <r>   61.7455    0.0000 </r>
       <r>   62.5168    0.0000 </r>
       <r>   63.1608    0.0000 </r>
       <r>   63.8180    0.0000 </r>
      </set>
      <set comment="kpoint 30">
       <r>    2.2976    1.0000 </r>
       <r>    2.5110    1.0000 </r>
       <r>    2.7208    1.0000 </r>
       <r>    3.6397    1.0000 </r>
       <r>    4.3044    1.0000 </r>
       <r>    4.4018    1.0000 </r>
       <r>    4.8253    1.0000 </r>
       <r>    6.1990   -0.0312 </r>
       <r>    6.2249   -0.0257 </r>
       <r>    6.7507   -0.0000 </r>
       <r>    9.5210   -0.0000 </r>
       <r>   12.2288    0.0000 </r>
       <r>   15.7040    0.0000 </r>
       <r>   17.2220    0.0000 </r>
       <r>   17.9158    0.0000 </r>
       <r>   19.8135    0.0000 </r>
       <r>   22.0152    0.0000 </r>
       <r>   23.8381    0.0000 </r>
       <r>   27.1382    0.0000 </r>
       <r>   34.6417    0.0000 </r>
       <r>   36.3404    0.0000 </r>
       <r>   37.7120    0.0000 </r>
       <r>   40.3693    0.0000 </r>
       <r>   41.4334    0.0000 </r>
       <r>   43.5894    0.0000 </r>
       <r>   43.8504    0.0000 </r>
       <r>   47.0431    0.0000 </r>
       <r>   48.2524    0.0000 </r>
       <r>   50.7796    0.0000 </r>
       <r>   52.0697    0.0000 </r>
       <r>   53.3244    0.0000 </r>
       <r>   56.7052    0.0000 </r>
       <r>   56.8784    0.0000 </r>
       <r>   59.1109    0.0000 </r>
       <r>   60.3640    0.0000 </r>
       <r>   63.0650    0.0000 </r>
       <r>   63.4982    0.0000 </r>
       <r>   64.0343    0.0000 </r>
       <r>   64.3003    0.0000 </r>
       <r>   64.8295    0.0000 </r>
      </set>
      <set comment="kpoint 31">
       <r>    2.5804    1.0000 </r>
       <r>    2.8161    1.0000 </r>
       <r>    3.0564    1.0000 </r>
       <r>    3.2068    1.0000 </r>
       <r>    4.1009    1.0000 </r>
       <r>    4.3440    1.0000 </r>
       <r>    4.7637    1.0000 </r>
       <r>    5.8159    0.8707 </r>
       <r>    6.1083   -0.0206 </r>
       <r>    6.7199   -0.0000 </r>
       <r>    9.6561   -0.0000 </r>
       <r>   13.9457    0.0000 </r>
       <r>   15.0634    0.0000 </r>
       <r>   16.2219    0.0000 </r>
       <r>   17.7647    0.0000 </r>
       <r>   21.2287    0.0000 </r>
       <r>   21.4707    0.0000 </r>
       <r>   23.9637    0.0000 </r>
       <r>   24.5893    0.0000 </r>
       <r>   34.8955    0.0000 </r>
       <r>   38.0699    0.0000 </r>
       <r>   40.3736    0.0000 </r>
       <r>   40.5668    0.0000 </r>
       <r>   42.4944    0.0000 </r>
       <r>   42.8927    0.0000 </r>
       <r>   44.0432    0.0000 </r>
       <r>   46.1048    0.0000 </r>
       <r>   47.4388    0.0000 </r>
       <r>   47.6791    0.0000 </r>
       <r>   52.5703    0.0000 </r>
       <r>   52.6930    0.0000 </r>
       <r>   54.6289    0.0000 </r>
       <r>   56.6637    0.0000 </r>
       <r>   59.3182    0.0000 </r>
       <r>   62.7553    0.0000 </r>
       <r>   63.2205    0.0000 </r>
       <r>   63.3520    0.0000 </r>
       <r>   64.1491    0.0000 </r>
       <r>   64.4424    0.0000 </r>
       <r>   64.8141    0.0000 </r>
      </set>
      <set comment="kpoint 32">
       <r>    2.6429    1.0000 </r>
       <r>    2.9820    1.0000 </r>
       <r>    3.0429    1.0000 </r>
       <r>    3.4072    1.0000 </r>
       <r>    4.0967    1.0000 </r>
       <r>    4.1311    1.0000 </r>
       <r>    4.8777    1.0000 </r>
       <r>    6.0404    0.0706 </r>
       <r>    6.1463   -0.0345 </r>
       <r>    6.4239   -0.0010 </r>
       <r>   11.4243    0.0000 </r>
       <r>   12.4625    0.0000 </r>
       <r>   14.6250    0.0000 </r>
       <r>   17.7674    0.0000 </r>
       <r>   17.8637    0.0000 </r>
       <r>   19.9325    0.0000 </r>
       <r>   21.4652    0.0000 </r>
       <r>   21.9906    0.0000 </r>
       <r>   24.0853    0.0000 </r>
       <r>   35.9138    0.0000 </r>
       <r>   38.2878    0.0000 </r>
       <r>   40.1602    0.0000 </r>
       <r>   40.7498    0.0000 </r>
       <r>   42.7548    0.0000 </r>
       <r>   43.2702    0.0000 </r>
       <r>   45.1271    0.0000 </r>
       <r>   46.7250    0.0000 </r>
       <r>   47.9095    0.0000 </r>
       <r>   48.1662    0.0000 </r>
       <r>   51.1013    0.0000 </r>
       <r>   52.2649    0.0000 </r>
       <r>   53.1564    0.0000 </r>
       <r>   56.6621    0.0000 </r>
       <r>   57.2923    0.0000 </r>
       <r>   63.2440    0.0000 </r>
       <r>   64.1708    0.0000 </r>
       <r>   64.2459    0.0000 </r>
       <r>   64.7591    0.0000 </r>
       <r>   65.1022    0.0000 </r>
       <r>   65.4753    0.0000 </r>
      </set>
      <set comment="kpoint 33">
       <r>   -2.1815    1.0000 </r>
       <r>    1.1141    1.0000 </r>
       <r>    3.7640    1.0000 </r>
       <r>    4.4230    1.0000 </r>
       <r>    4.5277    1.0000 </r>
       <r>    4.5278    1.0000 </r>
       <r>    4.7311    1.0000 </r>
       <r>    4.7313    1.0000 </r>
       <r>    5.8419    0.7914 </r>
       <r>    5.8419    0.7912 </r>
       <r>    6.5268   -0.0001 </r>
       <r>    6.5269   -0.0001 </r>
       <r>   13.2918    0.0000 </r>
       <r>   25.2256    0.0000 </r>
       <r>   29.0421    0.0000 </r>
       <r>   31.0085    0.0000 </r>
       <r>   33.5610    0.0000 </r>
       <r>   33.5610    0.0000 </r>
       <r>   34.2553    0.0000 </r>
       <r>   34.2555    0.0000 </r>
       <r>   35.4322    0.0000 </r>
[...]
       <r>   19.8457    0.0000 </r>
       <r>   20.5192    0.0000 </r>
       <r>   24.1350    0.0000 </r>
       <r>   25.1364    0.0000 </r>
       <r>   29.4365    0.0000 </r>
       <r>   30.4240    0.0000 </r>
       <r>   32.9483    0.0000 </r>
       <r>   34.3877    0.0000 </r>
       <r>   39.1556    0.0000 </r>
       <r>   39.5150    0.0000 </r>
       <r>   48.2661    0.0000 </r>
       <r>   49.1078    0.0000 </r>
       <r>   49.2389    0.0000 </r>
       <r>   50.5447    0.0000 </r>
       <r>   52.3286    0.0000 </r>
       <r>   53.6724    0.0000 </r>
       <r>   54.0148    0.0000 </r>
       <r>   54.7630    0.0000 </r>
       <r>   56.9732    0.0000 </r>
       <r>   57.8573    0.0000 </r>
       <r>   59.1655    0.0000 </r>
       <r>   60.6323    0.0000 </r>
       <r>   62.1259    0.0000 </r>
       <r>   62.5303    0.0000 </r>
       <r>   63.0658    0.0000 </r>
       <r>   63.4024    0.0000 </r>
      </set>
      <set comment="kpoint 95">
       <r>    2.5509    1.0000 </r>
       <r>    2.5892    1.0000 </r>
       <r>    3.3729    1.0000 </r>
       <r>    3.5547    1.0000 </r>
       <r>    3.9205    1.0000 </r>
       <r>    4.0814    1.0000 </r>
       <r>    5.1099    1.0000 </r>
       <r>    5.2810    1.0000 </r>
       <r>    6.5660   -0.0000 </r>
       <r>    6.7312   -0.0000 </r>
       <r>   10.4680   -0.0000 </r>
       <r>   10.9433   -0.0000 </r>
       <r>   16.4179    0.0000 </r>
       <r>   16.7800    0.0000 </r>
       <r>   17.9304    0.0000 </r>
       <r>   18.2770    0.0000 </r>
       <r>   24.2548    0.0000 </r>
       <r>   25.7131    0.0000 </r>
       <r>   29.6332    0.0000 </r>
       <r>   30.8584    0.0000 </r>
       <r>   32.5634    0.0000 </r>
       <r>   33.5239    0.0000 </r>
       <r>   41.8131    0.0000 </r>
       <r>   42.1924    0.0000 </r>
       <r>   45.2987    0.0000 </r>
       <r>   45.4190    0.0000 </r>
       <r>   50.6762    0.0000 </r>
       <r>   52.3306    0.0000 </r>
       <r>   52.8982    0.0000 </r>
       <r>   53.1238    0.0000 </r>
       <r>   55.1456    0.0000 </r>
       <r>   55.3019    0.0000 </r>
       <r>   56.5670    0.0000 </r>
       <r>   56.6189    0.0000 </r>
       <r>   57.5283    0.0000 </r>
       <r>   58.1986    0.0000 </r>
       <r>   62.2086    0.0000 </r>
       <r>   62.6689    0.0000 </r>
       <r>   63.5682    0.0000 </r>
       <r>   63.5821    0.0000 </r>
      </set>
      <set comment="kpoint 96">
       <r>    2.7423    1.0000 </r>
       <r>    2.8472    1.0000 </r>
       <r>    3.3497    1.0000 </r>
       <r>    3.4455    1.0000 </r>
       <r>    3.8826    1.0000 </r>
       <r>    4.0044    1.0000 </r>
       <r>    5.1418    1.0000 </r>
       <r>    5.2705    1.0000 </r>
       <r>    6.5528   -0.0000 </r>
       <r>    6.6110   -0.0000 </r>
       <r>   12.2429    0.0000 </r>
       <r>   12.3638    0.0000 </r>
       <r>   14.7455    0.0000 </r>
       <r>   15.0141    0.0000 </r>
       <r>   17.2862    0.0000 </r>
       <r>   17.7199    0.0000 </r>
       <r>   25.9826    0.0000 </r>
       <r>   26.4815    0.0000 </r>
       <r>   28.5925    0.0000 </r>
       <r>   29.0356    0.0000 </r>
       <r>   32.2167    0.0000 </r>
       <r>   32.9879    0.0000 </r>
       <r>   42.7967    0.0000 </r>
       <r>   43.3939    0.0000 </r>
       <r>   47.4274    0.0000 </r>
       <r>   47.8738    0.0000 </r>
       <r>   49.3744    0.0000 </r>
       <r>   49.7957    0.0000 </r>
       <r>   52.4385    0.0000 </r>
       <r>   52.9922    0.0000 </r>
       <r>   54.9208    0.0000 </r>
       <r>   55.3945    0.0000 </r>
       <r>   55.9615    0.0000 </r>
       <r>   56.5414    0.0000 </r>
       <r>   58.6794    0.0000 </r>
       <r>   59.2790    0.0000 </r>
       <r>   60.4422    0.0000 </r>
       <r>   61.1028    0.0000 </r>
       <r>   64.8818    0.0000 </r>
       <r>   64.8931    0.0000 </r>
      </set>
     </set>
    </set>
   </array>
  </eigenvalues>
  <separator name="orbital magnetization" >
   <v name="MAGDIPOLOUT">      0.00000000      0.00000000      0.00000000</v>
  </separator>
  <dos>
   <i name="efermi">      5.91611954 </i>
   <total>
    <array>
     <dimension dim="1">gridpoints</dimension>
     <dimension dim="2">spin</dimension>
     <field>energy</field>
     <field>total</field>
     <field>integrated</field>
     <set>
      <set comment="spin 1">
       <r>    -5.8639     0.0000     0.0000 </r>
       <r>    -5.6144     0.0000     0.0000 </r>
       <r>    -5.3649     0.0000     0.0000 </r>
       <r>    -5.1155     0.0000     0.0000 </r>
       <r>    -4.8660     0.0000     0.0000 </r>
       <r>    -4.6165     0.0000     0.0000 </r>
       <r>    -4.3670     0.0000     0.0000 </r>
       <r>    -4.1175    -0.0000    -0.0000 </r>
       <r>    -3.8680    -0.0000    -0.0000 </r>
       <r>    -3.6186    -0.0000    -0.0000 </r>
       <r>    -3.3691    -0.0000    -0.0000 </r>
       <r>    -3.1196    -0.0000    -0.0000 </r>
       <r>    -2.8701    -0.0001    -0.0000 </r>
       <r>    -2.6206    -0.0004    -0.0001 </r>
       <r>    -2.3712     0.0090     0.0021 </r>
       <r>    -2.1217     0.0615     0.0175 </r>
       <r>    -1.8722     0.1101     0.0449 </r>
       <r>    -1.6227     0.0652     0.0612 </r>
       <r>    -1.3732     0.1654     0.1024 </r>
       <r>    -1.1237     0.1997     0.1523 </r>
       <r>    -0.8743     0.1914     0.2000 </r>
       <r>    -0.6248     0.1014     0.2253 </r>
       <r>    -0.3753     0.2728     0.2934 </r>
       <r>    -0.1258     0.2947     0.3669 </r>
       <r>     0.1237     0.3554     0.4556 </r>
       <r>     0.3731     0.2763     0.5245 </r>
       <r>     0.6226     0.2626     0.5900 </r>
       <r>     0.8721     0.4272     0.6966 </r>
       <r>     1.1216     0.6891     0.8685 </r>
       <r>     1.3711     0.8201     1.0731 </r>
       <r>     1.6206     1.0779     1.3420 </r>
       <r>     1.8700     2.0381     1.8505 </r>
       <r>     2.1195     2.6697     2.5165 </r>
       <r>     2.3690     2.3875     3.1122 </r>
       <r>     2.6185     2.9975     3.8600 </r>
       <r>     2.8680     2.7256     4.5400 </r>
       <r>     3.1174     3.5058     5.4146 </r>
       <r>     3.3669     3.5987     6.3125 </r>
       <r>     3.6164     3.5569     7.1998 </r>
       <r>     3.8659     2.7049     7.8747 </r>
       <r>     4.1154     3.2811     8.6932 </r>
       <r>     4.3649     4.5857     9.8373 </r>
       <r>     4.6143     4.2750    10.9038 </r>
       <r>     4.8638     3.9482    11.8888 </r>
       <r>     5.1133     3.7317    12.8198 </r>
       <r>     5.3628     4.1564    13.8568 </r>
       <r>     5.6123     3.9491    14.8420 </r>
       <r>     5.8618     3.8700    15.8075 </r>
       <r>     6.1112     3.5773    16.7000 </r>
       <r>     6.3607     4.7927    17.8956 </r>
       <r>     6.6102     5.5652    19.2841 </r>
       <r>     6.8597     4.8615    20.4969 </r>
       <r>     7.1092     2.7872    21.1923 </r>
       <r>     7.3586     0.4074    21.2939 </r>
       <r>     7.6081     0.5599    21.4336 </r>
       <r>     7.8576     0.6727    21.6014 </r>
       <r>     8.1071     0.9814    21.8463 </r>
       <r>     8.3566     0.7529    22.0341 </r>
       <r>     8.6061     0.3896    22.1313 </r>
       <r>     8.8555     0.4273    22.2379 </r>
       <r>     9.1050     0.5826    22.3833 </r>
       <r>     9.3545     0.3777    22.4775 </r>
       <r>     9.6040     0.5710    22.6199 </r>
       <r>     9.8535     0.6691    22.7869 </r>
       <r>    10.1029     0.4985    22.9112 </r>
       <r>    10.3524     0.5208    23.0412 </r>
       <r>    10.6019     0.4979    23.1654 </r>
       <r>    10.8514     0.1548    23.2040 </r>
       <r>    11.1009     0.4397    23.3137 </r>
       <r>    11.3504     0.3516    23.4014 </r>
       <r>    11.5998     0.4667    23.5178 </r>
       <r>    11.8493     0.1994    23.5676 </r>
       <r>    12.0988     0.3940    23.6659 </r>
       <r>    12.3483     0.5944    23.8142 </r>
       <r>    12.5978     0.7344    23.9974 </r>
       <r>    12.8472     0.2688    24.0645 </r>
       <r>    13.0967     0.1881    24.1114 </r>
       <r>    13.3462     0.1948    24.1600 </r>
       <r>    13.5957     0.0899    24.1824 </r>
       <r>    13.8452     0.1877    24.2292 </r>
       <r>    14.0947     0.3422    24.3146 </r>
       <r>    14.3441     0.1813    24.3598 </r>
       <r>    14.5936     0.3539    24.4481 </r>
       <r>    14.8431     0.9225    24.6783 </r>
       <r>    15.0926     0.9276    24.9097 </r>
       <r>    15.3421     0.9713    25.1520 </r>
       <r>    15.5915     0.7207    25.3318 </r>
       <r>    15.8410     0.4818    25.4520 </r>
       <r>    16.0905     0.5781    25.5962 </r>
       <r>    16.3400     0.8688    25.8130 </r>
       <r>    16.5895     0.7304    25.9952 </r>
       <r>    16.8390     0.7577    26.1842 </r>
       <r>    17.0884     0.9888    26.4309 </r>
       <r>    17.3379     0.7542    26.6191 </r>
       <r>    17.5874     0.3341    26.7024 </r>
       <r>    17.8369     0.5776    26.8465 </r>
       <r>    18.0864     0.8158    27.0501 </r>
       <r>    18.3358     0.7987    27.2493 </r>
       <r>    18.5853     0.5431    27.3848 </r>
       <r>    18.8348     0.5563    27.5236 </r>
       <r>    19.0843     0.6075    27.6751 </r>
       <r>    19.3338     0.5490    27.8121 </r>
       <r>    19.5833     0.4790    27.9316 </r>
       <r>    19.8327     0.8901    28.1537 </r>
       <r>    20.0822     0.6496    28.3157 </r>
       <r>    20.3317     0.6751    28.4841 </r>
       <r>    20.5812     0.8488    28.6959 </r>
       <r>    20.8307     0.4910    28.8184 </r>
       <r>    21.0801     0.6573    28.9824 </r>
       <r>    21.3296     1.1101    29.2593 </r>
       <r>    21.5791     1.0884    29.5309 </r>
       <r>    21.8286     0.8140    29.7340 </r>
       <r>    22.0781     0.8641    29.9495 </r>
       <r>    22.3276     0.9641    30.1901 </r>
       <r>    22.5770     0.7789    30.3844 </r>
       <r>    22.8265     0.8266    30.5906 </r>
       <r>    23.0760     1.1634    30.8809 </r>
       <r>    23.3255     0.8624    31.0960 </r>
       <r>    23.5750     0.8373    31.3049 </r>
       <r>    23.8244     0.9963    31.5534 </r>
       <r>    24.0739     0.9827    31.7986 </r>
       <r>    24.3234     1.5081    32.1748 </r>
       <r>    24.5729     1.2605    32.4893 </r>
       <r>    24.8224     0.5405    32.6242 </r>
       <r>    25.0719     0.7059    32.8003 </r>
       <r>    25.3213     0.8879    33.0218 </r>
       <r>    25.5708     0.7760    33.2154 </r>
       <r>    25.8203     0.9696    33.4573 </r>
       <r>    26.0698     0.8878    33.6788 </r>
       <r>    26.3193     0.5354    33.8124 </r>
       <r>    26.5687     1.0755    34.0807 </r>
       <r>    26.8182     0.9404    34.3153 </r>
       <r>    27.0677     0.6848    34.4862 </r>
       <r>    27.3172     0.5770    34.6301 </r>
       <r>    27.5667     0.3732    34.7232 </r>
       <r>    27.8162     0.6508    34.8856 </r>
       <r>    28.0656     0.6017    35.0357 </r>
       <r>    28.3151     0.9092    35.2625 </r>
       <r>    28.5646     0.9680    35.5040 </r>
       <r>    28.8141     0.7094    35.6810 </r>
       <r>    29.0636     0.7800    35.8756 </r>
       <r>    29.3130     0.8704    36.0928 </r>
       <r>    29.5625     1.0721    36.3603 </r>
       <r>    29.8120     1.1359    36.6436 </r>
       <r>    30.0615     0.9078    36.8701 </r>
       <r>    30.3110     0.5411    37.0051 </r>
       <r>    30.5605     0.7684    37.1968 </r>
       <r>    30.8099     0.7731    37.3897 </r>
       <r>    31.0594     0.7872    37.5861 </r>
       <r>    31.3089     1.1380    37.8700 </r>
       <r>    31.5584     0.9537    38.1079 </r>
       <r>    31.8079     0.9035    38.3333 </r>
       <r>    32.0573     0.8770    38.5521 </r>
       <r>    32.3068     1.1873    38.8483 </r>
       <r>    32.5563     0.9482    39.0849 </r>
       <r>    32.8058     1.1009    39.3595 </r>
       <r>    33.0553     1.4883    39.7308 </r>
       <r>    33.3048     1.1187    40.0099 </r>
       <r>    33.5542     1.0536    40.2728 </r>
       <r>    33.8037     1.2002    40.5722 </r>
       <r>    34.0532     0.8771    40.7910 </r>
       <r>    34.3027     0.8255    40.9970 </r>
       <r>    34.5522     0.9393    41.2313 </r>
       <r>    34.8016     0.8546    41.4445 </r>
       <r>    35.0511     0.5298    41.5767 </r>
       <r>    35.3006     0.6536    41.7398 </r>
       <r>    35.5501     0.7192    41.9192 </r>
       <r>    35.7996     0.4269    42.0257 </r>
       <r>    36.0491     0.8826    42.2459 </r>
       <r>    36.2985     1.1058    42.5218 </r>
       <r>    36.5480     1.2627    42.8368 </r>
       <r>    36.7975     0.8210    43.0416 </r>
       <r>    37.0470     0.8496    43.2536 </r>
       <r>    37.2965     0.8540    43.4666 </r>
       <r>    37.5459     0.9425    43.7018 </r>
       <r>    37.7954     0.6857    43.8729 </r>
       <r>    38.0449     1.0450    44.1336 </r>
       <r>    38.2944     1.1020    44.4085 </r>
       <r>    38.5439     1.1766    44.7020 </r>
       <r>    38.7934     1.3603    45.0414 </r>
       <r>    39.0428     0.9565    45.2800 </r>
       <r>    39.2923     1.0252    45.5358 </r>
       <r>    39.5418     1.0578    45.7997 </r>
       <r>    39.7913     1.1540    46.0876 </r>
       <r>    40.0408     0.9028    46.3128 </r>
       <r>    40.2902     1.3097    46.6396 </r>
       <r>    40.5397     1.1117    46.9169 </r>
       <r>    40.7892     0.9316    47.1494 </r>
       <r>    41.0387     1.2033    47.4496 </r>
       <r>    41.2882     1.1739    47.7424 </r>
       <r>    41.5377     1.3736    48.0851 </r>
       <r>    41.7871     0.7015    48.2601 </r>
       <r>    42.0366     0.8046    48.4609 </r>
       <r>    42.2861     0.9241    48.6914 </r>
       <r>    42.5356     1.1378    48.9753 </r>
       <r>    42.7851     0.9655    49.2161 </r>
       <r>    43.0345     1.2670    49.5322 </r>
       <r>    43.2840     0.8489    49.7440 </r>
       <r>    43.5335     1.2277    50.0503 </r>
       <r>    43.7830     1.1945    50.3483 </r>
       <r>    44.0325     1.2369    50.6569 </r>
       <r>    44.2820     0.6352    50.8153 </r>
       <r>    44.5314     0.7457    51.0014 </r>
       <r>    44.7809     0.9313    51.2337 </r>
       <r>    45.0304     1.2052    51.5344 </r>
       <r>    45.2799     1.2665    51.8503 </r>
       <r>    45.5294     1.0633    52.1156 </r>
       <r>    45.7789     0.7310    52.2980 </r>
       <r>    46.0283     0.7298    52.4800 </r>
       <r>    46.2778     1.3058    52.8058 </r>
       <r>    46.5273     1.5629    53.1957 </r>
       <r>    46.7768     1.4162    53.5490 </r>
       <r>    47.0263     1.5605    53.9384 </r>
       <r>    47.2757     1.2042    54.2388 </r>
       <r>    47.5252     1.3342    54.5716 </r>
       <r>    47.7747     1.0134    54.8244 </r>
       <r>    48.0242     1.0144    55.0775 </r>
       <r>    48.2737     0.9721    55.3200 </r>
       <r>    48.5232     1.4632    55.6851 </r>
       <r>    48.7726     0.9693    55.9269 </r>
       <r>    49.0221     0.8306    56.1341 </r>
       <r>    49.2716     1.1130    56.4118 </r>
       <r>    49.5211     0.8869    56.6331 </r>
       <r>    49.7706     1.1894    56.9298 </r>
       <r>    50.0200     1.2857    57.2505 </r>
       <r>    50.2695     1.1241    57.5310 </r>
       <r>    50.5190     1.7449    57.9663 </r>
       <r>    50.7685     1.4702    58.3331 </r>
       <r>    51.0180     1.3802    58.6774 </r>
       <r>    51.2675     1.3104    59.0044 </r>
       <r>    51.5169     1.3742    59.3472 </r>
       <r>    51.7664     1.2879    59.6685 </r>
       <r>    52.0159     0.8388    59.8778 </r>
       <r>    52.2654     0.8996    60.1022 </r>
       <r>    52.5149     1.4152    60.4553 </r>
       <r>    52.7643     1.3997    60.8045 </r>
       <r>    53.0138     1.6471    61.2154 </r>
       <r>    53.2633     1.4401    61.5747 </r>
       <r>    53.5128     1.3072    61.9008 </r>
       <r>    53.7623     1.5704    62.2926 </r>
       <r>    54.0118     1.2019    62.5925 </r>
       <r>    54.2612     1.2593    62.9066 </r>
       <r>    54.5107     1.5522    63.2939 </r>
       <r>    54.7602     1.8282    63.7500 </r>
       <r>    55.0097     1.2554    64.0632 </r>
       <r>    55.2592     1.3626    64.4031 </r>
       <r>    55.5086     1.4966    64.7765 </r>
       <r>    55.7581     1.3804    65.1209 </r>
       <r>    56.0076     1.2599    65.4352 </r>
       <r>    56.2571     1.5315    65.8173 </r>
       <r>    56.5066     1.4876    66.1884 </r>
       <r>    56.7561     1.8946    66.6611 </r>
       <r>    57.0055     1.5060    67.0368 </r>
       <r>    57.2550     1.5765    67.4301 </r>
       <r>    57.5045     1.1637    67.7204 </r>
       <r>    57.7540     1.4578    68.0841 </r>
       <r>    58.0035     1.8593    68.5480 </r>
       <r>    58.2529     1.3611    68.8875 </r>
       <r>    58.5024     1.4122    69.2399 </r>
       <r>    58.7519     1.4829    69.6098 </r>
       <r>    59.0014     1.7013    70.0343 </r>
       <r>    59.2509     1.9152    70.5121 </r>
       <r>    59.5004     1.3971    70.8606 </r>
       <r>    59.7498     1.2387    71.1696 </r>
       <r>    59.9993     1.2256    71.4754 </r>
       <r>    60.2488     1.6054    71.8759 </r>
       <r>    60.4983     2.3364    72.4588 </r>
       <r>    60.7478     1.5487    72.8452 </r>
       <r>    60.9972     1.7743    73.2878 </r>
       <r>    61.2467     1.7243    73.7180 </r>
       <r>    61.4962     1.2904    74.0400 </r>
       <r>    61.7457     2.3217    74.6192 </r>
       <r>    61.9952     1.8048    75.0694 </r>
       <r>    62.2447     1.4394    75.4285 </r>
       <r>    62.4941     2.1392    75.9622 </r>
       <r>    62.7436     2.0188    76.4659 </r>
       <r>    62.9931     2.3157    77.0436 </r>
       <r>    63.2426     1.6865    77.4644 </r>
       <r>    63.4921     2.4701    78.0806 </r>
       <r>    63.7415     1.4661    78.4464 </r>
       <r>    63.9910     1.5992    78.8453 </r>
       <r>    64.2405     1.8634    79.3102 </r>
       <r>    64.4900     0.8687    79.5269 </r>
       <r>    64.7395     0.4667    79.6434 </r>
       <r>    64.9890     0.9522    79.8809 </r>
       <r>    65.2384     0.3061    79.9573 </r>
       <r>    65.4879     0.0754    79.9761 </r>
       <r>    65.7374     0.0980    80.0006 </r>
       <r>    65.9869    -0.0017    80.0001 </r>
       <r>    66.2364    -0.0006    80.0000 </r>
       <r>    66.4858    -0.0000    80.0000 </r>
       <r>    66.7353    -0.0000    80.0000 </r>
       <r>    66.9848    -0.0000    80.0000 </r>
       <r>    67.2343     0.0000    80.0000 </r>
       <r>    67.4838     0.0000    80.0000 </r>
       <r>    67.7333     0.0000    80.0000 </r>
       <r>    67.9827     0.0000    80.0000 </r>
       <r>    68.2322     0.0000    80.0000 </r>
       <r>    68.4817     0.0000    80.0000 </r>
       <r>    68.7312     0.0000    80.0000 </r>
       <r>    68.9807     0.0000    80.0000 </r>
      </set>
     </set>
    </array>
   </total>
  </dos>
 </calculation>
 <structure name="finalpos" >
  <crystal>
   <varray name="basis" >
    <v>       2.42320000       0.00000000       0.00000000 </v>
    <v>      -1.21160000       2.09855276       0.00000000 </v>
    <v>       0.00000000       0.00000000       4.39192000 </v>
   </varray>
   <i name="volume">     22.33384887 </i>
   <varray name="rec_basis" >
    <v>       0.41267745       0.23825944       0.00000000 </v>
    <v>       0.00000000       0.47651888       0.00000000 </v>
    <v>       0.00000000       0.00000000       0.22769085 </v>
   </varray>
  </crystal>
  <varray name="positions" >
   <v>       0.00000000       0.00000000       0.00000000 </v>
   <v>       0.33333333       0.66666667       0.50000000 </v>
  </varray>
 </structure>
</modeling>
