unknown system                          
   1.00000000000000     
     3.635000    0.000000    0.000000
     0.000000    3.635000    0.000000
     0.000000    0.000000    3.635000
   Cu
     4
Direct
  0.000000  0.000000  0.000000
  0.500000  0.500000  0.000000
  0.500000  0.000000  0.500000
  0.000000  0.500000  0.500000
 
   32   32   32
  845.12      796.49      666.03      491.96      317.59      175.90      82.672      36.194      20.754      15.220    
  11.614      9.3732      8.0765      7.4290      7.0282      6.6505      6.4680      6.6505      7.0282      7.4290    
  8.0765      9.3732      11.614      15.220      20.754      36.194      82.672      175.90      317.59      491.96    
  666.03      796.49      796.49      750.47      626.99      462.28      297.53      164.17      77.114      34.347    
  20.361      15.023      11.540      9.3900      8.1534      7.5408      7.1675      6.8189      6.6505      6.8189    
  7.1675      7.5408      8.1534      9.3900      11.540      15.023      20.361      34.347      77.114      164.17    
  297.53      462.28      626.99      750.47      666.03      626.99      522.26      382.81      244.10      133.29    
  62.828      29.800      19.344      14.480      11.343      9.4313      8.3374      7.7905      7.4616      7.1675    
  7.0282      7.1675      7.4616      7.7905      8.3374      9.4313      11.343      14.480      19.344      29.800    
  62.828      133.29      244.10      382.81      522.26      626.99      491.96      462.28      382.81      277.59    
  174.32      94.067      45.618      24.786      17.908      13.726      11.096      9.5086      8.5865      8.0957    
  7.7905      7.5408      7.4290      7.5408      7.7905      8.0957      8.5865      9.5086      11.096      13.726    
  17.908      24.786      45.618      94.067      174.32      277.59      382.81      462.28      317.59      297.53    
  244.10      174.32      107.70      58.531      31.442      21.021      16.249      12.939      10.909      9.6975    
  8.9853      8.5865      8.3374      8.1534      8.0765      8.1534      8.3374      8.5865      8.9853      9.6975    
  10.909      12.939      16.249      21.021      31.442      58.531      107.70      174.32      244.10      297.53    
  175.90      164.17      133.29      94.067      58.531      34.620      23.149      18.217      14.651      12.291    
  10.899      10.114      9.6975      9.5086      9.4313      9.3900      9.3732      9.3900      9.4313      9.5086    
  9.6975      10.114      10.899      12.291      14.651      18.217      23.149      34.620      58.531      94.067    
  133.29      164.17      82.672      77.114      62.828      45.618      31.442      23.149      18.951      15.708    
  13.363      11.927      11.184      10.899      10.909      11.096      11.343      11.540      11.614      11.540    
  11.343      11.096      10.909      10.899      11.184      11.927      13.363      15.708      18.951      23.149    
  31.442      45.618      62.828      77.114      36.194      34.347      29.800      24.786      21.021      18.217    
  15.708      13.774      12.544      11.970      11.927      12.291      12.939      13.726      14.480      15.023    
  15.220      15.023      14.480      13.726      12.939      12.291      11.927      11.970      12.544      13.774    
  15.708      18.217      21.021      24.786      29.800      34.347      20.754      20.361      19.344      17.908    
  16.249      14.651      13.363      12.544      12.266      12.544      13.363      14.651      16.249      17.908    
  19.344      20.361      20.754      20.361      19.344      17.908      16.249      14.651      13.363      12.544    
  12.266      12.544      13.363      14.651      16.249      17.908      19.344      20.361      15.220      15.023    
  14.480      13.726      12.939      12.291      11.927      11.970      12.544      13.774      15.708      18.217    
  21.021      24.786      29.800      34.347      36.194      34.347      29.800      24.786      21.021      18.217    
  15.708      13.774      12.544      11.970      11.927      12.291      12.939      13.726      14.480      15.023    
  11.614      11.540      11.343      11.096      10.909      10.899      11.184      11.927      13.363      15.708    
  18.951      23.149      31.442      45.618      62.828      77.114      82.672      77.114      62.828      45.618    
  31.442      23.149      18.951      15.708      13.363      11.927      11.184      10.899      10.909      11.096    
  11.343      11.540      9.3732      9.3900      9.4313      9.5086      9.6975      10.114      10.899      12.291    
  14.651      18.217      23.149      34.620      58.531      94.067      133.29      164.17      175.90      164.17    
  133.29      94.067      58.531      34.620      23.149      18.217      14.651      12.291      10.899      10.114    
  9.6975      9.5086      9.4313      9.3900      8.0765      8.1534      8.3374      8.5865      8.9853      9.6975    
  10.909      12.939      16.249      21.021      31.442      58.531      107.70      174.32      244.10      297.53    
  317.59      297.53      244.10      174.32      107.70      58.531      31.442      21.021      16.249      12.939    
  10.909      9.6975      8.9853      8.5865      8.3374      8.1534      7.4290      7.5408      7.7905      8.0957    
  8.5865      9.5086      11.096      13.726      17.908      24.786      45.618      94.067      174.32      277.59    
  382.81      462.28      491.96      462.28      382.81      277.59      174.32      94.067      45.618      24.786    
  17.908      13.726      11.096      9.5086      8.5865      8.0957      7.7905      7.5408      7.0282      7.1675    
  7.4616      7.7905      8.3374      9.4313      11.343      14.480      19.344      29.800      62.828      133.29    
  244.10      382.81      522.26      626.99      666.03      626.99      522.26      382.81      244.10      133.29    
  62.828      29.800      19.344      14.480      11.343      9.4313      8.3374      7.7905      7.4616      7.1675    
  6.6505      6.8189      7.1675      7.5408      8.1534      9.3900      11.540      15.023      20.361      34.347    
  77.114      164.17      297.53      462.28      626.99      750.47      796.49      750.47      626.99      462.28    
  297.53      164.17      77.114      34.347      20.361      15.023      11.540      9.3900      8.1534      7.5408    
  7.1675      6.8189      6.4680      6.6505      7.0282      7.4290      8.0765      9.3732      11.614      15.220    
  20.754      36.194      82.672      175.90      317.59      491.96      666.03      796.49      845.12      796.49    
  666.03      491.96      317.59      175.90      82.672      36.194      20.754      15.220      11.614      9.3732    
  8.0765      7.4290      7.0282      6.6505      6.6505      6.8189      7.1675      7.5408      8.1534      9.3900    
  11.540      15.023      20.361      34.347      77.114      164.17      297.53      462.28      626.99      750.47    
  796.49      750.47      626.99      462.28      297.53      164.17      77.114      34.347      20.361      15.023    
  11.540      9.3900      8.1534      7.5408      7.1675      6.8189      7.0282      7.1675      7.4616      7.7905    
  8.3374      9.4313      11.343      14.480      19.344      29.800      62.828      133.29      244.10      382.81    
  522.26      626.99      666.03      626.99      522.26      382.81      244.10      133.29      62.828      29.800    
  19.344      14.480      11.343      9.4313      8.3374      7.7905      7.4616      7.1675      7.4290      7.5408    
  7.7905      8.0957      8.5865      9.5086      11.096      13.726      17.908      24.786      45.618      94.067    
  174.32      277.59      382.81      462.28      491.96      462.28      382.81      277.59      174.32      94.067    
  45.618      24.786      17.908      13.726      11.096      9.5086      8.5865      8.0957      7.7905      7.5408    
  8.0765      8.1534      8.3374      8.5865      8.9853      9.6975      10.909      12.939      16.249      21.021    
  31.442      58.531      107.70      174.32      244.10      297.53      317.59      297.53      244.10      174.32    
  107.70      58.531      31.442      21.021      16.249      12.939      10.909      9.6975      8.9853      8.5865    
  8.3374      8.1534      9.3732      9.3900      9.4313      9.5086      9.6975      10.114      10.899      12.291    
  14.651      18.217      23.149      34.620      58.531      94.067      133.29      164.17      175.90      164.17    
  133.29      94.067      58.531      34.620      23.149      18.217      14.651      12.291      10.899      10.114    
  9.6975      9.5086      9.4313      9.3900      11.614      11.540      11.343      11.096      10.909      10.899    
  11.184      11.927      13.363      15.708      18.951      23.149      31.442      45.618      62.828      77.114    
  82.672      77.114      62.828      45.618      31.442      23.149      18.951      15.708      13.363      11.927    
  11.184      10.899      10.909      11.096      11.343      11.540      15.220      15.023      14.480      13.726    
  12.939      12.291      11.927      11.970      12.544      13.774      15.708      18.217      21.021      24.786    
  29.800      34.347      36.194      34.347      29.800      24.786      21.021      18.217      15.708      13.774    
  12.544      11.970      11.927      12.291      12.939      13.726      14.480      15.023      20.754      20.361    
  19.344      17.908      16.249      14.651      13.363      12.544      12.266      12.544      13.363      14.651    
  16.249      17.908      19.344      20.361      20.754      20.361      19.344      17.908      16.249      14.651    
  13.363      12.544      12.266      12.544      13.363      14.651      16.249      17.908      19.344      20.361    
  36.194      34.347      29.800      24.786      21.021      18.217      15.708      13.774      12.544      11.970    
  11.927      12.291      12.939      13.726      14.480      15.023      15.220      15.023      14.480      13.726    
  12.939      12.291      11.927      11.970      12.544      13.774      15.708      18.217      21.021      24.786    
  29.800      34.347      82.672      77.114      62.828      45.618      31.442      23.149      18.951      15.708    
  13.363      11.927      11.184      10.899      10.909      11.096      11.343      11.540      11.614      11.540    
  11.343      11.096      10.909      10.899      11.184      11.927      13.363      15.708      18.951      23.149    
  31.442      45.618      62.828      77.114      175.90      164.17      133.29      94.067      58.531      34.620    
  23.149      18.217      14.651      12.291      10.899      10.114      9.6975      9.5086      9.4313      9.3900    
  9.3732      9.3900      9.4313      9.5086      9.6975      10.114      10.899      12.291      14.651      18.217    
  23.149      34.620      58.531      94.067      133.29      164.17      317.59      297.53      244.10      174.32    
  107.70      58.531      31.442      21.021      16.249      12.939      10.909      9.6975      8.9853      8.5865    
  8.3374      8.1534      8.0765      8.1534      8.3374      8.5865      8.9853      9.6975      10.909      12.939    
  16.249      21.021      31.442      58.531      107.70      174.32      244.10      297.53      491.96      462.28    
  382.81      277.59      174.32      94.067      45.618      24.786      17.908      13.726      11.096      9.5086    
  8.5865      8.0957      7.7905      7.5408      7.4290      7.5408      7.7905      8.0957      8.5865      9.5086    
  11.096      13.726      17.908      24.786      45.618      94.067      174.32      277.59      382.81      462.28    
  666.03      626.99      522.26      382.81      244.10      133.29      62.828      29.800      19.344      14.480    
  11.343      9.4313      8.3374      7.7905      7.4616      7.1675      7.0282      7.1675      7.4616      7.7905    
  8.3374      9.4313      11.343      14.480      19.344      29.800      62.828      133.29      244.10      382.81    
  522.26      626.99      796.49      750.47      626.99      462.28      297.53      164.17      77.114      34.347    
  20.361      15.023      11.540      9.3900      8.1534      7.5408      7.1675      6.8189      6.6505      6.8189    
  7.1675      7.5408      8.1534      9.3900      11.540      15.023      20.361      34.347      77.114      164.17    
  297.53      462.28      626.99      750.47      796.49      750.47      626.99      462.28      297.53      164.17    
  77.114      34.347      20.361      15.023      11.540      9.3900      8.1534      7.5408      7.1675      6.8189    
  6.6505      6.8189      7.1675      7.5408      8.1534      9.3900      11.540      15.023      20.361      34.347    
  77.114      164.17      297.53      462.28      626.99      750.47      750.47      706.91      590.04      434.22    
  278.61      153.17      71.966      32.671      19.996      14.830      11.467      9.4038      8.2239      7.6436    
  7.2959      6.9741      6.8189      6.9741      7.2959      7.6436      8.2239      9.4038      11.467      14.830    
  19.996      32.671      71.966      153.17      278.61      434.22      590.04      706.91      626.99      590.04    
  490.96      359.14      228.31      124.29      58.771      28.560      19.026      14.301      11.273      9.4385    
  8.3936      7.8745      7.5673      7.2959      7.1675      7.2959      7.5673      7.8745      8.3936      9.4385    
  11.273      14.301      19.026      28.560      58.771      124.29      228.31      359.14      490.96      590.04    
  462.28      434.22      359.14      259.87      162.74      87.732      42.963      24.046      17.620      13.569    
  11.032      9.5087      8.6272      8.1605      7.8745      7.6436      7.5408      7.6436      7.8745      8.1605    
  8.6272      9.5087      11.032      13.569      17.620      24.046      42.963      87.732      162.74      259.87    
  359.14      434.22      297.53      278.61      228.31      162.74      100.43      54.833      30.066      20.620    
  16.005      12.806      10.851      9.6881      9.0066      8.6272      8.3936      8.2239      8.1534      8.2239    
  8.3936      8.6272      9.0066      9.6881      10.851      12.806      16.005      20.620      30.066      54.833    
  100.43      162.74      228.31      278.61      164.17      153.17      124.29      87.732      54.833      32.951    
  22.585      17.909      14.456      12.181      10.841      10.087      9.6881      9.5087      9.4385      9.4038    
  9.3900      9.4038      9.4385      9.5087      9.6881      10.087      10.841      12.181      14.456      17.909    
  22.585      32.951      54.833      87.732      124.29      153.17      77.114      71.966      58.771      42.963    
  30.066      22.585      18.621      15.474      13.212      11.831      11.116      10.841      10.851      11.032    
  11.273      11.467      11.540      11.467      11.273      11.032      10.851      10.841      11.116      11.831    
  13.212      15.474      18.621      22.585      30.066      42.963      58.771      71.966      34.347      32.671    
  28.560      24.046      20.620      17.909      15.474      13.608      12.425      11.872      11.831      12.181    
  12.806      13.569      14.301      14.830      15.023      14.830      14.301      13.569      12.806      12.181    
  11.831      11.872      12.425      13.608      15.474      17.909      20.620      24.046      28.560      32.671    
  20.361      19.996      19.026      17.620      16.005      14.456      13.212      12.425      12.157      12.425    
  13.212      14.456      16.005      17.620      19.026      19.996      20.361      19.996      19.026      17.620    
  16.005      14.456      13.212      12.425      12.157      12.425      13.212      14.456      16.005      17.620    
  19.026      19.996      15.023      14.830      14.301      13.569      12.806      12.181      11.831      11.872    
  12.425      13.608      15.474      17.909      20.620      24.046      28.560      32.671      34.347      32.671    
  28.560      24.046      20.620      17.909      15.474      13.608      12.425      11.872      11.831      12.181    
  12.806      13.569      14.301      14.830      11.540      11.467      11.273      11.032      10.851      10.841    
  11.116      11.831      13.212      15.474      18.621      22.585      30.066      42.963      58.771      71.966    
  77.114      71.966      58.771      42.963      30.066      22.585      18.621      15.474      13.212      11.831    
  11.116      10.841      10.851      11.032      11.273      11.467      9.3900      9.4038      9.4385      9.5087    
  9.6881      10.087      10.841      12.181      14.456      17.909      22.585      32.951      54.833      87.732    
  124.29      153.17      164.17      153.17      124.29      87.732      54.833      32.951      22.585      17.909    
  14.456      12.181      10.841      10.087      9.6881      9.5087      9.4385      9.4038      8.1534      8.2239    
  8.3936      8.6272      9.0066      9.6881      10.851      12.806      16.005      20.620      30.066      54.833    
  100.43      162.74      228.31      278.61      297.53      278.61      228.31      162.74      100.43      54.833    
  30.066      20.620      16.005      12.806      10.851      9.6881      9.0066      8.6272      8.3936      8.2239    
  7.5408      7.6436      7.8745      8.1605      8.6272      9.5087      11.032      13.569      17.620      24.046    
  42.963      87.732      162.74      259.87      359.14      434.22      462.28      434.22      359.14      259.87    
  162.74      87.732      42.963      24.046      17.620      13.569      11.032      9.5087      8.6272      8.1605    
  7.8745      7.6436      7.1675      7.2959      7.5673      7.8745      8.3936      9.4385      11.273      14.301    
  19.026      28.560      58.771      124.29      228.31      359.14      490.96      590.04      626.99      590.04    
  490.96      359.14      228.31      124.29      58.771      28.560      19.026      14.301      11.273      9.4385    
  8.3936      7.8745      7.5673      7.2959      6.8189      6.9741      7.2959      7.6436      8.2239      9.4038    
  11.467      14.830      19.996      32.671      71.966      153.17      278.61      434.22      590.04      706.91    
  750.47      706.91      590.04      434.22      278.61      153.17      71.966      32.671      19.996      14.830    
  11.467      9.4038      8.2239      7.6436      7.2959      6.9741      6.6505      6.8189      7.1675      7.5408    
  8.1534      9.3900      11.540      15.023      20.361      34.347      77.114      164.17      297.53      462.28    
  626.99      750.47      796.49      750.47      626.99      462.28      297.53      164.17      77.114      34.347    
  20.361      15.023      11.540      9.3900      8.1534      7.5408      7.1675      6.8189      6.8189      6.9741    
  7.2959      7.6436      8.2239      9.4038      11.467      14.830      19.996      32.671      71.966      153.17    
  278.61      434.22      590.04      706.91      750.47      706.91      590.04      434.22      278.61      153.17    
  71.966      32.671      19.996      14.830      11.467      9.4038      8.2239      7.6436      7.2959      6.9741    
  7.1675      7.2959      7.5673      7.8745      8.3936      9.4385      11.273      14.301      19.026      28.560    
  58.771      124.29      228.31      359.14      490.96      590.04      626.99      590.04      490.96      359.14    
  228.31      124.29      58.771      28.560      19.026      14.301      11.273      9.4385      8.3936      7.8745    
  7.5673      7.2959      7.5408      7.6436      7.8745      8.1605      8.6272      9.5087      11.032      13.569    
  17.620      24.046      42.963      87.732      162.74      259.87      359.14      434.22      462.28      434.22    
  359.14      259.87      162.74      87.732      42.963      24.046      17.620      13.569      11.032      9.5087    
  8.6272      8.1605      7.8745      7.6436      8.1534      8.2239      8.3936      8.6272      9.0066      9.6881    
  10.851      12.806      16.005      20.620      30.066      54.833      100.43      162.74      228.31      278.61    
  297.53      278.61      228.31      162.74      100.43      54.833      30.066      20.620      16.005      12.806    
  10.851      9.6881      9.0066      8.6272      8.3936      8.2239      9.3900      9.4038      9.4385      9.5087    
  9.6881      10.087      10.841      12.181      14.456      17.909      22.585      32.951      54.833      87.732    
  124.29      153.17      164.17      153.17      124.29      87.732      54.833      32.951      22.585      17.909    
  14.456      12.181      10.841      10.087      9.6881      9.5087      9.4385      9.4038      11.540      11.467    
  11.273      11.032      10.851      10.841      11.116      11.831      13.212      15.474      18.621      22.585    
  30.066      42.963      58.771      71.966      77.114      71.966      58.771      42.963      30.066      22.585    
  18.621      15.474      13.212      11.831      11.116      10.841      10.851      11.032      11.273      11.467    
  15.023      14.830      14.301      13.569      12.806      12.181      11.831      11.872      12.425      13.608    
  15.474      17.909      20.620      24.046      28.560      32.671      34.347      32.671      28.560      24.046    
  20.620      17.909      15.474      13.608      12.425      11.872      11.831      12.181      12.806      13.569    
  14.301      14.830      20.361      19.996      19.026      17.620      16.005      14.456      13.212      12.425    
  12.157      12.425      13.212      14.456      16.005      17.620      19.026      19.996      20.361      19.996    
  19.026      17.620      16.005      14.456      13.212      12.425      12.157      12.425      13.212      14.456    
  16.005      17.620      19.026      19.996      34.347      32.671      28.560      24.046      20.620      17.909    
  15.474      13.608      12.425      11.872      11.831      12.181      12.806      13.569      14.301      14.830    
  15.023      14.830      14.301      13.569      12.806      12.181      11.831      11.872      12.425      13.608    
  15.474      17.909      20.620      24.046      28.560      32.671      77.114      71.966      58.771      42.963    
  30.066      22.585      18.621      15.474      13.212      11.831      11.116      10.841      10.851      11.032    
  11.273      11.467      11.540      11.467      11.273      11.032      10.851      10.841      11.116      11.831    
  13.212      15.474      18.621      22.585      30.066      42.963      58.771      71.966      164.17      153.17    
  124.29      87.732      54.833      32.951      22.585      17.909      14.456      12.181      10.841      10.087    
  9.6881      9.5087      9.4385      9.4038      9.3900      9.4038      9.4385      9.5087      9.6881      10.087    
  10.841      12.181      14.456      17.909      22.585      32.951      54.833      87.732      124.29      153.17    
  297.53      278.61      228.31      162.74      100.43      54.833      30.066      20.620      16.005      12.806    
  10.851      9.6881      9.0066      8.6272      8.3936      8.2239      8.1534      8.2239      8.3936      8.6272    
  9.0066      9.6881      10.851      12.806      16.005      20.620      30.066      54.833      100.43      162.74    
  228.31      278.61      462.28      434.22      359.14      259.87      162.74      87.732      42.963      24.046    
  17.620      13.569      11.032      9.5087      8.6272      8.1605      7.8745      7.6436      7.5408      7.6436    
  7.8745      8.1605      8.6272      9.5087      11.032      13.569      17.620      24.046      42.963      87.732    
  162.74      259.87      359.14      434.22      626.99      590.04      490.96      359.14      228.31      124.29    
  58.771      28.560      19.026      14.301      11.273      9.4385      8.3936      7.8745      7.5673      7.2959    
  7.1675      7.2959      7.5673      7.8745      8.3936      9.4385      11.273      14.301      19.026      28.560    
  58.771      124.29      228.31      359.14      490.96      590.04      750.47      706.91      590.04      434.22    
  278.61      153.17      71.966      32.671      19.996      14.830      11.467      9.4038      8.2239      7.6436    
  7.2959      6.9741      6.8189      6.9741      7.2959      7.6436      8.2239      9.4038      11.467      14.830    
  19.996      32.671      71.966      153.17      278.61      434.22      590.04      706.91      666.03      626.99    
  522.26      382.81      244.10      133.29      62.828      29.800      19.344      14.480      11.343      9.4313    
  8.3374      7.7905      7.4616      7.1675      7.0282      7.1675      7.4616      7.7905      8.3374      9.4313    
  11.343      14.480      19.344      29.800      62.828      133.29      244.10      382.81      522.26      626.99    
  626.99      590.04      490.96      359.14      228.31      124.29      58.771      28.560      19.026      14.301    
  11.273      9.4385      8.3936      7.8745      7.5673      7.2959      7.1675      7.2959      7.5673      7.8745    
  8.3936      9.4385      11.273      14.301      19.026      28.560      58.771      124.29      228.31      359.14    
  490.96      590.04      522.26      490.96      407.11      295.92      186.42      100.77      48.454      25.542    
  18.129      13.812      11.091      9.4594      8.5325      8.0674      7.7957      7.5673      7.4616      7.5673    
  7.7957      8.0674      8.5325      9.4594      11.091      13.812      18.129      25.542      48.454      100.77    
  186.42      295.92      407.11      490.96      382.81      359.14      295.92      212.76      132.26      71.347    
  36.315      22.240      16.816      13.140      10.868      9.5145      8.7334      8.3177      8.0674      7.8745    
  7.7905      7.8745      8.0674      8.3177      8.7334      9.5145      10.868      13.140      16.816      22.240    
  36.315      71.347      132.26      212.76      295.92      359.14      244.10      228.31      186.42      132.26    
  81.549      45.445      26.691      19.544      15.326      12.446      10.702      9.6704      9.0683      8.7334    
  8.5325      8.3936      8.3374      8.3936      8.5325      8.7334      9.0683      9.6704      10.702      12.446    
  15.326      19.544      26.691      45.445      81.549      132.26      186.42      228.31      133.29      124.29    
  100.77      71.347      45.445      28.831      21.165      17.043      13.916      11.882      10.691      10.022    
  9.6704      9.5145      9.4594      9.4385      9.4313      9.4385      9.4594      9.5145      9.6704      10.022    
  10.691      11.882      13.916      17.043      21.165      28.831      45.445      71.347      100.77      124.29    
  62.828      58.771      48.454      36.315      26.691      21.165      17.688      14.824      12.797      11.569    
  10.934      10.691      10.702      10.868      11.091      11.273      11.343      11.273      11.091      10.868    
  10.702      10.691      10.934      11.569      12.797      14.824      17.688      21.165      26.691      36.315    
  48.454      58.771      29.800      28.560      25.542      22.240      19.544      17.043      14.824      13.148    
  12.094      11.605      11.569      11.882      12.446      13.140      13.812      14.301      14.480      14.301    
  13.812      13.140      12.446      11.882      11.569      11.605      12.094      13.148      14.824      17.043    
  19.544      22.240      25.542      28.560      19.344      19.026      18.129      16.816      15.326      13.916    
  12.797      12.094      11.857      12.094      12.797      13.916      15.326      16.816      18.129      19.026    
  19.344      19.026      18.129      16.816      15.326      13.916      12.797      12.094      11.857      12.094    
  12.797      13.916      15.326      16.816      18.129      19.026      14.480      14.301      13.812      13.140    
  12.446      11.882      11.569      11.605      12.094      13.148      14.824      17.043      19.544      22.240    
  25.542      28.560      29.800      28.560      25.542      22.240      19.544      17.043      14.824      13.148    
  12.094      11.605      11.569      11.882      12.446      13.140      13.812      14.301      11.343      11.273    
  11.091      10.868      10.702      10.691      10.934      11.569      12.797      14.824      17.688      21.165    
  26.691      36.315      48.454      58.771      62.828      58.771      48.454      36.315      26.691      21.165    
  17.688      14.824      12.797      11.569      10.934      10.691      10.702      10.868      11.091      11.273    
  9.4313      9.4385      9.4594      9.5145      9.6704      10.022      10.691      11.882      13.916      17.043    
  21.165      28.831      45.445      71.347      100.77      124.29      133.29      124.29      100.77      71.347    
  45.445      28.831      21.165      17.043      13.916      11.882      10.691      10.022      9.6704      9.5145    
  9.4594      9.4385      8.3374      8.3936      8.5325      8.7334      9.0683      9.6704      10.702      12.446    
  15.326      19.544      26.691      45.445      81.549      132.26      186.42      228.31      244.10      228.31    