unknown system                          
   1.00000000000000     
     3.635000    0.000000    0.000000
     0.000000    3.635000    0.000000
     0.000000    0.000000    3.635000
   Cu
     4
Direct
  0.000000  0.000000  0.000000
  0.500000  0.500000  0.000000
  0.500000  0.000000  0.500000
  0.000000  0.500000  0.500000
 
   32   32   32
 0.84511769086E+03 0.79649388775E+03 0.66603388045E+03 0.49196204967E+03 0.31758769747E+03
 0.17590024548E+03 0.82672105272E+02 0.36194243298E+02 0.20753757214E+02 0.15220472025E+02
 0.11613984358E+02 0.93732268571E+01 0.80764664768E+01 0.74290064447E+01 0.70281872757E+01
 0.66505180732E+01 0.64680090029E+01 0.66505180732E+01 0.70281872757E+01 0.74290064447E+01
 0.80764664768E+01 0.93732268571E+01 0.11613984358E+02 0.15220472025E+02 0.20753757214E+02
 0.36194243298E+02 0.82672105272E+02 0.17590024548E+03 0.31758769747E+03 0.49196204967E+03
 0.66603388045E+03 0.79649388775E+03 0.79649388775E+03 0.75047102892E+03 0.62698717254E+03
 0.46227853616E+03 0.29752542297E+03 0.16416652869E+03 0.77113637855E+02 0.34346837741E+02
 0.20361350243E+02 0.15023019403E+02 0.11539980211E+02 0.93900088765E+01 0.81533835609E+01
 0.75407504966E+01 0.71675409402E+01 0.68188975877E+01 0.66505180732E+01 0.68188975877E+01
 0.71675409402E+01 0.75407504966E+01 0.81533835609E+01 0.93900088765E+01 0.11539980211E+02
 0.15023019403E+02 0.20361350243E+02 0.34346837741E+02 0.77113637855E+02 0.16416652869E+03
 0.29752542297E+03 0.46227853616E+03 0.62698717254E+03 0.75047102892E+03 0.66603388045E+03
 0.62698717254E+03 0.52225560876E+03 0.38280891486E+03 0.24410281995E+03 0.13329162192E+03
 0.62827758637E+02 0.29800051235E+02 0.19344008692E+02 0.14480374790E+02 0.11342599386E+02
 0.94313376227E+01 0.83373677356E+01 0.77905149563E+01 0.74616068166E+01 0.71675409402E+01
 0.70281872757E+01 0.71675409402E+01 0.74616068166E+01 0.77905149563E+01 0.83373677356E+01
 0.94313376227E+01 0.11342599386E+02 0.14480374790E+02 0.19344008692E+02 0.29800051235E+02
 0.62827758637E+02 0.13329162192E+03 0.24410281995E+03 0.38280891486E+03 0.52225560876E+03
 0.62698717254E+03 0.49196204967E+03 0.46227853616E+03 0.38280891486E+03 0.27759086670E+03
 0.17432174172E+03 0.94067261027E+02 0.45617715234E+02 0.24785877911E+02 0.17907898009E+02
 0.13726360039E+02 0.11095559727E+02 0.95085507023E+01 0.85864944521E+01 0.80956790192E+01
 0.77905149563E+01 0.75407504966E+01 0.74290064447E+01 0.75407504966E+01 0.77905149563E+01
 0.80956790192E+01 0.85864944521E+01 0.95085507023E+01 0.11095559727E+02 0.13726360039E+02
 0.17907898009E+02 0.24785877911E+02 0.45617715234E+02 0.94067261027E+02 0.17432174172E+03
 0.27759086670E+03 0.38280891486E+03 0.46227853616E+03 0.31758769747E+03 0.29752542297E+03
 0.24410281995E+03 0.17432174172E+03 0.10769598198E+03 0.58530550133E+02 0.31441874860E+02
 0.21020804536E+02 0.16248828822E+02 0.12938535773E+02 0.10908675746E+02 0.96974725519E+01
 0.89852580475E+01 0.85864944521E+01 0.83373677356E+01 0.81533835609E+01 0.80764664768E+01
 0.81533835609E+01 0.83373677356E+01 0.85864944521E+01 0.89852580475E+01 0.96974725519E+01
 0.10908675746E+02 0.12938535773E+02 0.16248828822E+02 0.21020804536E+02 0.31441874860E+02
 0.58530550133E+02 0.10769598198E+03 0.17432174172E+03 0.24410281995E+03 0.29752542297E+03
 0.17590024548E+03 0.16416652869E+03 0.13329162192E+03 0.94067261027E+02 0.58530550133E+02
 0.34620182659E+02 0.23149215916E+02 0.18217181979E+02 0.14650821273E+02 0.12290999392E+02
 0.10898930776E+02 0.10114075471E+02 0.96974725519E+01 0.95085507023E+01 0.94313376227E+01
 0.93900088765E+01 0.93732268571E+01 0.93900088765E+01 0.94313376227E+01 0.95085507023E+01
 0.96974725519E+01 0.10114075471E+02 0.10898930776E+02 0.12290999392E+02 0.14650821273E+02
 0.18217181979E+02 0.23149215916E+02 0.34620182659E+02 0.58530550133E+02 0.94067261027E+02
 0.13329162192E+03 0.16416652869E+03 0.82672105272E+02 0.77113637855E+02 0.62827758637E+02
 0.45617715234E+02 0.31441874860E+02 0.23149215916E+02 0.18951206597E+02 0.15707727186E+02
 0.13362756400E+02 0.11927346845E+02 0.11184452717E+02 0.10898930776E+02 0.10908675746E+02
 0.11095559727E+02 0.11342599386E+02 0.11539980211E+02 0.11613984358E+02 0.11539980211E+02
 0.11342599386E+02 0.11095559727E+02 0.10908675746E+02 0.10898930776E+02 0.11184452717E+02
 0.11927346845E+02 0.13362756400E+02 0.15707727186E+02 0.18951206597E+02 0.23149215916E+02
 0.31441874860E+02 0.45617715234E+02 0.62827758637E+02 0.77113637855E+02 0.36194243298E+02
 0.34346837741E+02 0.29800051235E+02 0.24785877911E+02 0.21020804536E+02 0.18217181979E+02
 0.15707727186E+02 0.13774475545E+02 0.12544355263E+02 0.11969689226E+02 0.11927346845E+02
 0.12290999392E+02 0.12938535773E+02 0.13726360039E+02 0.14480374790E+02 0.15023019403E+02
 0.15220472025E+02 0.15023019403E+02 0.14480374790E+02 0.13726360039E+02 0.12938535773E+02
 0.12290999392E+02 0.11927346845E+02 0.11969689226E+02 0.12544355263E+02 0.13774475545E+02
 0.15707727186E+02 0.18217181979E+02 0.21020804536E+02 0.24785877911E+02 0.29800051235E+02
 0.34346837741E+02 0.20753757214E+02 0.20361350243E+02 0.19344008692E+02 0.17907898009E+02
 0.16248828822E+02 0.14650821273E+02 0.13362756400E+02 0.12544355263E+02 0.12266038444E+02
 0.12544355263E+02 0.13362756400E+02 0.14650821273E+02 0.16248828822E+02 0.17907898009E+02
 0.19344008692E+02 0.20361350243E+02 0.20753757214E+02 0.20361350243E+02 0.19344008692E+02
 0.17907898009E+02 0.16248828822E+02 0.14650821273E+02 0.13362756400E+02 0.12544355263E+02
 0.12266038444E+02 0.12544355263E+02 0.13362756400E+02 0.14650821273E+02 0.16248828822E+02
 0.17907898009E+02 0.19344008692E+02 0.20361350243E+02 0.15220472025E+02 0.15023019403E+02
 0.14480374790E+02 0.13726360039E+02 0.12938535773E+02 0.12290999392E+02 0.11927346845E+02
 0.11969689226E+02 0.12544355263E+02 0.13774475545E+02 0.15707727186E+02 0.18217181979E+02
 0.21020804536E+02 0.24785877911E+02 0.29800051235E+02 0.34346837741E+02 0.36194243298E+02
 0.34346837741E+02 0.29800051235E+02 0.24785877911E+02 0.21020804536E+02 0.18217181979E+02
 0.15707727186E+02 0.13774475545E+02 0.12544355263E+02 0.11969689226E+02 0.11927346845E+02
 0.12290999392E+02 0.12938535773E+02 0.13726360039E+02 0.14480374790E+02 0.15023019403E+02
 0.11613984358E+02 0.11539980211E+02 0.11342599386E+02 0.11095559727E+02 0.10908675746E+02
 0.10898930776E+02 0.11184452717E+02 0.11927346845E+02 0.13362756400E+02 0.15707727186E+02
 0.18951206597E+02 0.23149215916E+02 0.31441874860E+02 0.45617715234E+02 0.62827758637E+02
 0.77113637855E+02 0.82672105272E+02 0.77113637855E+02 0.62827758637E+02 0.45617715234E+02
 0.31441874860E+02 0.23149215916E+02 0.18951206597E+02 0.15707727186E+02 0.13362756400E+02
 0.11927346845E+02 0.11184452717E+02 0.10898930776E+02 0.10908675746E+02 0.11095559727E+02
 0.11342599386E+02 0.11539980211E+02 0.93732268571E+01 0.93900088765E+01 0.94313376227E+01
 0.95085507023E+01 0.96974725519E+01 0.10114075471E+02 0.10898930776E+02 0.12290999392E+02
 0.14650821273E+02 0.18217181979E+02 0.23149215916E+02 0.34620182659E+02 0.58530550133E+02
 0.94067261027E+02 0.13329162192E+03 0.16416652869E+03 0.17590024548E+03 0.16416652869E+03
 0.13329162192E+03 0.94067261027E+02 0.58530550133E+02 0.34620182659E+02 0.23149215916E+02
 0.18217181979E+02 0.14650821273E+02 0.12290999392E+02 0.10898930776E+02 0.10114075471E+02
 0.96974725519E+01 0.95085507023E+01 0.94313376227E+01 0.93900088765E+01 0.80764664768E+01
 0.81533835609E+01 0.83373677356E+01 0.85864944521E+01 0.89852580475E+01 0.96974725519E+01
 0.10908675746E+02 0.12938535773E+02 0.16248828822E+02 0.21020804536E+02 0.31441874860E+02
 0.58530550133E+02 0.10769598198E+03 0.17432174172E+03 0.24410281995E+03 0.29752542297E+03
 0.31758769747E+03 0.29752542297E+03 0.24410281995E+03 0.17432174172E+03 0.10769598198E+03
 0.58530550133E+02 0.31441874860E+02 0.21020804536E+02 0.16248828822E+02 0.12938535773E+02
 0.10908675746E+02 0.96974725519E+01 0.89852580475E+01 0.85864944521E+01 0.83373677356E+01
 0.81533835609E+01 0.74290064447E+01 0.75407504966E+01 0.77905149563E+01 0.80956790192E+01
 0.85864944521E+01 0.95085507023E+01 0.11095559727E+02 0.13726360039E+02 0.17907898009E+02
 0.24785877911E+02 0.45617715234E+02 0.94067261027E+02 0.17432174172E+03 0.27759086670E+03
 0.38280891486E+03 0.46227853616E+03 0.49196204967E+03 0.46227853616E+03 0.38280891486E+03
 0.27759086670E+03 0.17432174172E+03 0.94067261027E+02 0.45617715234E+02 0.24785877911E+02
 0.17907898009E+02 0.13726360039E+02 0.11095559727E+02 0.95085507023E+01 0.85864944521E+01
 0.80956790192E+01 0.77905149563E+01 0.75407504966E+01 0.70281872757E+01 0.71675409402E+01
 0.74616068166E+01 0.77905149563E+01 0.83373677356E+01 0.94313376227E+01 0.11342599386E+02
 0.14480374790E+02 0.19344008692E+02 0.29800051235E+02 0.62827758637E+02 0.13329162192E+03
 0.24410281995E+03 0.38280891486E+03 0.52225560876E+03 0.62698717254E+03 0.66603388045E+03
 0.62698717254E+03 0.52225560876E+03 0.38280891486E+03 0.24410281995E+03 0.13329162192E+03
 0.62827758637E+02 0.29800051235E+02 0.19344008692E+02 0.14480374790E+02 0.11342599386E+02
 0.94313376227E+01 0.83373677356E+01 0.77905149563E+01 0.74616068166E+01 0.71675409402E+01
 0.66505180732E+01 0.68188975877E+01 0.71675409402E+01 0.75407504966E+01 0.81533835609E+01
 0.93900088765E+01 0.11539980211E+02 0.15023019403E+02 0.20361350243E+02 0.34346837741E+02
 0.77113637855E+02 0.16416652869E+03 0.29752542297E+03 0.46227853616E+03 0.62698717254E+03
 0.75047102892E+03 0.79649388775E+03 0.75047102892E+03 0.62698717254E+03 0.46227853616E+03
 0.29752542297E+03 0.16416652869E+03 0.77113637855E+02 0.34346837741E+02 0.20361350243E+02
 0.15023019403E+02 0.11539980211E+02 0.93900088765E+01 0.81533835609E+01 0.75407504966E+01
 0.71675409402E+01 0.68188975877E+01 0.64680090029E+01 0.66505180732E+01 0.70281872757E+01
 0.74290064447E+01 0.80764664768E+01 0.93732268571E+01 0.11613984358E+02 0.15220472025E+02
 0.20753757214E+02 0.36194243298E+02 0.82672105272E+02 0.17590024548E+03 0.31758769747E+03
 0.49196204967E+03 0.66603388045E+03 0.79649388775E+03 0.84511769086E+03 0.79649388775E+03
 0.66603388045E+03 0.49196204967E+03 0.31758769747E+03 0.17590024548E+03 0.82672105272E+02
 0.36194243298E+02 0.20753757214E+02 0.15220472025E+02 0.11613984358E+02 0.93732268571E+01
 0.80764664768E+01 0.74290064447E+01 0.70281872757E+01 0.66505180732E+01 0.66505180732E+01
 0.68188975877E+01 0.71675409402E+01 0.75407504966E+01 0.81533835609E+01 0.93900088765E+01
 0.11539980211E+02 0.15023019403E+02 0.20361350243E+02 0.34346837741E+02 0.77113637855E+02
 0.16416652869E+03 0.29752542297E+03 0.46227853616E+03 0.62698717254E+03 0.75047102892E+03
 0.79649388775E+03 0.75047102892E+03 0.62698717254E+03 0.46227853616E+03 0.29752542297E+03
 0.16416652869E+03 0.77113637855E+02 0.34346837741E+02 0.20361350243E+02 0.15023019403E+02
 0.11539980211E+02 0.93900088765E+01 0.81533835609E+01 0.75407504966E+01 0.71675409402E+01
 0.68188975877E+01 0.70281872757E+01 0.71675409402E+01 0.74616068166E+01 0.77905149563E+01
 0.83373677356E+01 0.94313376227E+01 0.11342599386E+02 0.14480374790E+02 0.19344008692E+02
 0.29800051235E+02 0.62827758637E+02 0.13329162192E+03 0.24410281995E+03 0.38280891486E+03
 0.52225560876E+03 0.62698717254E+03 0.66603388045E+03 0.62698717254E+03 0.52225560876E+03
 0.38280891486E+03 0.24410281995E+03 0.13329162192E+03 0.62827758637E+02 0.29800051235E+02
 0.19344008692E+02 0.14480374790E+02 0.11342599386E+02 0.94313376227E+01 0.83373677356E+01
 0.77905149563E+01 0.74616068166E+01 0.71675409402E+01 0.74290064447E+01 0.75407504966E+01
 0.77905149563E+01 0.80956790192E+01 0.85864944521E+01 0.95085507023E+01 0.11095559727E+02
 0.13726360039E+02 0.17907898009E+02 0.24785877911E+02 0.45617715234E+02 0.94067261027E+02
 0.17432174172E+03 0.27759086670E+03 0.38280891486E+03 0.46227853616E+03 0.49196204967E+03
 0.46227853616E+03 0.38280891486E+03 0.27759086670E+03 0.17432174172E+03 0.94067261027E+02
 0.45617715234E+02 0.24785877911E+02 0.17907898009E+02 0.13726360039E+02 0.11095559727E+02
 0.95085507023E+01 0.85864944521E+01 0.80956790192E+01 0.77905149563E+01 0.75407504966E+01
 0.80764664768E+01 0.81533835609E+01 0.83373677356E+01 0.85864944521E+01 0.89852580475E+01
 0.96974725519E+01 0.10908675746E+02 0.12938535773E+02 0.16248828822E+02 0.21020804536E+02
 0.31441874860E+02 0.58530550133E+02 0.10769598198E+03 0.17432174172E+03 0.24410281995E+03
 0.29752542297E+03 0.31758769747E+03 0.29752542297E+03 0.24410281995E+03 0.17432174172E+03
 0.10769598198E+03 0.58530550133E+02 0.31441874860E+02 0.21020804536E+02 0.16248828822E+02
 0.12938535773E+02 0.10908675746E+02 0.96974725519E+01 0.89852580475E+01 0.85864944521E+01
 0.83373677356E+01 0.81533835609E+01 0.93732268571E+01 0.93900088765E+01 0.94313376227E+01
 0.95085507023E+01 0.96974725519E+01 0.10114075471E+02 0.10898930776E+02 0.12290999392E+02
 0.14650821273E+02 0.18217181979E+02 0.23149215916E+02 0.34620182659E+02 0.58530550133E+02
 0.94067261027E+02 0.13329162192E+03 0.16416652869E+03 0.17590024548E+03 0.16416652869E+03
 0.13329162192E+03 0.94067261027E+02 0.58530550133E+02 0.34620182659E+02 0.23149215916E+02
 0.18217181979E+02 0.14650821273E+02 0.12290999392E+02 0.10898930776E+02 0.10114075471E+02
 0.96974725519E+01 0.95085507023E+01 0.94313376227E+01 0.93900088765E+01 0.11613984358E+02
 0.11539980211E+02 0.11342599386E+02 0.11095559727E+02 0.10908675746E+02 0.10898930776E+02
 0.11184452717E+02 0.11927346845E+02 0.13362756400E+02 0.15707727186E+02 0.18951206597E+02
 0.23149215916E+02 0.31441874860E+02 0.45617715234E+02 0.62827758637E+02 0.77113637855E+02
 0.82672105272E+02 0.77113637855E+02 0.62827758637E+02 0.45617715234E+02 0.31441874860E+02
 0.23149215916E+02 0.18951206597E+02 0.15707727186E+02 0.13362756400E+02 0.11927346845E+02
 0.11184452717E+02 0.10898930776E+02 0.10908675746E+02 0.11095559727E+02 0.11342599386E+02
 0.11539980211E+02 0.15220472025E+02 0.15023019403E+02 0.14480374790E+02 0.13726360039E+02
 0.12938535773E+02 0.12290999392E+02 0.11927346845E+02 0.11969689226E+02 0.12544355263E+02
 0.13774475545E+02 0.15707727186E+02 0.18217181979E+02 0.21020804536E+02 0.24785877911E+02
 0.29800051235E+02 0.34346837741E+02 0.36194243298E+02 0.34346837741E+02 0.29800051235E+02
 0.24785877911E+02 0.21020804536E+02 0.18217181979E+02 0.15707727186E+02 0.13774475545E+02
 0.12544355263E+02 0.11969689226E+02 0.11927346845E+02 0.12290999392E+02 0.12938535773E+02
 0.13726360039E+02 0.14480374790E+02 0.15023019403E+02 0.20753757214E+02 0.20361350243E+02
 0.19344008692E+02 0.17907898009E+02 0.16248828822E+02 0.14650821273E+02 0.13362756400E+02
 0.12544355263E+02 0.12266038444E+02 0.12544355263E+02 0.13362756400E+02 0.14650821273E+02
 0.16248828822E+02 0.17907898009E+02 0.19344008692E+02 0.20361350243E+02 0.20753757214E+02
 0.20361350243E+02 0.19344008692E+02 0.17907898009E+02 0.16248828822E+02 0.14650821273E+02
 0.13362756400E+02 0.12544355263E+02 0.12266038444E+02 0.12544355263E+02 0.13362756400E+02
 0.14650821273E+02 0.16248828822E+02 0.17907898009E+02 0.19344008692E+02 0.20361350243E+02
 0.36194243298E+02 0.34346837741E+02 0.29800051235E+02 0.24785877911E+02 0.21020804536E+02
 0.18217181979E+02 0.15707727186E+02 0.13774475545E+02 0.12544355263E+02 0.11969689226E+02
 0.11927346845E+02 0.12290999392E+02 0.12938535773E+02 0.13726360039E+02 0.14480374790E+02
 0.15023019403E+02 0.15220472025E+02 0.15023019403E+02 0.14480374790E+02 0.13726360039E+02
 0.12938535773E+02 0.12290999392E+02 0.11927346845E+02 0.11969689226E+02 0.12544355263E+02
 0.13774475545E+02 0.15707727186E+02 0.18217181979E+02 0.21020804536E+02 0.24785877911E+02
 0.29800051235E+02 0.34346837741E+02 0.82672105272E+02 0.77113637855E+02 0.62827758637E+02
 0.45617715234E+02 0.31441874860E+02 0.23149215916E+02 0.18951206597E+02 0.15707727186E+02
 0.13362756400E+02 0.11927346845E+02 0.11184452717E+02 0.10898930776E+02 0.10908675746E+02
 0.11095559727E+02 0.11342599386E+02 0.11539980211E+02 0.11613984358E+02 0.11539980211E+02
 0.11342599386E+02 0.11095559727E+02 0.10908675746E+02 0.10898930776E+02 0.11184452717E+02
 0.11927346845E+02 0.13362756400E+02 0.15707727186E+02 0.18951206597E+02 0.23149215916E+02
 0.31441874860E+02 0.45617715234E+02 0.62827758637E+02 0.77113637855E+02 0.17590024548E+03
 0.16416652869E+03 0.13329162192E+03 0.94067261027E+02 0.58530550133E+02 0.34620182659E+02
 0.23149215916E+02 0.18217181979E+02 0.14650821273E+02 0.12290999392E+02 0.10898930776E+02
 0.10114075471E+02 0.96974725519E+01 0.95085507023E+01 0.94313376227E+01 0.93900088765E+01
 0.93732268571E+01 0.93900088765E+01 0.94313376227E+01 0.95085507023E+01 0.96974725519E+01
 0.10114075471E+02 0.10898930776E+02 0.12290999392E+02 0.14650821273E+02 0.18217181979E+02
 0.23149215916E+02 0.34620182659E+02 0.58530550133E+02 0.94067261027E+02 0.13329162192E+03
 0.16416652869E+03 0.31758769747E+03 0.29752542297E+03 0.24410281995E+03 0.17432174172E+03
 0.10769598198E+03 0.58530550133E+02 0.31441874860E+02 0.21020804536E+02 0.16248828822E+02
 0.12938535773E+02 0.10908675746E+02 0.96974725519E+01 0.89852580475E+01 0.85864944521E+01
 0.83373677356E+01 0.81533835609E+01 0.80764664768E+01 0.81533835609E+01 0.83373677356E+01
 0.85864944521E+01 0.89852580475E+01 0.96974725519E+01 0.10908675746E+02 0.12938535773E+02
 0.16248828822E+02 0.21020804536E+02 0.31441874860E+02 0.58530550133E+02 0.10769598198E+03
 0.17432174172E+03 0.24410281995E+03 0.29752542297E+03 0.49196204967E+03 0.46227853616E+03
 0.38280891486E+03 0.27759086670E+03 0.17432174172E+03 0.94067261027E+02 0.45617715234E+02
 0.24785877911E+02 0.17907898009E+02 0.13726360039E+02 0.11095559727E+02 0.95085507023E+01
 0.85864944521E+01 0.80956790192E+01 0.77905149563E+01 0.75407504966E+01 0.74290064447E+01
 0.75407504966E+01 0.77905149563E+01 0.80956790192E+01 0.85864944521E+01 0.95085507023E+01
 0.11095559727E+02 0.13726360039E+02 0.17907898009E+02 0.24785877911E+02 0.45617715234E+02
 0.94067261027E+02 0.17432174172E+03 0.27759086670E+03 0.38280891486E+03 0.46227853616E+03
 0.66603388045E+03 0.62698717254E+03 0.52225560876E+03 0.38280891486E+03 0.24410281995E+03
 0.13329162192E+03 0.62827758637E+02 0.29800051235E+02 0.19344008692E+02 0.14480374790E+02
 0.11342599386E+02 0.94313376227E+01 0.83373677356E+01 0.77905149563E+01 0.74616068166E+01
 0.71675409402E+01 0.70281872757E+01 0.71675409402E+01 0.74616068166E+01 0.77905149563E+01
 0.83373677356E+01 0.94313376227E+01 0.11342599386E+02 0.14480374790E+02 0.19344008692E+02
 0.29800051235E+02 0.62827758637E+02 0.13329162192E+03 0.24410281995E+03 0.38280891486E+03
 0.52225560876E+03 0.62698717254E+03 0.79649388775E+03 0.75047102892E+03 0.62698717254E+03
 0.46227853616E+03 0.29752542297E+03 0.16416652869E+03 0.77113637855E+02 0.34346837741E+02
 0.20361350243E+02 0.15023019403E+02 0.11539980211E+02 0.93900088765E+01 0.81533835609E+01
 0.75407504966E+01 0.71675409402E+01 0.68188975877E+01 0.66505180732E+01 0.68188975877E+01
 0.71675409402E+01 0.75407504966E+01 0.81533835609E+01 0.93900088765E+01 0.11539980211E+02
 0.15023019403E+02 0.20361350243E+02 0.34346837741E+02 0.77113637855E+02 0.16416652869E+03
 0.29752542297E+03 0.46227853616E+03 0.62698717254E+03 0.75047102892E+03 0.79649388775E+03
 0.75047102892E+03 0.62698717254E+03 0.46227853616E+03 0.29752542297E+03 0.16416652869E+03
 0.77113637855E+02 0.34346837741E+02 0.20361350243E+02 0.15023019403E+02 0.11539980211E+02
 0.93900088765E+01 0.81533835609E+01 0.75407504966E+01 0.71675409402E+01 0.68188975877E+01
 0.66505180732E+01 0.68188975877E+01 0.71675409402E+01 0.75407504966E+01 0.81533835609E+01
 0.93900088765E+01 0.11539980211E+02 0.15023019403E+02 0.20361350243E+02 0.34346837741E+02
 0.77113637855E+02 0.16416652869E+03 0.29752542297E+03 0.46227853616E+03 0.62698717254E+03
 0.75047102892E+03 0.75047102892E+03 0.70691060433E+03 0.59003839644E+03 0.43421930261E+03
 0.27861477305E+03 0.15317328218E+03 0.71966336584E+02 0.32671292409E+02 0.19995933670E+02
 0.14830244821E+02 0.11467033903E+02 0.94037759445E+01 0.82238559904E+01 0.76436067749E+01
 0.72958698563E+01 0.69741359763E+01 0.68188975877E+01 0.69741359763E+01 0.72958698563E+01
 0.76436067749E+01 0.82238559904E+01 0.94037759445E+01 0.11467033903E+02 0.14830244821E+02
 0.19995933670E+02 0.32671292409E+02 0.71966336584E+02 0.15317328218E+03 0.27861477305E+03
 0.43421930261E+03 0.59003839644E+03 0.70691060433E+03 0.62698717254E+03 0.59003839644E+03
 0.49095554409E+03 0.35913713008E+03 0.22830643674E+03 0.12429191846E+03 0.58770561212E+02
 0.28560462909E+02 0.19025504981E+02 0.14301369262E+02 0.11273313470E+02 0.94385466077E+01
 0.83935624022E+01 0.78744766994E+01 0.75672563954E+01 0.72958698563E+01 0.71675409402E+01
 0.72958698563E+01 0.75672563954E+01 0.78744766994E+01 0.83935624022E+01 0.94385466077E+01
 0.11273313470E+02 0.14301369262E+02 0.19025504981E+02 0.28560462909E+02 0.58770561212E+02
 0.12429191846E+03 0.22830643674E+03 0.35913713008E+03 0.49095554409E+03 0.59003839644E+03
 0.46227853616E+03 0.43421930261E+03 0.35913713008E+03 0.25986901033E+03 0.16274440024E+03
 0.87732456014E+02 0.42963094316E+02 0.24046387785E+02 0.17620469263E+02 0.13568652143E+02
 0.11032332522E+02 0.95087145544E+01 0.86271874648E+01 0.81604880342E+01 0.78744766994E+01
 0.76436067749E+01 0.75407504966E+01 0.76436067749E+01 0.78744766994E+01 0.81604880342E+01
 0.86271874648E+01 0.95087145544E+01 0.11032332522E+02 0.13568652143E+02 0.17620469263E+02
 0.24046387785E+02 0.42963094316E+02 0.87732456014E+02 0.16274440024E+03 0.25986901033E+03
 0.35913713008E+03 0.43421930261E+03 0.29752542297E+03 0.27861477305E+03 0.22830643674E+03
 0.16274440024E+03 0.10043150724E+03 0.54833048681E+02 0.30066049532E+02 0.20620075095E+02
 0.16004600590E+02 0.12805727986E+02 0.10850924202E+02 0.96880538220E+01 0.90066487249E+01
 0.86271874648E+01 0.83935624022E+01 0.82238559904E+01 0.81533835609E+01 0.82238559904E+01
 0.83935624022E+01 0.86271874648E+01 0.90066487249E+01 0.96880538220E+01 0.10850924202E+02
 0.12805727986E+02 0.16004600590E+02 0.20620075095E+02 0.30066049532E+02 0.54833048681E+02
 0.10043150724E+03 0.16274440024E+03 0.22830643674E+03 0.27861477305E+03 0.16416652869E+03
 0.15317328218E+03 0.12429191846E+03 0.87732456014E+02 0.54833048681E+02 0.32951106181E+02
 0.22585336001E+02 0.17909304760E+02 0.14455719921E+02 0.12180802276E+02 0.10841219546E+02
 0.10087164758E+02 0.96880538220E+01 0.95087145544E+01 0.94385466077E+01 0.94037759445E+01
 0.93900088765E+01 0.94037759445E+01 0.94385466077E+01 0.95087145544E+01 0.96880538220E+01
 0.10087164758E+02 0.10841219546E+02 0.12180802276E+02 0.14455719921E+02 0.17909304760E+02
 0.22585336001E+02 0.32951106181E+02 0.54833048681E+02 0.87732456014E+02 0.12429191846E+03
 0.15317328218E+03 0.77113637855E+02 0.71966336584E+02 0.58770561212E+02 0.42963094316E+02
 0.30066049532E+02 0.22585336001E+02 0.18620827608E+02 0.15474454141E+02 0.13212407554E+02
 0.11831031202E+02 0.11116149625E+02 0.10841219546E+02 0.10850924202E+02 0.11032332522E+02
 0.11273313470E+02 0.11467033903E+02 0.11539980211E+02 0.11467033903E+02 0.11273313470E+02
 0.11032332522E+02 0.10850924202E+02 0.10841219546E+02 0.11116149625E+02 0.11831031202E+02
 0.13212407554E+02 0.15474454141E+02 0.18620827608E+02 0.22585336001E+02 0.30066049532E+02
 0.42963094316E+02 0.58770561212E+02 0.71966336584E+02 0.34346837741E+02 0.32671292409E+02
 0.28560462909E+02 0.24046387785E+02 0.20620075095E+02 0.17909304760E+02 0.15474454141E+02
 0.13608487009E+02 0.12424830526E+02 0.11872239111E+02 0.11831031202E+02 0.12180802276E+02
 0.12805727986E+02 0.13568652143E+02 0.14301369262E+02 0.14830244821E+02 0.15023019403E+02
 0.14830244821E+02 0.14301369262E+02 0.13568652143E+02 0.12805727986E+02 0.12180802276E+02
 0.11831031202E+02 0.11872239111E+02 0.12424830526E+02 0.13608487009E+02 0.15474454141E+02
 0.17909304760E+02 0.20620075095E+02 0.24046387785E+02 0.28560462909E+02 0.32671292409E+02
 0.20361350243E+02 0.19995933670E+02 0.19025504981E+02 0.17620469263E+02 0.16004600590E+02
 0.14455719921E+02 0.13212407554E+02 0.12424830526E+02 0.12157428195E+02 0.12424830526E+02
 0.13212407554E+02 0.14455719921E+02 0.16004600590E+02 0.17620469263E+02 0.19025504981E+02
 0.19995933670E+02 0.20361350243E+02 0.19995933670E+02 0.19025504981E+02 0.17620469263E+02
 0.16004600590E+02 0.14455719921E+02 0.13212407554E+02 0.12424830526E+02 0.12157428195E+02
 0.12424830526E+02 0.13212407554E+02 0.14455719921E+02 0.16004600590E+02 0.17620469263E+02
 0.19025504981E+02 0.19995933670E+02 0.15023019403E+02 0.14830244821E+02 0.14301369262E+02
 0.13568652143E+02 0.12805727986E+02 0.12180802276E+02 0.11831031202E+02 0.11872239111E+02
 0.12424830526E+02 0.13608487009E+02 0.15474454141E+02 0.17909304760E+02 0.20620075095E+02
 0.24046387785E+02 0.28560462909E+02 0.32671292409E+02 0.34346837741E+02 0.32671292409E+02
 0.28560462909E+02 0.24046387785E+02 0.20620075095E+02 0.17909304760E+02 0.15474454141E+02
 0.13608487009E+02 0.12424830526E+02 0.11872239111E+02 0.11831031202E+02 0.12180802276E+02
 0.12805727986E+02 0.13568652143E+02 0.14301369262E+02 0.14830244821E+02 0.11539980211E+02
 0.11467033903E+02 0.11273313470E+02 0.11032332522E+02 0.10850924202E+02 0.10841219546E+02
 0.11116149625E+02 0.11831031202E+02 0.13212407554E+02 0.15474454141E+02 0.18620827608E+02
 0.22585336001E+02 0.30066049532E+02 0.42963094316E+02 0.58770561212E+02 0.71966336584E+02
 0.77113637855E+02 0.71966336584E+02 0.58770561212E+02 0.42963094316E+02 0.30066049532E+02
 0.22585336001E+02 0.18620827608E+02 0.15474454141E+02 0.13212407554E+02 0.11831031202E+02
 0.11116149625E+02 0.10841219546E+02 0.10850924202E+02 0.11032332522E+02 0.11273313470E+02
 0.11467033903E+02 0.93900088765E+01 0.94037759445E+01 0.94385466077E+01 0.95087145544E+01
 0.96880538220E+01 0.10087164758E+02 0.10841219546E+02 0.12180802276E+02 0.14455719921E+02
 0.17909304760E+02 0.22585336001E+02 0.32951106181E+02 0.54833048681E+02 0.87732456014E+02
 0.12429191846E+03 0.15317328218E+03 0.16416652869E+03 0.15317328218E+03 0.12429191846E+03
 0.87732456014E+02 0.54833048681E+02 0.32951106181E+02 0.22585336001E+02 0.17909304760E+02
 0.14455719921E+02 0.12180802276E+02 0.10841219546E+02 0.10087164758E+02 0.96880538220E+01
 0.95087145544E+01 0.94385466077E+01 0.94037759445E+01 0.81533835609E+01 0.82238559904E+01
 0.83935624022E+01 0.86271874648E+01 0.90066487249E+01 0.96880538220E+01 0.10850924202E+02
 0.12805727986E+02 0.16004600590E+02 0.20620075095E+02 0.30066049532E+02 0.54833048681E+02
 0.10043150724E+03 0.16274440024E+03 0.22830643674E+03 0.27861477305E+03 0.29752542297E+03
 0.27861477305E+03 0.22830643674E+03 0.16274440024E+03 0.10043150724E+03 0.54833048681E+02
 0.30066049532E+02 0.20620075095E+02 0.16004600590E+02 0.12805727986E+02 0.10850924202E+02
 0.96880538220E+01 0.90066487249E+01 0.86271874648E+01 0.83935624022E+01 0.82238559904E+01
 0.75407504966E+01 0.76436067749E+01 0.78744766994E+01 0.81604880342E+01 0.86271874648E+01
 0.95087145544E+01 0.11032332522E+02 0.13568652143E+02 0.17620469263E+02 0.24046387785E+02
 0.42963094316E+02 0.87732456014E+02 0.16274440024E+03 0.25986901033E+03 0.35913713008E+03
 0.43421930261E+03 0.46227853616E+03 0.43421930261E+03 0.35913713008E+03 0.25986901033E+03
 0.16274440024E+03 0.87732456014E+02 0.42963094316E+02 0.24046387785E+02 0.17620469263E+02
 0.13568652143E+02 0.11032332522E+02 0.95087145544E+01 0.86271874648E+01 0.81604880342E+01
 0.78744766994E+01 0.76436067749E+01 0.71675409402E+01 0.72958698563E+01 0.75672563954E+01
 0.78744766994E+01 0.83935624022E+01 0.94385466077E+01 0.11273313470E+02 0.14301369262E+02
 0.19025504981E+02 0.28560462909E+02 0.58770561212E+02 0.12429191846E+03 0.22830643674E+03
 0.35913713008E+03 0.49095554409E+03 0.59003839644E+03 0.62698717254E+03 0.59003839644E+03
 0.49095554409E+03 0.35913713008E+03 0.22830643674E+03 0.12429191846E+03 0.58770561212E+02
 0.28560462909E+02 0.19025504981E+02 0.14301369262E+02 0.11273313470E+02 0.94385466077E+01
 0.83935624022E+01 0.78744766994E+01 0.75672563954E+01 0.72958698563E+01 0.68188975877E+01
 0.69741359763E+01 0.72958698563E+01 0.76436067749E+01 0.82238559904E+01 0.94037759445E+01
 0.11467033903E+02 0.14830244821E+02 0.19995933670E+02 0.32671292409E+02 0.71966336584E+02
 0.15317328218E+03 0.27861477305E+03 0.43421930261E+03 0.59003839644E+03 0.70691060433E+03
 0.75047102892E+03 0.70691060433E+03 0.59003839644E+03 0.43421930261E+03 0.27861477305E+03
 0.15317328218E+03 0.71966336584E+02 0.32671292409E+02 0.19995933670E+02 0.14830244821E+02
 0.11467033903E+02 0.94037759445E+01 0.82238559904E+01 0.76436067749E+01 0.72958698563E+01
 0.69741359763E+01 0.66505180732E+01 0.68188975877E+01 0.71675409402E+01 0.75407504966E+01
 0.81533835609E+01 0.93900088765E+01 0.11539980211E+02 0.15023019403E+02 0.20361350243E+02
 0.34346837741E+02 0.77113637855E+02 0.16416652869E+03 0.29752542297E+03 0.46227853616E+03
 0.62698717254E+03 0.75047102892E+03 0.79649388775E+03 0.75047102892E+03 0.62698717254E+03
 0.46227853616E+03 0.29752542297E+03 0.16416652869E+03 0.77113637855E+02 0.34346837741E+02
 0.20361350243E+02 0.15023019403E+02 0.11539980211E+02 0.93900088765E+01 0.81533835609E+01
 0.75407504966E+01 0.71675409402E+01 0.68188975877E+01 0.68188975877E+01 0.69741359763E+01
 0.72958698563E+01 0.76436067749E+01 0.82238559904E+01 0.94037759445E+01 0.11467033903E+02
 0.14830244821E+02 0.19995933670E+02 0.32671292409E+02 0.71966336584E+02 0.15317328218E+03
 0.27861477305E+03 0.43421930261E+03 0.59003839644E+03 0.70691060433E+03 0.75047102892E+03
 0.70691060433E+03 0.59003839644E+03 0.43421930261E+03 0.27861477305E+03 0.15317328218E+03
 0.71966336584E+02 0.32671292409E+02 0.19995933670E+02 0.14830244821E+02 0.11467033903E+02
 0.94037759445E+01 0.82238559904E+01 0.76436067749E+01 0.72958698563E+01 0.69741359763E+01
 0.71675409402E+01 0.72958698563E+01 0.75672563954E+01 0.78744766994E+01 0.83935624022E+01
 0.94385466077E+01 0.11273313470E+02 0.14301369262E+02 0.19025504981E+02 0.28560462909E+02
 0.58770561212E+02 0.12429191846E+03 0.22830643674E+03 0.35913713008E+03 0.49095554409E+03
 0.59003839644E+03 0.62698717254E+03 0.59003839644E+03 0.49095554409E+03 0.35913713008E+03
 0.22830643674E+03 0.12429191846E+03 0.58770561212E+02 0.28560462909E+02 0.19025504981E+02