   4   4   0   0
  0.1200752E+02  0.3635000E-09  0.3635000E-09  0.3635000E-09  0.5000000E-15
  1.000000000000000E-004
  CAR 
 unknown system                          
     29.38143548     -3.84623586  301      7.35077994      1.00000000
     -3.846  0.0000E+00  0.0000E+00
     -3.735  0.0000E+00  0.0000E+00
     -3.625  0.0000E+00  0.0000E+00
     -3.514 -0.3697E-31 -0.4094E-32
     -3.403 -0.2605E-27 -0.2885E-28
     -3.292 -0.9889E-24 -0.1096E-24
     -3.182 -0.2021E-20 -0.2240E-21
     -3.071 -0.2221E-17 -0.2462E-18
     -2.960 -0.1270E-14 -0.1409E-15
     -2.849 -0.3988E-12 -0.4431E-13
     -2.739 -0.6684E-10 -0.7447E-11
     -2.628 -0.5954E-08 -0.6670E-09
     -2.517 -0.2806E-06 -0.3174E-07
     -2.406 -0.6956E-05 -0.8022E-06
     -2.296 -0.9027E-04 -0.1080E-04
     -2.185 -0.6097E-03 -0.7833E-04
     -2.074 -0.2059E-02 -0.3064E-03
     -1.963 -0.2144E-02 -0.5438E-03
     -1.853  0.1039E-01  0.6066E-03
     -1.742  0.5390E-01  0.6576E-02
     -1.631  0.1273E+00  0.2067E-01
     -1.520  0.1835E+00  0.4100E-01
     -1.410  0.1728E+00  0.6014E-01
     -1.299  0.1435E+00  0.7604E-01
     -1.188  0.2174E+00  0.1001E+00
     -1.077  0.3795E+00  0.1421E+00
     -0.967  0.4188E+00  0.1885E+00
     -0.856  0.2542E+00  0.2167E+00
     -0.745  0.1331E+00  0.2314E+00
     -0.634  0.2568E+00  0.2599E+00
     -0.523  0.4611E+00  0.3109E+00
     -0.413  0.5356E+00  0.3703E+00
     -0.302  0.4858E+00  0.4241E+00
     -0.191  0.3673E+00  0.4647E+00
     -0.080  0.3247E+00  0.5007E+00
      0.030  0.5239E+00  0.5587E+00
      0.141  0.6697E+00  0.6329E+00
      0.252  0.4247E+00  0.6800E+00
      0.363  0.2246E+00  0.7048E+00
      0.473  0.4811E+00  0.7581E+00
      0.584  0.7872E+00  0.8453E+00
      0.695  0.7670E+00  0.9303E+00
      0.806  0.6379E+00  0.1001E+01
      0.916  0.7511E+00  0.1084E+01
      1.027  0.8987E+00  0.1184E+01
      1.138  0.6237E+00  0.1253E+01
      1.249  0.2939E+00  0.1285E+01
      1.359  0.4610E+00  0.1336E+01
      1.470  0.1029E+01  0.1450E+01
      1.581  0.1377E+01  0.1603E+01
      1.692  0.1206E+01  0.1736E+01
      1.802  0.1034E+01  0.1851E+01
      1.913  0.1017E+01  0.1964E+01
      2.024  0.9436E+00  0.2068E+01
      2.135  0.1135E+01  0.2194E+01
      2.246  0.1870E+01  0.2401E+01
      2.356  0.2545E+01  0.2683E+01
      2.467  0.2691E+01  0.2981E+01
      2.578  0.3033E+01  0.3317E+01
      2.689  0.3944E+01  0.3754E+01
      2.799  0.4880E+01  0.4294E+01
      2.910  0.5314E+01  0.4883E+01
      3.021  0.5286E+01  0.5468E+01
      3.132  0.6269E+01  0.6162E+01
      3.242  0.8133E+01  0.7063E+01
      3.353  0.9248E+01  0.8087E+01
      3.464  0.9435E+01  0.9132E+01
      3.575  0.8977E+01  0.1013E+02
      3.685  0.8543E+01  0.1107E+02
      3.796  0.8549E+01  0.1202E+02
      3.907  0.8979E+01  0.1301E+02
      4.018  0.1042E+02  0.1417E+02
      4.128  0.1235E+02  0.1554E+02
      4.239  0.1315E+02  0.1699E+02
      4.350  0.1424E+02  0.1857E+02
      4.461  0.1672E+02  0.2042E+02
      4.571  0.1775E+02  0.2239E+02
      4.682  0.1548E+02  0.2410E+02
      4.793  0.1207E+02  0.2544E+02
      4.904  0.1096E+02  0.2665E+02
      5.014  0.1260E+02  0.2805E+02
      5.125  0.1442E+02  0.2964E+02
      5.236  0.1466E+02  0.3127E+02
      5.347  0.1364E+02  0.3278E+02
      5.458  0.1323E+02  0.3424E+02
      5.568  0.1494E+02  0.3590E+02
      5.679  0.1847E+02  0.3794E+02
      5.790  0.1911E+02  0.4006E+02
      5.901  0.1330E+02  0.4153E+02
      6.011  0.5855E+01  0.4218E+02
      6.122  0.1670E+01  0.4237E+02
      6.233  0.4560E+00  0.4242E+02
      6.344  0.8636E+00  0.4251E+02
      6.454  0.1833E+01  0.4272E+02
      6.565  0.2010E+01  0.4294E+02
      6.676  0.1328E+01  0.4309E+02
      6.787  0.7761E+00  0.4317E+02
      6.897  0.1006E+01  0.4328E+02
      7.008  0.1866E+01  0.4349E+02
      7.119  0.2075E+01  0.4372E+02
      7.230  0.1416E+01  0.4388E+02
      7.340  0.1018E+01  0.4399E+02
      7.451  0.9262E+00  0.4409E+02
      7.562  0.8667E+00  0.4419E+02
      7.673  0.7738E+00  0.4427E+02
      7.783  0.7522E+00  0.4436E+02
      7.894  0.1139E+01  0.4448E+02
      8.005  0.1504E+01  0.4465E+02
      8.116  0.1667E+01  0.4484E+02
      8.226  0.1809E+01  0.4504E+02
      8.337  0.1454E+01  0.4520E+02
      8.448  0.8142E+00  0.4529E+02
      8.559  0.4943E+00  0.4534E+02
      8.670  0.6782E+00  0.4542E+02
      8.780  0.8762E+00  0.4551E+02
      8.891  0.6100E+00  0.4558E+02
      9.002  0.6214E+00  0.4565E+02
      9.113  0.1275E+01  0.4579E+02
      9.223  0.1700E+01  0.4598E+02
      9.334  0.1448E+01  0.4614E+02
      9.445  0.1019E+01  0.4625E+02
      9.556  0.8806E+00  0.4635E+02
      9.666  0.1060E+01  0.4647E+02
      9.777  0.1241E+01  0.4661E+02
      9.888  0.8473E+00  0.4670E+02
      9.999  0.2994E+00  0.4673E+02
     10.109  0.2614E+00  0.4676E+02
     10.220  0.4255E+00  0.4681E+02
     10.331  0.6118E+00  0.4688E+02
     10.442  0.1003E+01  0.4699E+02
     10.552  0.1071E+01  0.4711E+02
     10.663  0.6553E+00  0.4718E+02
     10.774  0.7466E+00  0.4726E+02
     10.885  0.1162E+01  0.4739E+02
     10.995  0.8664E+00  0.4749E+02
     11.106  0.3731E+00  0.4753E+02
     11.217  0.5063E+00  0.4758E+02
     11.328  0.9409E+00  0.4769E+02
     11.438  0.1268E+01  0.4783E+02
     11.549  0.1495E+01  0.4799E+02
     11.660  0.1469E+01  0.4816E+02
     11.771  0.1051E+01  0.4827E+02
     11.882  0.8676E+00  0.4837E+02
     11.992  0.1011E+01  0.4848E+02
     12.103  0.9156E+00  0.4858E+02
     12.214  0.9755E+00  0.4869E+02
     12.325  0.1460E+01  0.4885E+02
     12.435  0.1596E+01  0.4903E+02
     12.546  0.1308E+01  0.4917E+02
     12.657  0.9804E+00  0.4928E+02
     12.768  0.6003E+00  0.4935E+02
     12.878  0.5259E+00  0.4941E+02
     12.989  0.1288E+01  0.4955E+02
     13.100  0.2061E+01  0.4978E+02
     13.211  0.1561E+01  0.4995E+02
     13.321  0.7301E+00  0.5003E+02
     13.432  0.8019E+00  0.5012E+02
     13.543  0.1160E+01  0.5025E+02
     13.654  0.8477E+00  0.5034E+02
     13.764  0.4494E+00  0.5039E+02
     13.875  0.5346E+00  0.5045E+02
     13.986  0.5674E+00  0.5051E+02
     14.097  0.5737E+00  0.5058E+02
     14.207  0.9017E+00  0.5068E+02
     14.318  0.1367E+01  0.5083E+02
     14.429  0.1794E+01  0.5103E+02
     14.540  0.1855E+01  0.5123E+02
     14.651  0.1432E+01  0.5139E+02
     14.761  0.1062E+01  0.5151E+02
     14.872  0.1135E+01  0.5164E+02
     14.983  0.1388E+01  0.5179E+02
     15.094  0.1161E+01  0.5192E+02
     15.204  0.7317E+00  0.5200E+02
     15.315  0.7702E+00  0.5208E+02
     15.426  0.9287E+00  0.5219E+02
     15.537  0.9775E+00  0.5229E+02
     15.647  0.1224E+01  0.5243E+02
     15.758  0.1598E+01  0.5261E+02
     15.869  0.1964E+01  0.5283E+02
     15.980  0.1970E+01  0.5304E+02
     16.090  0.1643E+01  0.5323E+02
     16.201  0.1604E+01  0.5340E+02
     16.312  0.1654E+01  0.5359E+02
     16.423  0.1582E+01  0.5376E+02
     16.533  0.1597E+01  0.5394E+02
     16.644  0.1773E+01  0.5413E+02
     16.755  0.1885E+01  0.5434E+02
     16.866  0.1426E+01  0.5450E+02
     16.976  0.7084E+00  0.5458E+02
     17.087  0.7035E+00  0.5466E+02
     17.198  0.1095E+01  0.5478E+02
     17.309  0.1325E+01  0.5493E+02
     17.419  0.1600E+01  0.5510E+02
     17.530  0.1706E+01  0.5529E+02
     17.641  0.1326E+01  0.5544E+02
     17.752  0.9324E+00  0.5554E+02
     17.863  0.1013E+01  0.5565E+02
     17.973  0.1444E+01  0.5581E+02
     18.084  0.2095E+01  0.5605E+02
     18.195  0.2272E+01  0.5630E+02
     18.306  0.1560E+01  0.5647E+02
     18.416  0.1506E+01  0.5664E+02
     18.527  0.2448E+01  0.5691E+02
     18.638  0.2338E+01  0.5717E+02
     18.749  0.1102E+01  0.5729E+02
     18.859  0.4235E+00  0.5734E+02
     18.970  0.6537E+00  0.5741E+02
     19.081  0.1088E+01  0.5753E+02
     19.192  0.1452E+01  0.5769E+02
     19.302  0.1942E+01  0.5791E+02
     19.413  0.2057E+01  0.5813E+02
     19.524  0.1515E+01  0.5830E+02
     19.635  0.1062E+01  0.5842E+02
     19.745  0.1223E+01  0.5855E+02
     19.856  0.1347E+01  0.5870E+02
     19.967  0.8511E+00  0.5880E+02
     20.078  0.4851E+00  0.5885E+02
     20.188  0.7061E+00  0.5893E+02
     20.299  0.8946E+00  0.5903E+02
     20.410  0.6795E+00  0.5910E+02
     20.521  0.4162E+00  0.5915E+02
     20.631  0.2432E+00  0.5918E+02
     20.742  0.2179E+00  0.5920E+02
     20.853  0.4416E+00  0.5925E+02
     20.964  0.4800E+00  0.5930E+02
     21.075  0.1849E+00  0.5932E+02
     21.185 -0.9440E-02  0.5932E+02
     21.296 -0.2326E-01  0.5932E+02
     21.407 -0.1488E-01  0.5932E+02
     21.518 -0.1745E-01  0.5932E+02
     21.628  0.4478E-01  0.5932E+02
     21.739  0.2436E+00  0.5935E+02
     21.850  0.5092E+00  0.5940E+02
     21.961  0.6129E+00  0.5947E+02
     22.071  0.3632E+00  0.5951E+02
     22.182  0.7739E-01  0.5952E+02
     22.293  0.1162E+00  0.5953E+02
     22.404  0.2510E+00  0.5956E+02
     22.514  0.1682E+00  0.5958E+02
     22.625  0.1293E-01  0.5958E+02
     22.736  0.3523E-01  0.5959E+02
     22.847  0.2496E+00  0.5961E+02
     22.957  0.4005E+00  0.5966E+02
     23.068  0.2739E+00  0.5969E+02
     23.179  0.6516E-01  0.5970E+02
     23.290 -0.1589E-01  0.5969E+02
     23.400 -0.2437E-01  0.5969E+02
     23.511 -0.2741E-01  0.5969E+02
     23.622  0.8733E-01  0.5970E+02
     23.733  0.3985E+00  0.5974E+02
     23.843  0.5212E+00  0.5980E+02
     23.954  0.2474E+00  0.5983E+02
     24.065  0.8471E-02  0.5983E+02
     24.176 -0.2636E-01  0.5983E+02
     24.287 -0.1583E-01  0.5982E+02
     24.397 -0.1055E-01  0.5982E+02
     24.508  0.6779E-01  0.5983E+02
     24.619  0.2262E+00  0.5985E+02
     24.730  0.2459E+00  0.5988E+02
     24.840  0.9315E-01  0.5989E+02
     24.951 -0.4690E-02  0.5989E+02
     25.062 -0.1074E-01  0.5989E+02
     25.173 -0.3531E-02  0.5989E+02
     25.283 -0.7194E-02  0.5989E+02
     25.394 -0.1279E-01  0.5989E+02
     25.505  0.4251E-01  0.5989E+02
     25.616  0.1976E+00  0.5991E+02
     25.726  0.2612E+00  0.5994E+02
     25.837  0.1255E+00  0.5996E+02
     25.948  0.4941E-02  0.5996E+02
     26.059 -0.1241E-01  0.5996E+02
     26.169 -0.3513E-02  0.5996E+02
     26.280 -0.3908E-03  0.5996E+02
     26.391 -0.2080E-04  0.5996E+02
     26.502 -0.5642E-06  0.5996E+02
     26.612 -0.1587E-06  0.5996E+02
     26.723 -0.6479E-05  0.5996E+02
     26.834 -0.1424E-03  0.5996E+02
     26.945 -0.1527E-02  0.5996E+02
     27.055 -0.6924E-02  0.5996E+02
     27.166 -0.3811E-02  0.5995E+02
     27.277  0.5918E-01  0.5996E+02
     27.388  0.1620E+00  0.5998E+02
     27.499  0.1532E+00  0.6000E+02
     27.609  0.4787E-01  0.6000E+02
     27.720 -0.6082E-02  0.6000E+02
     27.831 -0.6152E-02  0.6000E+02
     27.942 -0.1210E-02  0.6000E+02
     28.052 -0.1035E-03  0.6000E+02
     28.163 -0.4356E-05  0.6000E+02
     28.274 -0.9406E-07  0.6000E+02
     28.385 -0.1064E-08  0.6000E+02
     28.495 -0.6365E-11  0.6000E+02
     28.606 -0.2033E-13  0.6000E+02
     28.717  0.0000E+00  0.6000E+02
     28.828  0.0000E+00  0.6000E+02
     28.938  0.0000E+00  0.6000E+02
     29.049  0.0000E+00  0.6000E+02
     29.160  0.0000E+00  0.6000E+02
     29.271  0.0000E+00  0.6000E+02
     29.381  0.0000E+00  0.6000E+02
