    4    4    1    1
  0.1200752E+02  0.3635000E-09  0.3635000E-09  0.3635000E-09  0.5000000E-15
  1.000000000000000E-004
  CAR 
 unknown system                          
     44     35     30
 
  0.0000000E+00  0.0000000E+00  0.0000000E+00  0.1371742E-02
    1       -1.846236   1.000000
    2        2.604604   1.000000
    3        2.604604   1.000000
    4        2.604604   1.000000
    5        3.051092   1.000000
    6        3.051092   1.000000
    7        3.051092   1.000000
    8        4.409447   1.000000
    9        4.409447   1.000000
   10        4.409447   1.000000
   11        5.214924   1.000000
   12        5.214924   1.000000
   13        5.750293   1.000000
   14        5.750293   1.000000
   15        5.750293   1.000000
   16        5.902742   1.000000
   17        5.902742   1.000000
   18        5.902742   1.000000
   19        5.902742   1.000000
   20        5.902742   1.000000
   21        5.902742   1.000000
   22        8.890378  -0.000000
   23        8.890378  -0.000000
   24        8.890378  -0.000000
   25       14.381845   0.000000
   26       14.381845   0.000000
   27       14.381845   0.000000
   28       20.332442   0.000000
   29       20.332442   0.000000
   30       20.332442   0.000000
 
  0.1111111E+00  0.0000000E+00  0.0000000E+00  0.8230453E-02
    1       -1.698023   1.000000
    2        2.599836   1.000000
    3        2.672739   1.000000
    4        2.672739   1.000000
    5        3.089976   1.000000
    6        3.092322   1.000000
    7        3.092322   1.000000
    8        4.366206   1.000000
    9        4.444061   1.000000
   10        4.444061   1.000000
   11        5.176148   1.000000
   12        5.230703   1.000000
   13        5.659209   1.000000
   14        5.659209   1.000000
   15        5.699827   1.000000
   16        5.699827   1.000000
   17        5.733829   1.000000
   18        5.843237   1.000000
   19        5.843237   1.000000
   20        5.902895   1.000000
   21        5.902895   1.000000
   22        8.040398  -0.000006
   23        9.267345  -0.000000
   24        9.267345  -0.000000
   25       14.437051   0.000000
   26       14.437051   0.000000
   27       15.526832   0.000000
   28       19.421792   0.000000
   29       19.421792   0.000000
   30       19.725199   0.000000
 
  0.2222222E+00  0.0000000E+00  0.0000000E+00  0.8230453E-02
    1       -1.259105   1.000000
    2        2.530412   1.000000
    3        2.859609   1.000000
    4        2.859609   1.000000
    5        3.202099   1.000000
    6        3.216825   1.000000
    7        3.216825   1.000000
    8        4.242659   1.000000
    9        4.546437   1.000000
   10        4.546437   1.000000
   11        5.066735   1.000000
   12        5.146543   1.000000
   13        5.146543   1.000000
   14        5.276260   1.000000
   15        5.557292   1.000000
   16        5.557292   1.000000
   17        5.678576   1.000000
   18        5.678576   1.000000
   19        5.686372   1.000000
   20        5.903169   1.000000
   21        5.903169   1.000000
   22        6.532733   1.000000
   23       10.177859  -0.000000
   24       10.177859  -0.000000
   25       14.611961   0.000000
   26       14.611961   0.000000
   27       17.735077   0.000000
   28       17.735077   0.000000
   29       17.964325   0.000000
   30       18.492266   0.000000
 
  0.3333333E+00  0.0000000E+00  0.0000000E+00  0.8230453E-02
    1       -0.550063   1.000000
    2        2.192876   1.000000
    3        3.106408   1.000000
    4        3.106408   1.000000
    5        3.376490   1.000000
    6        3.428147   1.000000
    7        3.428147   1.000000
    8        4.055405   1.000000
    9        4.605865   1.000000
   10        4.605865   1.000000
   11        4.711333   1.000000
   12        4.711333   1.000000
   13        4.915892   1.000000
   14        5.336354   1.000000
   15        5.346419   1.000000
   16        5.359893   1.000000
   17        5.359893   1.000000
   18        5.444481   1.000000
   19        5.444481   1.000000
   20        5.614204   1.000000
   21        5.903306   1.000000
   22        5.903306   1.000000
   23       11.376712  -0.000000
   24       11.376712  -0.000000
   25       14.932099   0.000000
   26       14.932099   0.000000
   27       15.981446   0.000000
   28       15.981446   0.000000
   29       17.264797   0.000000
   30       17.264797   0.000000
 
  0.4444444E+00  0.0000000E+00  0.0000000E+00  0.8230453E-02
    1        0.378404   1.000000
    2        1.394629   1.000000
    3        3.299263   1.000000
    4        3.299263   1.000000
    5        3.593927   1.000000
    6        3.730277   1.000000
    7        3.730277   1.000000
    8        3.829592   1.000000
    9        4.124826   1.000000
   10        4.124826   1.000000
   11        4.786435   1.000000
   12        4.823544   1.000000
   13        4.929137   1.000000
   14        4.929137   1.000000
   15        5.182494   1.000000
   16        5.182494   1.000000
   17        5.199106   1.000000
   18        5.199106   1.000000
   19        5.433094   1.000000
   20        5.526291   1.000000
   21        5.903471   1.000000
   22        5.903471   1.000000
   23       12.767406  -0.000000
   24       12.767406  -0.000000
   25       14.311069   0.000000
   26       14.311069   0.000000
   27       15.416461   0.000000
   28       15.416461   0.000000
   29       16.283072   0.000000
   30       16.283072   0.000000
 
  0.1111111E+00  0.1111111E+00  0.0000000E+00  0.1646091E-01
    1       -1.550910   1.000000
    2        2.671063   1.000000
    3        2.671063   1.000000
    4        2.737952   1.000000
    5        3.129580   1.000000
    6        3.129580   1.000000
    7        3.130781   1.000000
    8        4.343091   1.000000
    9        4.460268   1.000000
   10        4.472376   1.000000
   11        5.165980   1.000000
   12        5.223834   1.000000
   13        5.495281   1.000000
   14        5.549051   1.000000
   15        5.549051   1.000000
   16        5.653059   1.000000
   17        5.713626   1.000000
   18        5.713626   1.000000
   19        5.842982   1.000000
   20        5.842982   1.000000
   21        5.864450   1.000000
   22        8.409415  -0.000000
   23        8.409415  -0.000000
   24        9.603220  -0.000000
   25       14.492784   0.000000
   26       15.610357   0.000000
   27       15.610357   0.000000
   28       17.747513   0.000000
   29       19.618209   0.000000
   30       19.618209   0.000000
 
  0.2222222E+00  0.1111111E+00  0.0000000E+00  0.3292181E-01
    1       -1.115462   1.000000
    2        2.611029   1.000000
    3        2.866901   1.000000
    4        2.917083   1.000000
    5        3.238062   1.000000
    6        3.246835   1.000000
    7        3.250013   1.000000
    8        4.234113   1.000000
    9        4.552231   1.000000
   10        4.552804   1.000000
   11        5.034917   1.000000
   12        5.065000   1.000000
   13        5.076760   1.000000
   14        5.271272   1.000000
   15        5.294143   1.000000
   16        5.520425   1.000000
   17        5.567308   1.000000
   18        5.669789   1.000000
   19        5.677965   1.000000
   20        5.842458   1.000000
   21        5.844018   1.000000
   22        6.966473   1.010216
   23        9.240112  -0.000000
   24       10.453200  -0.000000
   25       14.658402   0.000000
   26       15.871124   0.000000
   27       15.948422   0.000000
   28       17.918598   0.000000
   29       18.068124   0.000000
   30       18.663734   0.000000
 
  0.3333333E+00  0.1111111E+00  0.0000000E+00  0.3292181E-01
    1       -0.412765   1.000000
    2        2.288549   1.000000
    3        3.128955   1.000000
    4        3.158536   1.000000
    5        3.405921   1.000000
    6        3.436383   1.000000
    7        3.453876   1.000000
    8        4.057148   1.000000
    9        4.508570   1.000000
   10        4.572140   1.000000
   11        4.653409   1.000000
   12        4.713901   1.000000
   13        4.900542   1.000000
   14        4.973315   1.000000
   15        5.336271   1.000000
   16        5.358807   1.000000
   17        5.371099   1.000000
   18        5.443566   1.000000
   19        5.545806   1.000000
   20        5.839782   1.000000
   21        5.841604   1.000000
   22        5.971219   1.000000
   23       10.278698  -0.000000
   24       11.610366  -0.000000
   25       14.202107   0.000000
   26       15.083778   0.000000
   27       16.164963   0.000000
   28       16.330702   0.000000
   29       17.416357   0.000000
   30       19.196332   0.000000
 
  0.4444444E+00  0.1111111E+00  0.0000000E+00  0.3292181E-01
    1        0.505534   1.000000
    2        1.507020   1.000000
    3        3.342403   1.000000
    4        3.355309   1.000000
    5        3.615066   1.000000
    6        3.694971   1.000000
    7        3.744041   1.000000
    8        3.841366   1.000000
    9        4.052130   1.000000
   10        4.120235   1.000000
   11        4.644557   1.000000
   12        4.648675   1.000000
   13        4.929834   1.000000
   14        5.040950   1.000000
   15        5.181994   1.000000
   16        5.190383   1.000000
   17        5.204663   1.000000
   18        5.284743   1.000000
   19        5.472324   1.000000
   20        5.619585   1.000000
   21        5.839634   1.000000
   22        5.840476   1.000000
   23       11.453705  -0.000000
   24       12.761342  -0.000000
   25       12.974972   0.000000
   26       14.502714   0.000000
   27       15.582219   0.000000
   28       16.334799   0.000000
   29       17.085759   0.000000
   30       18.030532   0.000000
 
  0.2222222E+00  0.2222222E+00  0.0000000E+00  0.1646091E-01
    1       -0.691032   1.000000
    2        2.835051   1.000000
    3        2.835051   1.000000
    4        3.073645   1.000000
    5        3.337909   1.000000
    6        3.346114   1.000000
    7        3.346114   1.000000
    8        4.177481   1.000000
    9        4.573171   1.000000
   10        4.604869   1.000000
   11        4.764093   1.000000
   12        4.764093   1.000000
   13        4.817994   1.000000
   14        5.046815   1.000000
   15        5.320219   1.000000
   16        5.413854   1.000000
   17        5.542444   1.000000
   18        5.542444   1.000000
   19        5.676162   1.000000
   20        5.676162   1.000000
   21        5.751586   1.000000
   22        7.732805  -0.010572
   23        7.732805  -0.010572
   24       11.195417  -0.000000
   25       13.920015   0.000000
   26       14.964250   0.000000
   27       18.374209   0.000000
   28       18.374209   0.000000
   29       18.451442   0.000000
   30       18.451442   0.000000
 
  0.3333333E+00  0.2222222E+00  0.0000000E+00  0.3292181E-01
    1       -0.008963   1.000000
    2        2.556187   1.000000
    3        3.143966   1.000000
    4        3.290561   1.000000
    5        3.473152   1.000000
    6        3.494011   1.000000
    7        3.527462   1.000000
    8        4.048114   1.000000
    9        4.287417   1.000000
   10        4.465829   1.000000
   11        4.480340   1.000000
   12        4.579826   1.000000
   13        4.738297   1.000000
   14        4.987592   1.000000
   15        5.262278   1.000000
   16        5.357710   1.000000
   17        5.430916   1.000000
   18        5.441967   1.000000
   19        5.459394   1.000000
   20        5.674100   1.000000
   21        5.699806   1.000000
   22        6.588868   1.000000
   23        8.622893  -0.000000
   24       12.264444  -0.000000
   25       12.265338  -0.000000
   26       15.309879   0.000000
   27       16.697421   0.000000
   28       17.814219   0.000000
   29       18.969667   0.000000
   30       19.289210   0.000000
 
  0.4444444E+00  0.2222222E+00  0.0000000E+00  0.3292181E-01
    1        0.875349   1.000000
    2        1.827296   1.000000
    3        3.425664   1.000000
    4        3.510737   1.000000
    5        3.596525   1.000000
    6        3.676525   1.000000
    7        3.781831   1.000000
    8        3.870433   1.000000
    9        3.890904   1.000000
   10        4.102206   1.000000
   11        4.404667   1.000000
   12        4.499574   1.000000
   13        4.939440   1.000000
   14        5.048538   1.000000
   15        5.149062   1.000000
   16        5.183634   1.000000
   17        5.188344   1.000000
   18        5.234778   1.000000
   19        5.661665   1.000000
   20        5.673877   1.000000
   21        5.679593   1.000000
   22        5.972807   1.000000
   23        9.643365  -0.000000
   24       10.841040  -0.000000
   25       13.567913   0.000000
   26       15.056143   0.000000
   27       15.891227   0.000000
   28       16.722848   0.000000
   29       19.748586   0.000000
   30       20.380342   0.000000
 
  0.3333333E+00  0.3333333E+00  0.0000000E+00  0.1646091E-01
    1        0.632964   1.000000
    2        2.930399   1.000000
    3        2.930399   1.000000
    4        3.410263   1.000000
    5        3.581464   1.000000
    6        3.638748   1.000000
    7        3.638748   1.000000
    8        3.998752   1.000000
    9        4.141321   1.000000
   10        4.141321   1.000000
   11        4.285508   1.000000
   12        4.517730   1.000000
   13        4.821225   1.000000
   14        4.926391   1.000000
   15        5.146017   1.000000
   16        5.261339   1.000000
   17        5.261339   1.000000
   18        5.443582   1.000000
   19        5.443582   1.000000
   20        5.570856   1.000000
   21        5.676584   1.000000
   22        7.295919   0.722737
   23        7.295919   0.722737
   24       10.585325  -0.000000
   25       13.246867   0.000000
   26       15.748187   0.000000
   27       17.535232   0.000000
   28       17.535232   0.000000
   29       18.522189   0.000000
   30       18.522189   0.000000
 
  0.4444444E+00  0.3333333E+00  0.0000000E+00  0.3292181E-01
    1        1.447838   1.000000
    2        2.296729   1.000000
    3        3.281221   1.000000
    4        3.440328   1.000000
    5        3.728767   1.000000
    6        3.770252   1.000000
    7        3.832959   1.000000
    8        3.892886   1.000000
    9        3.899382   1.000000
   10        4.059851   1.000000
   11        4.223147   1.000000
   12        4.396209   1.000000
   13        4.944388   1.000000
   14        4.979750   1.000000
   15        5.055341   1.000000
   16        5.090109   1.000000
   17        5.100982   1.000000
   18        5.198012   1.000000
   19        5.455902   1.000000
   20        5.492346   1.000000
   21        5.984979   1.000000
   22        6.459837   1.000000
   23        8.145018  -0.000000
   24        9.218243  -0.000000
   25       14.481866   0.000000
   26       15.921627   0.000000
   27       16.412976   0.000000
   28       17.334040   0.000000
   29       18.630695   0.000000
   30       19.482076   0.000000
 
  0.4444444E+00  0.4444444E+00  0.0000000E+00  0.1646091E-01
    1        2.137166   1.000000
    2        2.799423   1.000000
    3        2.799423   1.000000
    4        3.193825   1.000000
    5        3.880828   1.000000
    6        3.880828   1.000000
    7        3.906128   1.000000
    8        3.943459   1.000000
    9        3.984371   1.000000
   10        4.094217   1.000000
   11        4.094217   1.000000
   12        4.284909   1.000000
   13        4.878402   1.000000
   14        4.950608   1.000000
   15        4.958020   1.000000
   16        4.958020   1.000000
   17        5.077486   1.000000
   18        5.242757   1.000000
   19        5.242757   1.000000
   20        5.338234   1.000000
   21        6.426281   1.000000
   22        7.090835   1.034677
   23        7.090835   1.034677
   24        7.974054  -0.000048
   25       15.656044   0.000000
   26       17.048108   0.000000
   27       17.048108   0.000000
   28       17.174137   0.000000
   29       18.195394   0.000000
   30       18.195394   0.000000
 
  0.1111111E+00  0.1111111E+00  0.1111111E+00  0.1097394E-01
    1       -1.405016   1.000000
    2        2.738534   1.000000
    3        2.738534   1.000000
    4        2.738534   1.000000
    5        3.167127   1.000000
    6        3.167127   1.000000
    7        3.167127   1.000000
    8        4.322825   1.000000
    9        4.484581   1.000000
   10        4.484581   1.000000
   11        5.189895   1.000000
   12        5.189895   1.000000
   13        5.403680   1.000000
   14        5.403680   1.000000
   15        5.403680   1.000000
   16        5.597922   1.000000
   17        5.597922   1.000000
   18        5.597922   1.000000
   19        5.850596   1.000000
   20        5.850596   1.000000
   21        5.850596   1.000000
   22        8.721210  -0.000000
   23        8.721210  -0.000000
   24        8.721210  -0.000000
   25       15.694782   0.000000
   26       15.694782   0.000000
   27       15.694782   0.000000
   28       17.931612   0.000000
   29       17.931612   0.000000
   30       17.931612   0.000000
 
  0.2222222E+00  0.1111111E+00  0.1111111E+00  0.3292181E-01
    1       -0.973518   1.000000
    2        2.685173   1.000000
    3        2.923626   1.000000
    4        2.923626   1.000000
    5        3.272817   1.000000
    6        3.279796   1.000000
    7        3.279796   1.000000
    8        4.227614   1.000000
    9        4.553060   1.000000
   10        4.557797   1.000000
   11        4.966090   1.000000
   12        4.966090   1.000000
   13        5.102510   1.000000
   14        5.131318   1.000000
   15        5.257325   1.000000
   16        5.453523   1.000000
   17        5.481604   1.000000
   18        5.481604   1.000000
   19        5.801848   1.000000
   20        5.828382   1.000000
   21        5.828382   1.000000
   22        7.259120   0.846343
   23        9.476416  -0.000000
   24        9.476416  -0.000000
   25       15.897940   0.000000
   26       15.897940   0.000000
   27       16.176838   0.000000
   28       16.176838   0.000000
   29       18.151630   0.000000
   30       18.489197   0.000000
 
  0.3333333E+00  0.1111111E+00  0.1111111E+00  0.3292181E-01
    1       -0.278189   1.000000
    2        2.374788   1.000000
    3        3.175713   1.000000
    4        3.175713   1.000000
    5        3.436757   1.000000
    6        3.460029   1.000000
    7        3.460029   1.000000
    8        4.062547   1.000000
    9        4.491287   1.000000
   10        4.491287   1.000000
   11        4.632368   1.000000
   12        4.679391   1.000000
   13        4.755205   1.000000
   14        5.042143   1.000000
   15        5.257288   1.000000
   16        5.319367   1.000000
   17        5.319367   1.000000
   18        5.358600   1.000000
   19        5.716334   1.000000
   20        5.808308   1.000000
   21        5.808308   1.000000
   22        6.160014   1.000000
   23       10.460587  -0.000000
   24       10.460587  -0.000000
   25       14.442927   0.000000
   26       14.442927   0.000000
   27       16.461045   0.000000
   28       16.461045   0.000000
   29       19.291021   0.000000
   30       19.353455   0.000000
 
  0.4444444E+00  0.1111111E+00  0.1111111E+00  0.3292181E-01
    1        0.628010   1.000000
    2        1.611748   1.000000
    3        3.397481   1.000000
    4        3.397481   1.000000
    5        3.639710   1.000000
    6        3.670131   1.000000
    7        3.670131   1.000000
    8        3.857270   1.000000
    9        4.095830   1.000000
   10        4.095830   1.000000
   11        4.560675   1.000000
   12        4.594867   1.000000
   13        4.845484   1.000000
   14        5.044950   1.000000
   15        5.176067   1.000000
   16        5.176067   1.000000
   17        5.184991   1.000000
   18        5.479423   1.000000
   19        5.539906   1.000000
   20        5.604012   1.000000
   21        5.799584   1.000000
   22        5.799584   1.000000
   23       11.558821  -0.000000
   24       11.558821  -0.000000
   25       13.027620   0.000000
   26       13.027620   0.000000
   27       17.176188   0.000000
   28       17.176188   0.000000
   29       18.172760   0.000000
   30       18.172760   0.000000
 
  0.2222222E+00  0.2222222E+00  0.1111111E+00  0.3292181E-01
    1       -0.554669   1.000000
    2        2.887775   1.000000
    3        2.887775   1.000000
    4        3.074974   1.000000
    5        3.370759   1.000000
    6        3.377948   1.000000
    7        3.377948   1.000000
    8        4.180824   1.000000
    9        4.570578   1.000000
   10        4.587897   1.000000
   11        4.714706   1.000000
   12        4.714706   1.000000
   13        4.743525   1.000000
   14        5.104952   1.000000
   15        5.295116   1.000000
   16        5.330833   1.000000
   17        5.353609   1.000000
   18        5.353609   1.000000
   19        5.782094   1.000000
   20        5.782094   1.000000
   21        5.783228   1.000000
   22        7.918604  -0.000223
   23        7.918604  -0.000223
   24       10.094477  -0.000000
   25       14.178256   0.000000
   26       16.276044   0.000000
   27       16.614624   0.000000
   28       16.614624   0.000000
   29       18.510021   0.000000
   30       18.510021   0.000000
 
  0.3333333E+00  0.2222222E+00  0.1111111E+00  0.6584362E-01
    1        0.116614   1.000000
    2        2.609884   1.000000
    3        3.160257   1.000000
    4        3.276549   1.000000
    5        3.504862   1.000000
    6        3.531882   1.000000
    7        3.543908   1.000000
    8        4.066636   1.000000
    9        4.309404   1.000000
   10        4.430160   1.000000
   11        4.454488   1.000000
   12        4.573860   1.000000
   13        4.668960   1.000000
   14        5.094230   1.000000
   15        5.162386   1.000000
   16        5.191442   1.000000
   17        5.236559   1.000000
   18        5.435951   1.000000
   19        5.687198   1.000000
   20        5.729261   1.000000
   21        5.729869   1.000000
   22        6.684711   1.000013
   23        8.753222  -0.000000
   24       10.895287  -0.000000
   25       12.596349  -0.000000
   26       14.956787   0.000000
   27       16.787640   0.000000
   28       17.424239   0.000000
   29       19.054286   0.000000
   30       19.830381   0.000000
 
  0.4444444E+00  0.2222222E+00  0.1111111E+00  0.6584362E-01
    1        0.982233   1.000000
    2        1.905760   1.000000
    3        3.419241   1.000000
    4        3.489066   1.000000
    5        3.576346   1.000000
    6        3.660201   1.000000
    7        3.716056   1.000000
    8        3.902531   1.000000
    9        4.063728   1.000000
   10        4.158964   1.000000
   11        4.392648   1.000000
   12        4.489974   1.000000
   13        4.792303   1.000000
   14        4.962195   1.000000
   15        5.088454   1.000000
   16        5.111479   1.000000
   17        5.245190   1.000000
   18        5.504677   1.000000
   19        5.631303   1.000000
   20        5.697600   1.000000
   21        5.697957   1.000000
   22        5.961963   1.000000
   23        9.727730  -0.000000
   24       10.799501  -0.000000
   25       12.361832  -0.000000
   26       13.516705   0.000000
   27       17.550301   0.000000
   28       18.486904   0.000000
   29       18.565984   0.000000
   30       19.775935   0.000000
 
  0.3333333E+00  0.3333333E+00  0.1111111E+00  0.3292181E-01
    1        0.740389   1.000000
    2        2.916486   1.000000
    3        2.916486   1.000000
    4        3.330999   1.000000
    5        3.637338   1.000000
    6        3.692553   1.000000
    7        3.692553   1.000000
    8        4.040318   1.000000
    9        4.186396   1.000000
   10        4.186396   1.000000
   11        4.320277   1.000000
   12        4.518698   1.000000
   13        4.686332   1.000000
   14        5.050733   1.000000
   15        5.076530   1.000000
   16        5.076530   1.000000
   17        5.090960   1.000000
   18        5.605612   1.000000
   19        5.605612   1.000000
   20        5.637900   1.000000
   21        5.645240   1.000000
   22        7.356758   0.474717
   23        7.356758   0.474717
   24       10.484936  -0.000000
   25       12.144089  -0.000000
   26       15.746935   0.000000
   27       15.746935   0.000000
   28       17.351843   0.000000
   29       19.559386   0.000000
   30       20.540260   0.000000
 
  0.4444444E+00  0.3333333E+00  0.1111111E+00  0.6584362E-01
    1        1.522531   1.000000
    2        2.320982   1.000000
    3        3.177039   1.000000
    4        3.310086   1.000000
    5        3.777813   1.000000
    6        3.838136   1.000000
    7        3.847521   1.000000
    8        3.965912   1.000000
    9        4.067579   1.000000
   10        4.187139   1.000000
   11        4.246029   1.000000
   12        4.404064   1.000000
   13        4.752223   1.000000
   14        4.893605   1.000000
   15        4.958178   1.000000
   16        4.980791   1.000000
   17        5.200243   1.000000
   18        5.413985   1.000000
   19        5.554622   1.000000
   20        5.567672   1.000000
   21        5.949881   1.000000
   22        6.448833   1.000000
   23        8.185711  -0.000000
   24        9.234365  -0.000000
   25       13.066674   0.000000
   26       14.292239   0.000000
   27       16.788763   0.000000
   28       18.062326   0.000000
   29       18.172070   0.000000
   30       19.249523   0.000000
 
  0.4444444E+00  0.4444444E+00  0.1111111E+00  0.3292181E-01
    1        2.154872   1.000000
    2        2.741507   1.000000
    3        2.741507   1.000000
    4        3.070672   1.000000
    5        3.983170   1.000000
    6        4.013140   1.000000
    7        4.013140   1.000000
    8        4.019271   1.000000
    9        4.138584   1.000000
   10        4.138584   1.000000
   11        4.155094   1.000000
   12        4.305031   1.000000
   13        4.737606   1.000000
   14        4.826984   1.000000
   15        4.826984   1.000000
   16        4.841973   1.000000
   17        5.232032   1.000000
   18        5.378430   1.000000
   19        5.378430   1.000000
   20        5.440935   1.000000
   21        6.391846   1.000000
   22        7.081039   1.033469
   23        7.081039   1.033469
   24        7.977587  -0.000043
   25       14.075032   0.000000
   26       15.317600   0.000000
   27       15.317600   0.000000
   28       16.575594   0.000000
   29       19.053905   0.000000
   30       20.191541   0.000000
 
  0.2222222E+00  0.2222222E+00  0.2222222E+00  0.1097394E-01
    1       -0.153945   1.000000
    2        3.018101   1.000000
    3        3.018101   1.000000
    4        3.018101   1.000000
    5        3.479795   1.000000
    6        3.479795   1.000000
    7        3.479795   1.000000
    8        4.172595   1.000000
    9        4.555756   1.000000
   10        4.555756   1.000000
   11        4.555756   1.000000
   12        4.570034   1.000000
   13        4.570034   1.000000
   14        5.157114   1.000000
   15        5.157114   1.000000
   16        5.157114   1.000000
   17        5.242678   1.000000
   18        5.242678   1.000000
   19        5.812367   1.000000
   20        5.812367   1.000000
   21        5.812367   1.000000
   22        8.410854  -0.000000
   23        8.410854  -0.000000
   24        8.410854  -0.000000
   25       14.702824   0.000000
   26       14.702824   0.000000
   27       14.702824   0.000000
   28       18.845970   0.000000
   29       18.845970   0.000000
   30       18.845970   0.000000
 
  0.3333333E+00  0.2222222E+00  0.2222222E+00  0.3292181E-01
    1        0.481564   1.000000
    2        2.738391   1.000000
    3        3.163017   1.000000
    4        3.163017   1.000000
    5        3.635038   1.000000
    6        3.635038   1.000000
    7        3.655606   1.000000
    8        4.117670   1.000000
    9        4.356310   1.000000
   10        4.356310   1.000000
   11        4.379038   1.000000
   12        4.552371   1.000000
   13        4.590893   1.000000
   14        4.966072   1.000000
   15        5.033065   1.000000
   16        5.033065   1.000000
   17        5.258963   1.000000
   18        5.409121   1.000000
   19        5.767232   1.000000
   20        5.767232   1.000000
   21        5.787622   1.000000
   22        7.008456   1.018044
   23        9.091798  -0.000000
   24        9.091798  -0.000000
   25       13.082929   0.000000
   26       13.082929   0.000000
   27       15.498132   0.000000
   28       19.321842   0.000000
   29       19.418623   0.000000
   30       19.418623   0.000000
 
  0.4444444E+00  0.2222222E+00  0.2222222E+00  0.3292181E-01
    1        1.284337   1.000000
    2        2.113046   1.000000
    3        3.266548   1.000000
    4        3.266548   1.000000
    5        3.732317   1.000000
    6        3.732317   1.000000
    7        3.847167   1.000000
    8        4.006442   1.000000
    9        4.262724   1.000000
   10        4.262724   1.000000
   11        4.356842   1.000000
   12        4.459885   1.000000
   13        4.666041   1.000000
   14        4.794925   1.000000
   15        4.946453   1.000000
   16        4.946453   1.000000
   17        5.498311   1.000000
   18        5.570940   1.000000
   19        5.703461   1.000000
   20        5.717498   1.000000
   21        5.717498   1.000000
   22        6.051522   1.000000
   23        9.786810  -0.000000
   24        9.786810  -0.000000
   25       11.916466  -0.000000
   26       11.916466  -0.000000
   27       16.543994   0.000000
   28       17.821062   0.000000
   29       20.225067   0.000000
   30       20.225067   0.000000
 
  0.3333333E+00  0.3333333E+00  0.2222222E+00  0.3292181E-01
    1        1.044971   1.000000
    2        2.872419   1.000000
    3        2.872419   1.000000
    4        3.119290   1.000000
    5        3.796815   1.000000
    6        3.848150   1.000000
    7        3.848150   1.000000