unknown system                          
   1.00000000000000     
     3.635000    0.000000    0.000000
     0.000000    3.635000    0.000000
     0.000000    0.000000    3.635000
   Cu
     4
Direct
  0.000000  0.000000  0.000000
  0.500000  0.500000  0.000000
  0.500000  0.000000  0.500000
  0.000000  0.500000  0.500000
 
   28   28   28
  841.98      779.48      616.81      413.36      230.46      105.11      42.187      21.411      13.959      10.329    
  8.9019      7.8909      7.3457      7.5961      7.8914      7.5961      7.3457      7.8909      8.9019      10.329    
  13.959      21.411      42.187      105.11      230.46      413.36      616.81      779.48      779.48      721.26    
  569.81      380.67      211.25      96.113      39.293      20.864      13.755      10.275      8.8629      7.8284    
  7.2183      7.3597      7.5961      7.3597      7.2183      7.8284      8.8629      10.275      13.755      20.864    
  39.293      96.113      211.25      380.67      569.81      721.26      616.81      569.81      447.79      296.23    
  162.27      73.786      32.466      19.454      13.195      10.152      8.8579      7.8839      7.2454      7.2183    
  7.3457      7.2183      7.2454      7.8839      8.8579      10.152      13.195      19.454      32.466      73.786    
  162.27      296.23      447.79      569.81      413.36      380.67      296.23      192.80      104.06      48.851    
  25.577      17.441      12.416      10.037      9.0299      8.3327      7.8839      7.8284      7.8909      7.8284    
  7.8839      8.3327      9.0299      10.037      12.416      17.441      25.577      48.851      104.06      192.80    
  296.23      380.67      230.46      211.25      162.27      104.06      57.053      30.861      20.826      15.186    
  11.616      9.9936      9.3647      9.0299      8.8579      8.8629      8.9019      8.8629      8.8579      9.0299    
  9.3647      9.9936      11.616      15.186      20.826      30.861      57.053      104.06      162.27      211.25    
  105.11      96.113      73.786      48.851      30.861      22.041      16.952      13.165      11.035      10.185    
  9.9936      10.037      10.152      10.275      10.329      10.275      10.152      10.037      9.9936      10.185    
  11.035      13.165      16.952      22.041      30.861      48.851      73.786      96.113      42.187      39.293    
  32.466      25.577      20.826      16.952      13.780      11.786      10.971      11.035      11.616      12.416    
  13.195      13.755      13.959      13.755      13.195      12.416      11.616      11.035      10.971      11.786    
  13.780      16.952      20.826      25.577      32.466      39.293      21.411      20.864      19.454      17.441    
  15.186      13.165      11.786      11.299      11.786      13.165      15.186      17.441      19.454      20.864    
  21.411      20.864      19.454      17.441      15.186      13.165      11.786      11.299      11.786      13.165    
  15.186      17.441      19.454      20.864      13.959      13.755      13.195      12.416      11.616      11.035    
  10.971      11.786      13.780      16.952      20.826      25.577      32.466      39.293      42.187      39.293    
  32.466      25.577      20.826      16.952      13.780      11.786      10.971      11.035      11.616      12.416    
  13.195      13.755      10.329      10.275      10.152      10.037      9.9936      10.185      11.035      13.165    
  16.952      22.041      30.861      48.851      73.786      96.113      105.11      96.113      73.786      48.851    
  30.861      22.041      16.952      13.165      11.035      10.185      9.9936      10.037      10.152      10.275    
  8.9019      8.8629      8.8579      9.0299      9.3647      9.9936      11.616      15.186      20.826      30.861    
  57.053      104.06      162.27      211.25      230.46      211.25      162.27      104.06      57.053      30.861    
  20.826      15.186      11.616      9.9936      9.3647      9.0299      8.8579      8.8629      7.8909      7.8284    
  7.8839      8.3327      9.0299      10.037      12.416      17.441      25.577      48.851      104.06      192.80    
  296.23      380.67      413.36      380.67      296.23      192.80      104.06      48.851      25.577      17.441    
  12.416      10.037      9.0299      8.3327      7.8839      7.8284      7.3457      7.2183      7.2454      7.8839    
  8.8579      10.152      13.195      19.454      32.466      73.786      162.27      296.23      447.79      569.81    
  616.81      569.81      447.79      296.23      162.27      73.786      32.466      19.454      13.195      10.152    
  8.8579      7.8839      7.2454      7.2183      7.5961      7.3597      7.2183      7.8284      8.8629      10.275    
  13.755      20.864      39.293      96.113      211.25      380.67      569.81      721.26      779.48      721.26    
  569.81      380.67      211.25      96.113      39.293      20.864      13.755      10.275      8.8629      7.8284    
  7.2183      7.3597      7.8914      7.5961      7.3457      7.8909      8.9019      10.329      13.959      21.411    
  42.187      105.11      230.46      413.36      616.81      779.48      841.98      779.48      616.81      413.36    
  230.46      105.11      42.187      21.411      13.959      10.329      8.9019      7.8909      7.3457      7.5961    
  7.5961      7.3597      7.2183      7.8284      8.8629      10.275      13.755      20.864      39.293      96.113    
  211.25      380.67      569.81      721.26      779.48      721.26      569.81      380.67      211.25      96.113    
  39.293      20.864      13.755      10.275      8.8629      7.8284      7.2183      7.3597      7.3457      7.2183    
  7.2454      7.8839      8.8579      10.152      13.195      19.454      32.466      73.786      162.27      296.23    
  447.79      569.81      616.81      569.81      447.79      296.23      162.27      73.786      32.466      19.454    
  13.195      10.152      8.8579      7.8839      7.2454      7.2183      7.8909      7.8284      7.8839      8.3327    
  9.0299      10.037      12.416      17.441      25.577      48.851      104.06      192.80      296.23      380.67    
  413.36      380.67      296.23      192.80      104.06      48.851      25.577      17.441      12.416      10.037    
  9.0299      8.3327      7.8839      7.8284      8.9019      8.8629      8.8579      9.0299      9.3647      9.9936    
  11.616      15.186      20.826      30.861      57.053      104.06      162.27      211.25      230.46      211.25    
  162.27      104.06      57.053      30.861      20.826      15.186      11.616      9.9936      9.3647      9.0299    
  8.8579      8.8629      10.329      10.275      10.152      10.037      9.9936      10.185      11.035      13.165    
  16.952      22.041      30.861      48.851      73.786      96.113      105.11      96.113      73.786      48.851    
  30.861      22.041      16.952      13.165      11.035      10.185      9.9936      10.037      10.152      10.275    
  13.959      13.755      13.195      12.416      11.616      11.035      10.971      11.786      13.780      16.952    
  20.826      25.577      32.466      39.293      42.187      39.293      32.466      25.577      20.826      16.952    
  13.780      11.786      10.971      11.035      11.616      12.416      13.195      13.755      21.411      20.864    
  19.454      17.441      15.186      13.165      11.786      11.299      11.786      13.165      15.186      17.441    
  19.454      20.864      21.411      20.864      19.454      17.441      15.186      13.165      11.786      11.299    
  11.786      13.165      15.186      17.441      19.454      20.864      42.187      39.293      32.466      25.577    
  20.826      16.952      13.780      11.786      10.971      11.035      11.616      12.416      13.195      13.755    
  13.959      13.755      13.195      12.416      11.616      11.035      10.971      11.786      13.780      16.952    
  20.826      25.577      32.466      39.293      105.11      96.113      73.786      48.851      30.861      22.041    
  16.952      13.165      11.035      10.185      9.9936      10.037      10.152      10.275      10.329      10.275    
  10.152      10.037      9.9936      10.185      11.035      13.165      16.952      22.041      30.861      48.851    
  73.786      96.113      230.46      211.25      162.27      104.06      57.053      30.861      20.826      15.186    
  11.616      9.9936      9.3647      9.0299      8.8579      8.8629      8.9019      8.8629      8.8579      9.0299    
  9.3647      9.9936      11.616      15.186      20.826      30.861      57.053      104.06      162.27      211.25    
  413.36      380.67      296.23      192.80      104.06      48.851      25.577      17.441      12.416      10.037    
  9.0299      8.3327      7.8839      7.8284      7.8909      7.8284      7.8839      8.3327      9.0299      10.037    
  12.416      17.441      25.577      48.851      104.06      192.80      296.23      380.67      616.81      569.81    
  447.79      296.23      162.27      73.786      32.466      19.454      13.195      10.152      8.8579      7.8839    
  7.2454      7.2183      7.3457      7.2183      7.2454      7.8839      8.8579      10.152      13.195      19.454    
  32.466      73.786      162.27      296.23      447.79      569.81      779.48      721.26      569.81      380.67    
  211.25      96.113      39.293      20.864      13.755      10.275      8.8629      7.8284      7.2183      7.3597    
  7.5961      7.3597      7.2183      7.8284      8.8629      10.275      13.755      20.864      39.293      96.113    
  211.25      380.67      569.81      721.26      779.48      721.26      569.81      380.67      211.25      96.113    
  39.293      20.864      13.755      10.275      8.8629      7.8284      7.2183      7.3597      7.5961      7.3597    
  7.2183      7.8284      8.8629      10.275      13.755      20.864      39.293      96.113      211.25      380.67    
  569.81      721.26      721.26      667.05      526.09      350.34      193.54      87.926      36.719      20.358    
  13.560      10.231      8.8422      7.7942      7.1309      7.1762      7.3597      7.1762      7.1309      7.7942    
  8.8422      10.231      13.560      20.358      36.719      87.926      193.54      350.34      526.09      667.05    
  569.81      526.09      412.67      272.11      148.47      67.673      30.677      19.004      13.024      10.130    
  8.8715      7.9000      7.2287      7.1309      7.2183      7.1309      7.2287      7.9000      8.8715      10.130    
  13.024      19.004      30.677      67.673      148.47      272.11      412.67      526.09      380.67      350.34    
  272.11      176.59      95.195      45.235      24.604      17.046      12.277      10.030      9.0621      8.3719    
  7.9000      7.7942      7.8284      7.7942      7.9000      8.3719      9.0621      10.030      12.277      17.046    
  24.604      45.235      95.195      176.59      272.11      350.34      211.25      193.54      148.47      95.195    
  52.593      29.263      20.273      14.874      11.509      9.9887      9.3927      9.0621      8.8715      8.8422    
  8.8629      8.8422      8.8715      9.0621      9.3927      9.9887      11.509      14.874      20.273      29.263    
  52.593      95.195      148.47      193.54      96.113      87.926      67.673      45.235      29.263      21.416    
  16.534      12.943      10.949      10.162      9.9887      10.030      10.130      10.231      10.275      10.231    
  10.130      10.030      9.9887      10.162      10.949      12.943      16.534      21.416      29.263      45.235    
  67.673      87.926      39.293      36.719      30.677      24.604      20.273      16.534      13.513      11.635    
  10.878      10.949      11.509      12.277      13.024      13.560      13.755      13.560      13.024      12.277    
  11.509      10.949      10.878      11.635      13.513      16.534      20.273      24.604      30.677      36.719    
  20.864      20.358      19.004      17.046      14.874      12.943      11.635      11.175      11.635      12.943    
  14.874      17.046      19.004      20.358      20.864      20.358      19.004      17.046      14.874      12.943    
  11.635      11.175      11.635      12.943      14.874      17.046      19.004      20.358      13.755      13.560    
  13.024      12.277      11.509      10.949      10.878      11.635      13.513      16.534      20.273      24.604    
  30.677      36.719      39.293      36.719      30.677      24.604      20.273      16.534      13.513      11.635    
  10.878      10.949      11.509      12.277      13.024      13.560      10.275      10.231      10.130      10.030    
  9.9887      10.162      10.949      12.943      16.534      21.416      29.263      45.235      67.673      87.926    
  96.113      87.926      67.673      45.235      29.263      21.416      16.534      12.943      10.949      10.162    
  9.9887      10.030      10.130      10.231      8.8629      8.8422      8.8715      9.0621      9.3927      9.9887    
  11.509      14.874      20.273      29.263      52.593      95.195      148.47      193.54      211.25      193.54    
  148.47      95.195      52.593      29.263      20.273      14.874      11.509      9.9887      9.3927      9.0621    
  8.8715      8.8422      7.8284      7.7942      7.9000      8.3719      9.0621      10.030      12.277      17.046    
  24.604      45.235      95.195      176.59      272.11      350.34      380.67      350.34      272.11      176.59    
  95.195      45.235      24.604      17.046      12.277      10.030      9.0621      8.3719      7.9000      7.7942    
  7.2183      7.1309      7.2287      7.9000      8.8715      10.130      13.024      19.004      30.677      67.673    
  148.47      272.11      412.67      526.09      569.81      526.09      412.67      272.11      148.47      67.673    
  30.677      19.004      13.024      10.130      8.8715      7.9000      7.2287      7.1309      7.3597      7.1762    
  7.1309      7.7942      8.8422      10.231      13.560      20.358      36.719      87.926      193.54      350.34    
  526.09      667.05      721.26      667.05      526.09      350.34      193.54      87.926      36.719      20.358    
  13.560      10.231      8.8422      7.7942      7.1309      7.1762      7.5961      7.3597      7.2183      7.8284    
  8.8629      10.275      13.755      20.864      39.293      96.113      211.25      380.67      569.81      721.26    
  779.48      721.26      569.81      380.67      211.25      96.113      39.293      20.864      13.755      10.275    
  8.8629      7.8284      7.2183      7.3597      7.3597      7.1762      7.1309      7.7942      8.8422      10.231    
  13.560      20.358      36.719      87.926      193.54      350.34      526.09      667.05      721.26      667.05    
  526.09      350.34      193.54      87.926      36.719      20.358      13.560      10.231      8.8422      7.7942    
  7.1309      7.1762      7.2183      7.1309      7.2287      7.9000      8.8715      10.130      13.024      19.004    
  30.677      67.673      148.47      272.11      412.67      526.09      569.81      526.09      412.67      272.11    
  148.47      67.673      30.677      19.004      13.024      10.130      8.8715      7.9000      7.2287      7.1309    
  7.8284      7.7942      7.9000      8.3719      9.0621      10.030      12.277      17.046      24.604      45.235    
  95.195      176.59      272.11      350.34      380.67      350.34      272.11      176.59      95.195      45.235    
  24.604      17.046      12.277      10.030      9.0621      8.3719      7.9000      7.7942      8.8629      8.8422    
  8.8715      9.0621      9.3927      9.9887      11.509      14.874      20.273      29.263      52.593      95.195    
  148.47      193.54      211.25      193.54      148.47      95.195      52.593      29.263      20.273      14.874    
  11.509      9.9887      9.3927      9.0621      8.8715      8.8422      10.275      10.231      10.130      10.030    
  9.9887      10.162      10.949      12.943      16.534      21.416      29.263      45.235      67.673      87.926    
  96.113      87.926      67.673      45.235      29.263      21.416      16.534      12.943      10.949      10.162    
  9.9887      10.030      10.130      10.231      13.755      13.560      13.024      12.277      11.509      10.949    
  10.878      11.635      13.513      16.534      20.273      24.604      30.677      36.719      39.293      36.719    
  30.677      24.604      20.273      16.534      13.513      11.635      10.878      10.949      11.509      12.277    
  13.024      13.560      20.864      20.358      19.004      17.046      14.874      12.943      11.635      11.175    
  11.635      12.943      14.874      17.046      19.004      20.358      20.864      20.358      19.004      17.046    
  14.874      12.943      11.635      11.175      11.635      12.943      14.874      17.046      19.004      20.358    
  39.293      36.719      30.677      24.604      20.273      16.534      13.513      11.635      10.878      10.949    
  11.509      12.277      13.024      13.560      13.755      13.560      13.024      12.277      11.509      10.949    
  10.878      11.635      13.513      16.534      20.273      24.604      30.677      36.719      96.113      87.926    
  67.673      45.235      29.263      21.416      16.534      12.943      10.949      10.162      9.9887      10.030    
  10.130      10.231      10.275      10.231      10.130      10.030      9.9887      10.162      10.949      12.943    
  16.534      21.416      29.263      45.235      67.673      87.926      211.25      193.54      148.47      95.195    
  52.593      29.263      20.273      14.874      11.509      9.9887      9.3927      9.0621      8.8715      8.8422    
  8.8629      8.8422      8.8715      9.0621      9.3927      9.9887      11.509      14.874      20.273      29.263    
  52.593      95.195      148.47      193.54      380.67      350.34      272.11      176.59      95.195      45.235    
  24.604      17.046      12.277      10.030      9.0621      8.3719      7.9000      7.7942      7.8284      7.7942    
  7.9000      8.3719      9.0621      10.030      12.277      17.046      24.604      45.235      95.195      176.59    
  272.11      350.34      569.81      526.09      412.67      272.11      148.47      67.673      30.677      19.004    
  13.024      10.130      8.8715      7.9000      7.2287      7.1309      7.2183      7.1309      7.2287      7.9000    
  8.8715      10.130      13.024      19.004      30.677      67.673      148.47      272.11      412.67      526.09    
  721.26      667.05      526.09      350.34      193.54      87.926      36.719      20.358      13.560      10.231    
  8.8422      7.7942      7.1309      7.1762      7.3597      7.1762      7.1309      7.7942      8.8422      10.231    
  13.560      20.358      36.719      87.926      193.54      350.34      526.09      667.05      616.81      569.81    
  447.79      296.23      162.27      73.786      32.466      19.454      13.195      10.152      8.8579      7.8839    
  7.2454      7.2183      7.3457      7.2183      7.2454      7.8839      8.8579      10.152      13.195      19.454    
  32.466      73.786      162.27      296.23      447.79      569.81      569.81      526.09      412.67      272.11    
  148.47      67.673      30.677      19.004      13.024      10.130      8.8715      7.9000      7.2287      7.1309    
  7.2183      7.1309      7.2287      7.9000      8.8715      10.130      13.024      19.004      30.677      67.673    
  148.47      272.11      412.67      526.09      447.79      412.67      321.84      210.16      113.63      52.725    
  26.515      17.751      12.552      10.073      8.9594      8.0795      7.4250      7.2287      7.2454      7.2287    
  7.4250      8.0795      8.9594      10.073      12.552      17.751      26.515      52.725      113.63      210.16    
  321.84      412.67      296.23      272.11      210.16      135.38      73.133      36.591      22.295      15.967    
  11.897      10.007      9.1677      8.5460      8.0795      7.9000      7.8839      7.9000      8.0795      8.5460    
  9.1677      10.007      11.897      15.967      22.295      36.591      73.133      135.38      210.16      272.11    
  162.27      148.47      113.63      73.133      41.816      25.527      18.749      14.038      11.225      9.9721    
  9.4680      9.1677      8.9594      8.8715      8.8579      8.8715      8.9594      9.1677      9.4680      9.9721    
  11.225      14.038      18.749      25.527      41.816      73.133      113.63      148.47      73.786      67.673    
  52.725      36.591      25.527      19.749      15.412      12.364      10.730      10.103      9.9721      10.007    
  10.073      10.130      10.152      10.130      10.073      10.007      9.9721      10.103      10.730      12.364    
  15.412      19.749      25.527      36.591      52.725      67.673      32.466      30.677      26.515      22.295    
  18.749      15.412      12.813      11.249      10.644      10.730      11.225      11.897      12.552      13.024    
  13.195      13.024      12.552      11.897      11.225      10.730      10.644      11.249      12.813      15.412    
  18.749      22.295      26.515      30.677      19.454      19.004      17.751      15.967      14.038      12.364    
  11.249      10.860      11.249      12.364      14.038      15.967      17.751      19.004      19.454      19.004    
  17.751      15.967      14.038      12.364      11.249      10.860      11.249      12.364      14.038      15.967    
  17.751      19.004      13.195      13.024      12.552      11.897      11.225      10.730      10.644      11.249    
  12.813      15.412      18.749      22.295      26.515      30.677      32.466      30.677      26.515      22.295    
  18.749      15.412      12.813      11.249      10.644      10.730      11.225      11.897      12.552      13.024    
  10.152      10.130      10.073      10.007      9.9721      10.103      10.730      12.364      15.412      19.749    
  25.527      36.591      52.725      67.673      73.786      67.673      52.725      36.591      25.527      19.749    
  15.412      12.364      10.730      10.103      9.9721      10.007      10.073      10.130      8.8579      8.8715    
  8.9594      9.1677      9.4680      9.9721      11.225      14.038      18.749      25.527      41.816      73.133    
  113.63      148.47      162.27      148.47      113.63      73.133      41.816      25.527      18.749      14.038    
  11.225      9.9721      9.4680      9.1677      8.9594      8.8715      7.8839      7.9000      8.0795      8.5460    
  9.1677      10.007      11.897      15.967      22.295      36.591      73.133      135.38      210.16      272.11    
  296.23      272.11      210.16      135.38      73.133      36.591      22.295      15.967      11.897      10.007    
  9.1677      8.5460      8.0795      7.9000      7.2454      7.2287      7.4250      8.0795      8.9594      10.073    
  12.552      17.751      26.515      52.725      113.63      210.16      321.84      412.67      447.79      412.67    
  321.84      210.16      113.63      52.725      26.515      17.751      12.552      10.073      8.9594      8.0795    
  7.4250      7.2287      7.2183      7.1309      7.2287      7.9000      8.8715      10.130      13.024      19.004    
  30.677      67.673      148.47      272.11      412.67      526.09      569.81      526.09      412.67      272.11    
  148.47      67.673      30.677      19.004      13.024      10.130      8.8715      7.9000      7.2287      7.1309    
  7.3457      7.2183      7.2454      7.8839      8.8579      10.152      13.195      19.454      32.466      73.786    
  162.27      296.23      447.79      569.81      616.81      569.81      447.79      296.23      162.27      73.786    
  32.466      19.454      13.195      10.152      8.8579      7.8839      7.2454      7.2183      7.2183      7.1309    
  7.2287      7.9000      8.8715      10.130      13.024      19.004      30.677      67.673      148.47      272.11    
  412.67      526.09      569.81      526.09      412.67      272.11      148.47      67.673      30.677      19.004    
  13.024      10.130      8.8715      7.9000      7.2287      7.1309      7.2454      7.2287      7.4250      8.0795    
  8.9594      10.073      12.552      17.751      26.515      52.725      113.63      210.16      321.84      412.67    
  447.79      412.67      321.84      210.16      113.63      52.725      26.515      17.751      12.552      10.073    
  8.9594      8.0795      7.4250      7.2287      7.8839      7.9000      8.0795      8.5460      9.1677      10.007    
  11.897      15.967      22.295      36.591      73.133      135.38      210.16      272.11      296.23      272.11    
  210.16      135.38      73.133      36.591      22.295      15.967      11.897      10.007      9.1677      8.5460    
  8.0795      7.9000      8.8579      8.8715      8.9594      9.1677      9.4680      9.9721      11.225      14.038    
  18.749      25.527      41.816      73.133      113.63      148.47      162.27      148.47      113.63      73.133    
  41.816      25.527      18.749      14.038      11.225      9.9721      9.4680      9.1677      8.9594      8.8715    
  10.152      10.130      10.073      10.007      9.9721      10.103      10.730      12.364      15.412      19.749    
  25.527      36.591      52.725      67.673      73.786      67.673      52.725      36.591      25.527      19.749    
  15.412      12.364      10.730      10.103      9.9721      10.007      10.073      10.130      13.195      13.024    
  12.552      11.897      11.225      10.730      10.644      11.249      12.813      15.412      18.749      22.295    
  26.515      30.677      32.466      30.677      26.515      22.295      18.749      15.412      12.813      11.249    
  10.644      10.730      11.225      11.897      12.552      13.024      19.454      19.004      17.751      15.967    
  14.038      12.364      11.249      10.860      11.249      12.364      14.038      15.967      17.751      19.004    
  19.454      19.004      17.751      15.967      14.038      12.364      11.249      10.860      11.249      12.364    
  14.038      15.967      17.751      19.004      32.466      30.677      26.515      22.295      18.749      15.412    
  12.813      11.249      10.644      10.730      11.225      11.897      12.552      13.024      13.195      13.024    
  12.552      11.897      11.225      10.730      10.644      11.249      12.813      15.412      18.749      22.295    
  26.515      30.677      73.786      67.673      52.725      36.591      25.527      19.749      15.412      12.364    
  10.730      10.103      9.9721      10.007      10.073      10.130      10.152      10.130      10.073      10.007    
  9.9721      10.103      10.730      12.364      15.412      19.749      25.527      36.591      52.725      67.673    
  162.27      148.47      113.63      73.133      41.816      25.527      18.749      14.038      11.225      9.9721    
  9.4680      9.1677      8.9594      8.8715      8.8579      8.8715      8.9594      9.1677      9.4680      9.9721    
  11.225      14.038      18.749      25.527      41.816      73.133      113.63      148.47      296.23      272.11    
  210.16      135.38      73.133      36.591      22.295      15.967      11.897      10.007      9.1677      8.5460    
  8.0795      7.9000      7.8839      7.9000      8.0795      8.5460      9.1677      10.007      11.897      15.967    
  22.295      36.591      73.133      135.38      210.16      272.11      447.79      412.67      321.84      210.16    
  113.63      52.725      26.515      17.751      12.552      10.073      8.9594      8.0795      7.4250      7.2287    
  7.2454      7.2287      7.4250      8.0795      8.9594      10.073      12.552      17.751      26.515      52.725    
  113.63      210.16      321.84      412.67      569.81      526.09      412.67      272.11      148.47      67.673    
  30.677      19.004      13.024      10.130      8.8715      7.9000      7.2287      7.1309      7.2183      7.1309    
  7.2287      7.9000      8.8715      10.130      13.024      19.004      30.677      67.673      148.47      272.11    
  412.67      526.09      413.36      380.67      296.23      192.80      104.06      48.851      25.577      17.441    
  12.416      10.037      9.0299      8.3327      7.8839      7.8284      7.8909      7.8284      7.8839      8.3327    
  9.0299      10.037      12.416      17.441      25.577      48.851      104.06      192.80      296.23      380.67    
  380.67      350.34      272.11      176.59      95.195      45.235      24.604      17.046      12.277      10.030    
  9.0621      8.3719      7.9000      7.7942      7.8284      7.7942      7.9000      8.3719      9.0621      10.030    
  12.277      17.046      24.604      45.235      95.195      176.59      272.11      350.34      296.23      272.11    
  210.16      135.38      73.133      36.591      22.295      15.967      11.897      10.007      9.1677      8.5460    
  8.0795      7.9000      7.8839      7.9000      8.0795      8.5460      9.1677      10.007      11.897      15.967    
  22.295      36.591      73.133      135.38      210.16      272.11      192.80      176.59      135.38      86.861    
  48.399      27.663      19.573      14.479      11.378      9.9692      9.3440      8.8961      8.5460      8.3719    