unknown system                          
   1.00000000000000     
     3.635000    0.000000    0.000000
     0.000000    3.635000    0.000000
     0.000000    0.000000    3.635000
   Cu
     4
Direct
  0.000000  0.000000  0.000000
  0.500000  0.500000  0.000000
  0.500000  0.000000  0.500000
  0.000000  0.500000  0.500000
 
   28   28   28
 0.84198297566E+03 0.77947888888E+03 0.61680524727E+03 0.41335854342E+03 0.23045560548E+03
 0.10510556341E+03 0.42187316489E+02 0.21410512025E+02 0.13958848258E+02 0.10328963303E+02
 0.89018946516E+01 0.78908516438E+01 0.73457424726E+01 0.75960679037E+01 0.78913631802E+01
 0.75960679037E+01 0.73457424726E+01 0.78908516438E+01 0.89018946516E+01 0.10328963303E+02
 0.13958848258E+02 0.21410512025E+02 0.42187316489E+02 0.10510556341E+03 0.23045560548E+03
 0.41335854342E+03 0.61680524727E+03 0.77947888888E+03 0.77947888888E+03 0.72126174206E+03
 0.56981053431E+03 0.38066691531E+03 0.21124999799E+03 0.96112847076E+02 0.39292586240E+02
 0.20864099636E+02 0.13755151816E+02 0.10274630593E+02 0.88629302065E+01 0.78284097391E+01
 0.72182704365E+01 0.73597097566E+01 0.75960679037E+01 0.73597097566E+01 0.72182704365E+01
 0.78284097391E+01 0.88629302065E+01 0.10274630593E+02 0.13755151816E+02 0.20864099636E+02
 0.39292586240E+02 0.96112847076E+02 0.21124999799E+03 0.38066691531E+03 0.56981053431E+03
 0.72126174206E+03 0.61680524727E+03 0.56981053431E+03 0.44778554480E+03 0.29623145857E+03
 0.16226714593E+03 0.73785748493E+02 0.32466465913E+02 0.19454204404E+02 0.13194682812E+02
 0.10152328854E+02 0.88579312102E+01 0.78839174532E+01 0.72454467666E+01 0.72182704365E+01
 0.73457424726E+01 0.72182704365E+01 0.72454467666E+01 0.78839174532E+01 0.88579312102E+01
 0.10152328854E+02 0.13194682812E+02 0.19454204404E+02 0.32466465913E+02 0.73785748493E+02
 0.16226714593E+03 0.29623145857E+03 0.44778554480E+03 0.56981053431E+03 0.41335854342E+03
 0.38066691531E+03 0.29623145857E+03 0.19280305942E+03 0.10406241306E+03 0.48850669395E+02
 0.25577159617E+02 0.17440881866E+02 0.12416101839E+02 0.10036593362E+02 0.90299089255E+01
 0.83327243989E+01 0.78839174532E+01 0.78284097391E+01 0.78908516438E+01 0.78284097391E+01
 0.78839174532E+01 0.83327243989E+01 0.90299089255E+01 0.10036593362E+02 0.12416101839E+02
 0.17440881866E+02 0.25577159617E+02 0.48850669395E+02 0.10406241306E+03 0.19280305942E+03
 0.29623145857E+03 0.38066691531E+03 0.23045560548E+03 0.21124999799E+03 0.16226714593E+03
 0.10406241306E+03 0.57053053984E+02 0.30860791324E+02 0.20825980037E+02 0.15186440606E+02
 0.11616409291E+02 0.99935666862E+01 0.93646558824E+01 0.90299089255E+01 0.88579312102E+01
 0.88629302065E+01 0.89018946516E+01 0.88629302065E+01 0.88579312102E+01 0.90299089255E+01
 0.93646558824E+01 0.99935666862E+01 0.11616409291E+02 0.15186440606E+02 0.20825980037E+02
 0.30860791324E+02 0.57053053984E+02 0.10406241306E+03 0.16226714593E+03 0.21124999799E+03
 0.10510556341E+03 0.96112847076E+02 0.73785748493E+02 0.48850669395E+02 0.30860791324E+02
 0.22040657150E+02 0.16951898220E+02 0.13165203182E+02 0.11034969470E+02 0.10185018480E+02
 0.99935666862E+01 0.10036593362E+02 0.10152328854E+02 0.10274630593E+02 0.10328963303E+02
 0.10274630593E+02 0.10152328854E+02 0.10036593362E+02 0.99935666862E+01 0.10185018480E+02
 0.11034969470E+02 0.13165203182E+02 0.16951898220E+02 0.22040657150E+02 0.30860791324E+02
 0.48850669395E+02 0.73785748493E+02 0.96112847076E+02 0.42187316489E+02 0.39292586240E+02
 0.32466465913E+02 0.25577159617E+02 0.20825980037E+02 0.16951898220E+02 0.13779956377E+02
 0.11785883382E+02 0.10971349180E+02 0.11034969470E+02 0.11616409291E+02 0.12416101839E+02
 0.13194682812E+02 0.13755151816E+02 0.13958848258E+02 0.13755151816E+02 0.13194682812E+02
 0.12416101839E+02 0.11616409291E+02 0.11034969470E+02 0.10971349180E+02 0.11785883382E+02
 0.13779956377E+02 0.16951898220E+02 0.20825980037E+02 0.25577159617E+02 0.32466465913E+02
 0.39292586240E+02 0.21410512025E+02 0.20864099636E+02 0.19454204404E+02 0.17440881866E+02
 0.15186440606E+02 0.13165203182E+02 0.11785883382E+02 0.11299361567E+02 0.11785883382E+02
 0.13165203182E+02 0.15186440606E+02 0.17440881866E+02 0.19454204404E+02 0.20864099636E+02
 0.21410512025E+02 0.20864099636E+02 0.19454204404E+02 0.17440881866E+02 0.15186440606E+02
 0.13165203182E+02 0.11785883382E+02 0.11299361567E+02 0.11785883382E+02 0.13165203182E+02
 0.15186440606E+02 0.17440881866E+02 0.19454204404E+02 0.20864099636E+02 0.13958848258E+02
 0.13755151816E+02 0.13194682812E+02 0.12416101839E+02 0.11616409291E+02 0.11034969470E+02
 0.10971349180E+02 0.11785883382E+02 0.13779956377E+02 0.16951898220E+02 0.20825980037E+02
 0.25577159617E+02 0.32466465913E+02 0.39292586240E+02 0.42187316489E+02 0.39292586240E+02
 0.32466465913E+02 0.25577159617E+02 0.20825980037E+02 0.16951898220E+02 0.13779956377E+02
 0.11785883382E+02 0.10971349180E+02 0.11034969470E+02 0.11616409291E+02 0.12416101839E+02
 0.13194682812E+02 0.13755151816E+02 0.10328963303E+02 0.10274630593E+02 0.10152328854E+02
 0.10036593362E+02 0.99935666862E+01 0.10185018480E+02 0.11034969470E+02 0.13165203182E+02
 0.16951898220E+02 0.22040657150E+02 0.30860791324E+02 0.48850669395E+02 0.73785748493E+02
 0.96112847076E+02 0.10510556341E+03 0.96112847076E+02 0.73785748493E+02 0.48850669395E+02
 0.30860791324E+02 0.22040657150E+02 0.16951898220E+02 0.13165203182E+02 0.11034969470E+02
 0.10185018480E+02 0.99935666862E+01 0.10036593362E+02 0.10152328854E+02 0.10274630593E+02
 0.89018946516E+01 0.88629302065E+01 0.88579312102E+01 0.90299089255E+01 0.93646558824E+01
 0.99935666862E+01 0.11616409291E+02 0.15186440606E+02 0.20825980037E+02 0.30860791324E+02
 0.57053053984E+02 0.10406241306E+03 0.16226714593E+03 0.21124999799E+03 0.23045560548E+03
 0.21124999799E+03 0.16226714593E+03 0.10406241306E+03 0.57053053984E+02 0.30860791324E+02
 0.20825980037E+02 0.15186440606E+02 0.11616409291E+02 0.99935666862E+01 0.93646558824E+01
 0.90299089255E+01 0.88579312102E+01 0.88629302065E+01 0.78908516438E+01 0.78284097391E+01
 0.78839174532E+01 0.83327243989E+01 0.90299089255E+01 0.10036593362E+02 0.12416101839E+02
 0.17440881866E+02 0.25577159617E+02 0.48850669395E+02 0.10406241306E+03 0.19280305942E+03
 0.29623145857E+03 0.38066691531E+03 0.41335854342E+03 0.38066691531E+03 0.29623145857E+03
 0.19280305942E+03 0.10406241306E+03 0.48850669395E+02 0.25577159617E+02 0.17440881866E+02
 0.12416101839E+02 0.10036593362E+02 0.90299089255E+01 0.83327243989E+01 0.78839174532E+01
 0.78284097391E+01 0.73457424726E+01 0.72182704365E+01 0.72454467666E+01 0.78839174532E+01
 0.88579312102E+01 0.10152328854E+02 0.13194682812E+02 0.19454204404E+02 0.32466465913E+02
 0.73785748493E+02 0.16226714593E+03 0.29623145857E+03 0.44778554480E+03 0.56981053431E+03
 0.61680524727E+03 0.56981053431E+03 0.44778554480E+03 0.29623145857E+03 0.16226714593E+03
 0.73785748493E+02 0.32466465913E+02 0.19454204404E+02 0.13194682812E+02 0.10152328854E+02
 0.88579312102E+01 0.78839174532E+01 0.72454467666E+01 0.72182704365E+01 0.75960679037E+01
 0.73597097566E+01 0.72182704365E+01 0.78284097391E+01 0.88629302065E+01 0.10274630593E+02
 0.13755151816E+02 0.20864099636E+02 0.39292586240E+02 0.96112847076E+02 0.21124999799E+03
 0.38066691531E+03 0.56981053431E+03 0.72126174206E+03 0.77947888888E+03 0.72126174206E+03
 0.56981053431E+03 0.38066691531E+03 0.21124999799E+03 0.96112847076E+02 0.39292586240E+02
 0.20864099636E+02 0.13755151816E+02 0.10274630593E+02 0.88629302065E+01 0.78284097391E+01
 0.72182704365E+01 0.73597097566E+01 0.78913631802E+01 0.75960679037E+01 0.73457424726E+01
 0.78908516438E+01 0.89018946516E+01 0.10328963303E+02 0.13958848258E+02 0.21410512025E+02
 0.42187316489E+02 0.10510556341E+03 0.23045560548E+03 0.41335854342E+03 0.61680524727E+03
 0.77947888888E+03 0.84198297566E+03 0.77947888888E+03 0.61680524727E+03 0.41335854342E+03
 0.23045560548E+03 0.10510556341E+03 0.42187316489E+02 0.21410512025E+02 0.13958848258E+02
 0.10328963303E+02 0.89018946516E+01 0.78908516438E+01 0.73457424726E+01 0.75960679037E+01
 0.75960679037E+01 0.73597097566E+01 0.72182704365E+01 0.78284097391E+01 0.88629302065E+01
 0.10274630593E+02 0.13755151816E+02 0.20864099636E+02 0.39292586240E+02 0.96112847076E+02
 0.21124999799E+03 0.38066691531E+03 0.56981053431E+03 0.72126174206E+03 0.77947888888E+03
 0.72126174206E+03 0.56981053431E+03 0.38066691531E+03 0.21124999799E+03 0.96112847076E+02
 0.39292586240E+02 0.20864099636E+02 0.13755151816E+02 0.10274630593E+02 0.88629302065E+01
 0.78284097391E+01 0.72182704365E+01 0.73597097566E+01 0.73457424726E+01 0.72182704365E+01
 0.72454467666E+01 0.78839174532E+01 0.88579312102E+01 0.10152328854E+02 0.13194682812E+02
 0.19454204404E+02 0.32466465913E+02 0.73785748493E+02 0.16226714593E+03 0.29623145857E+03
 0.44778554480E+03 0.56981053431E+03 0.61680524727E+03 0.56981053431E+03 0.44778554480E+03
 0.29623145857E+03 0.16226714593E+03 0.73785748493E+02 0.32466465913E+02 0.19454204404E+02
 0.13194682812E+02 0.10152328854E+02 0.88579312102E+01 0.78839174532E+01 0.72454467666E+01
 0.72182704365E+01 0.78908516438E+01 0.78284097391E+01 0.78839174532E+01 0.83327243989E+01
 0.90299089255E+01 0.10036593362E+02 0.12416101839E+02 0.17440881866E+02 0.25577159617E+02
 0.48850669395E+02 0.10406241306E+03 0.19280305942E+03 0.29623145857E+03 0.38066691531E+03
 0.41335854342E+03 0.38066691531E+03 0.29623145857E+03 0.19280305942E+03 0.10406241306E+03
 0.48850669395E+02 0.25577159617E+02 0.17440881866E+02 0.12416101839E+02 0.10036593362E+02
 0.90299089255E+01 0.83327243989E+01 0.78839174532E+01 0.78284097391E+01 0.89018946516E+01
 0.88629302065E+01 0.88579312102E+01 0.90299089255E+01 0.93646558824E+01 0.99935666862E+01
 0.11616409291E+02 0.15186440606E+02 0.20825980037E+02 0.30860791324E+02 0.57053053984E+02
 0.10406241306E+03 0.16226714593E+03 0.21124999799E+03 0.23045560548E+03 0.21124999799E+03
 0.16226714593E+03 0.10406241306E+03 0.57053053984E+02 0.30860791324E+02 0.20825980037E+02
 0.15186440606E+02 0.11616409291E+02 0.99935666862E+01 0.93646558824E+01 0.90299089255E+01
 0.88579312102E+01 0.88629302065E+01 0.10328963303E+02 0.10274630593E+02 0.10152328854E+02
 0.10036593362E+02 0.99935666862E+01 0.10185018480E+02 0.11034969470E+02 0.13165203182E+02
 0.16951898220E+02 0.22040657150E+02 0.30860791324E+02 0.48850669395E+02 0.73785748493E+02
 0.96112847076E+02 0.10510556341E+03 0.96112847076E+02 0.73785748493E+02 0.48850669395E+02
 0.30860791324E+02 0.22040657150E+02 0.16951898220E+02 0.13165203182E+02 0.11034969470E+02
 0.10185018480E+02 0.99935666862E+01 0.10036593362E+02 0.10152328854E+02 0.10274630593E+02
 0.13958848258E+02 0.13755151816E+02 0.13194682812E+02 0.12416101839E+02 0.11616409291E+02
 0.11034969470E+02 0.10971349180E+02 0.11785883382E+02 0.13779956377E+02 0.16951898220E+02
 0.20825980037E+02 0.25577159617E+02 0.32466465913E+02 0.39292586240E+02 0.42187316489E+02
 0.39292586240E+02 0.32466465913E+02 0.25577159617E+02 0.20825980037E+02 0.16951898220E+02
 0.13779956377E+02 0.11785883382E+02 0.10971349180E+02 0.11034969470E+02 0.11616409291E+02
 0.12416101839E+02 0.13194682812E+02 0.13755151816E+02 0.21410512025E+02 0.20864099636E+02
 0.19454204404E+02 0.17440881866E+02 0.15186440606E+02 0.13165203182E+02 0.11785883382E+02
 0.11299361567E+02 0.11785883382E+02 0.13165203182E+02 0.15186440606E+02 0.17440881866E+02
 0.19454204404E+02 0.20864099636E+02 0.21410512025E+02 0.20864099636E+02 0.19454204404E+02
 0.17440881866E+02 0.15186440606E+02 0.13165203182E+02 0.11785883382E+02 0.11299361567E+02
 0.11785883382E+02 0.13165203182E+02 0.15186440606E+02 0.17440881866E+02 0.19454204404E+02
 0.20864099636E+02 0.42187316489E+02 0.39292586240E+02 0.32466465913E+02 0.25577159617E+02
 0.20825980037E+02 0.16951898220E+02 0.13779956377E+02 0.11785883382E+02 0.10971349180E+02
 0.11034969470E+02 0.11616409291E+02 0.12416101839E+02 0.13194682812E+02 0.13755151816E+02
 0.13958848258E+02 0.13755151816E+02 0.13194682812E+02 0.12416101839E+02 0.11616409291E+02
 0.11034969470E+02 0.10971349180E+02 0.11785883382E+02 0.13779956377E+02 0.16951898220E+02
 0.20825980037E+02 0.25577159617E+02 0.32466465913E+02 0.39292586240E+02 0.10510556341E+03
 0.96112847076E+02 0.73785748493E+02 0.48850669395E+02 0.30860791324E+02 0.22040657150E+02
 0.16951898220E+02 0.13165203182E+02 0.11034969470E+02 0.10185018480E+02 0.99935666862E+01
 0.10036593362E+02 0.10152328854E+02 0.10274630593E+02 0.10328963303E+02 0.10274630593E+02
 0.10152328854E+02 0.10036593362E+02 0.99935666862E+01 0.10185018480E+02 0.11034969470E+02
 0.13165203182E+02 0.16951898220E+02 0.22040657150E+02 0.30860791324E+02 0.48850669395E+02
 0.73785748493E+02 0.96112847076E+02 0.23045560548E+03 0.21124999799E+03 0.16226714593E+03
 0.10406241306E+03 0.57053053984E+02 0.30860791324E+02 0.20825980037E+02 0.15186440606E+02
 0.11616409291E+02 0.99935666862E+01 0.93646558824E+01 0.90299089255E+01 0.88579312102E+01
 0.88629302065E+01 0.89018946516E+01 0.88629302065E+01 0.88579312102E+01 0.90299089255E+01
 0.93646558824E+01 0.99935666862E+01 0.11616409291E+02 0.15186440606E+02 0.20825980037E+02
 0.30860791324E+02 0.57053053984E+02 0.10406241306E+03 0.16226714593E+03 0.21124999799E+03
 0.41335854342E+03 0.38066691531E+03 0.29623145857E+03 0.19280305942E+03 0.10406241306E+03
 0.48850669395E+02 0.25577159617E+02 0.17440881866E+02 0.12416101839E+02 0.10036593362E+02
 0.90299089255E+01 0.83327243989E+01 0.78839174532E+01 0.78284097391E+01 0.78908516438E+01
 0.78284097391E+01 0.78839174532E+01 0.83327243989E+01 0.90299089255E+01 0.10036593362E+02
 0.12416101839E+02 0.17440881866E+02 0.25577159617E+02 0.48850669395E+02 0.10406241306E+03
 0.19280305942E+03 0.29623145857E+03 0.38066691531E+03 0.61680524727E+03 0.56981053431E+03
 0.44778554480E+03 0.29623145857E+03 0.16226714593E+03 0.73785748493E+02 0.32466465913E+02
 0.19454204404E+02 0.13194682812E+02 0.10152328854E+02 0.88579312102E+01 0.78839174532E+01
 0.72454467666E+01 0.72182704365E+01 0.73457424726E+01 0.72182704365E+01 0.72454467666E+01
 0.78839174532E+01 0.88579312102E+01 0.10152328854E+02 0.13194682812E+02 0.19454204404E+02
 0.32466465913E+02 0.73785748493E+02 0.16226714593E+03 0.29623145857E+03 0.44778554480E+03
 0.56981053431E+03 0.77947888888E+03 0.72126174206E+03 0.56981053431E+03 0.38066691531E+03
 0.21124999799E+03 0.96112847076E+02 0.39292586240E+02 0.20864099636E+02 0.13755151816E+02
 0.10274630593E+02 0.88629302065E+01 0.78284097391E+01 0.72182704365E+01 0.73597097566E+01
 0.75960679037E+01 0.73597097566E+01 0.72182704365E+01 0.78284097391E+01 0.88629302065E+01
 0.10274630593E+02 0.13755151816E+02 0.20864099636E+02 0.39292586240E+02 0.96112847076E+02
 0.21124999799E+03 0.38066691531E+03 0.56981053431E+03 0.72126174206E+03 0.77947888888E+03
 0.72126174206E+03 0.56981053431E+03 0.38066691531E+03 0.21124999799E+03 0.96112847076E+02
 0.39292586240E+02 0.20864099636E+02 0.13755151816E+02 0.10274630593E+02 0.88629302065E+01
 0.78284097391E+01 0.72182704365E+01 0.73597097566E+01 0.75960679037E+01 0.73597097566E+01
 0.72182704365E+01 0.78284097391E+01 0.88629302065E+01 0.10274630593E+02 0.13755151816E+02
 0.20864099636E+02 0.39292586240E+02 0.96112847076E+02 0.21124999799E+03 0.38066691531E+03
 0.56981053431E+03 0.72126174206E+03 0.72126174206E+03 0.66705090226E+03 0.52609455848E+03
 0.35033844554E+03 0.19354208427E+03 0.87926301958E+02 0.36719103163E+02 0.20358377110E+02
 0.13560339558E+02 0.10230702515E+02 0.88422269414E+01 0.77942071435E+01 0.71308801513E+01
 0.71762406127E+01 0.73597097566E+01 0.71762406127E+01 0.71308801513E+01 0.77942071435E+01
 0.88422269414E+01 0.10230702515E+02 0.13560339558E+02 0.20358377110E+02 0.36719103163E+02
 0.87926301958E+02 0.19354208427E+03 0.35033844554E+03 0.52609455848E+03 0.66705090226E+03
 0.56981053431E+03 0.52609455848E+03 0.41267156484E+03 0.27210653254E+03 0.14847465423E+03
 0.67672728499E+02 0.30676889365E+02 0.19004426013E+02 0.13023565357E+02 0.10129811552E+02
 0.88715402555E+01 0.79000332086E+01 0.72287197153E+01 0.71308801513E+01 0.72182704365E+01
 0.71308801513E+01 0.72287197153E+01 0.79000332086E+01 0.88715402555E+01 0.10129811552E+02
 0.13023565357E+02 0.19004426013E+02 0.30676889365E+02 0.67672728499E+02 0.14847465423E+03
 0.27210653254E+03 0.41267156484E+03 0.52609455848E+03 0.38066691531E+03 0.35033844554E+03
 0.27210653254E+03 0.17658793532E+03 0.95194674343E+02 0.45235499576E+02 0.24603935989E+02
 0.17045895220E+02 0.12276768576E+02 0.10029647928E+02 0.90621484193E+01 0.83718621957E+01
 0.79000332086E+01 0.77942071435E+01 0.78284097391E+01 0.77942071435E+01 0.79000332086E+01
 0.83718621957E+01 0.90621484193E+01 0.10029647928E+02 0.12276768576E+02 0.17045895220E+02
 0.24603935989E+02 0.45235499576E+02 0.95194674343E+02 0.17658793532E+03 0.27210653254E+03
 0.35033844554E+03 0.21124999799E+03 0.19354208427E+03 0.14847465423E+03 0.95194674343E+02
 0.52593443938E+02 0.29262574758E+02 0.20272724649E+02 0.14873819920E+02 0.11509170038E+02
 0.99887437955E+01 0.93926952987E+01 0.90621484193E+01 0.88715402555E+01 0.88422269414E+01
 0.88629302065E+01 0.88422269414E+01 0.88715402555E+01 0.90621484193E+01 0.93926952987E+01
 0.99887437955E+01 0.11509170038E+02 0.14873819920E+02 0.20272724649E+02 0.29262574758E+02
 0.52593443938E+02 0.95194674343E+02 0.14847465423E+03 0.19354208427E+03 0.96112847076E+02
 0.87926301958E+02 0.67672728499E+02 0.45235499576E+02 0.29262574758E+02 0.21415586574E+02
 0.16533828425E+02 0.12943440197E+02 0.10949190647E+02 0.10162013367E+02 0.99887437955E+01
 0.10029647928E+02 0.10129811552E+02 0.10230702515E+02 0.10274630593E+02 0.10230702515E+02
 0.10129811552E+02 0.10029647928E+02 0.99887437955E+01 0.10162013367E+02 0.10949190647E+02
 0.12943440197E+02 0.16533828425E+02 0.21415586574E+02 0.29262574758E+02 0.45235499576E+02
 0.67672728499E+02 0.87926301958E+02 0.39292586240E+02 0.36719103163E+02 0.30676889365E+02
 0.24603935989E+02 0.20272724649E+02 0.16533828425E+02 0.13512869689E+02 0.11634850673E+02
 0.10878136302E+02 0.10949190647E+02 0.11509170038E+02 0.12276768576E+02 0.13023565357E+02
 0.13560339558E+02 0.13755151816E+02 0.13560339558E+02 0.13023565357E+02 0.12276768576E+02
 0.11509170038E+02 0.10949190647E+02 0.10878136302E+02 0.11634850673E+02 0.13512869689E+02
 0.16533828425E+02 0.20272724649E+02 0.24603935989E+02 0.30676889365E+02 0.36719103163E+02
 0.20864099636E+02 0.20358377110E+02 0.19004426013E+02 0.17045895220E+02 0.14873819920E+02
 0.12943440197E+02 0.11634850673E+02 0.11174938183E+02 0.11634850673E+02 0.12943440197E+02
 0.14873819920E+02 0.17045895220E+02 0.19004426013E+02 0.20358377110E+02 0.20864099636E+02
 0.20358377110E+02 0.19004426013E+02 0.17045895220E+02 0.14873819920E+02 0.12943440197E+02
 0.11634850673E+02 0.11174938183E+02 0.11634850673E+02 0.12943440197E+02 0.14873819920E+02
 0.17045895220E+02 0.19004426013E+02 0.20358377110E+02 0.13755151816E+02 0.13560339558E+02
 0.13023565357E+02 0.12276768576E+02 0.11509170038E+02 0.10949190647E+02 0.10878136302E+02
 0.11634850673E+02 0.13512869689E+02 0.16533828425E+02 0.20272724649E+02 0.24603935989E+02
 0.30676889365E+02 0.36719103163E+02 0.39292586240E+02 0.36719103163E+02 0.30676889365E+02
 0.24603935989E+02 0.20272724649E+02 0.16533828425E+02 0.13512869689E+02 0.11634850673E+02
 0.10878136302E+02 0.10949190647E+02 0.11509170038E+02 0.12276768576E+02 0.13023565357E+02
 0.13560339558E+02 0.10274630593E+02 0.10230702515E+02 0.10129811552E+02 0.10029647928E+02
 0.99887437955E+01 0.10162013367E+02 0.10949190647E+02 0.12943440197E+02 0.16533828425E+02
 0.21415586574E+02 0.29262574758E+02 0.45235499576E+02 0.67672728499E+02 0.87926301958E+02
 0.96112847076E+02 0.87926301958E+02 0.67672728499E+02 0.45235499576E+02 0.29262574758E+02
 0.21415586574E+02 0.16533828425E+02 0.12943440197E+02 0.10949190647E+02 0.10162013367E+02
 0.99887437955E+01 0.10029647928E+02 0.10129811552E+02 0.10230702515E+02 0.88629302065E+01
 0.88422269414E+01 0.88715402555E+01 0.90621484193E+01 0.93926952987E+01 0.99887437955E+01
 0.11509170038E+02 0.14873819920E+02 0.20272724649E+02 0.29262574758E+02 0.52593443938E+02
 0.95194674343E+02 0.14847465423E+03 0.19354208427E+03 0.21124999799E+03 0.19354208427E+03
 0.14847465423E+03 0.95194674343E+02 0.52593443938E+02 0.29262574758E+02 0.20272724649E+02
 0.14873819920E+02 0.11509170038E+02 0.99887437955E+01 0.93926952987E+01 0.90621484193E+01
 0.88715402555E+01 0.88422269414E+01 0.78284097391E+01 0.77942071435E+01 0.79000332086E+01
 0.83718621957E+01 0.90621484193E+01 0.10029647928E+02 0.12276768576E+02 0.17045895220E+02
 0.24603935989E+02 0.45235499576E+02 0.95194674343E+02 0.17658793532E+03 0.27210653254E+03
 0.35033844554E+03 0.38066691531E+03 0.35033844554E+03 0.27210653254E+03 0.17658793532E+03
 0.95194674343E+02 0.45235499576E+02 0.24603935989E+02 0.17045895220E+02 0.12276768576E+02
 0.10029647928E+02 0.90621484193E+01 0.83718621957E+01 0.79000332086E+01 0.77942071435E+01
 0.72182704365E+01 0.71308801513E+01 0.72287197153E+01 0.79000332086E+01 0.88715402555E+01
 0.10129811552E+02 0.13023565357E+02 0.19004426013E+02 0.30676889365E+02 0.67672728499E+02
 0.14847465423E+03 0.27210653254E+03 0.41267156484E+03 0.52609455848E+03 0.56981053431E+03
 0.52609455848E+03 0.41267156484E+03 0.27210653254E+03 0.14847465423E+03 0.67672728499E+02
 0.30676889365E+02 0.19004426013E+02 0.13023565357E+02 0.10129811552E+02 0.88715402555E+01
 0.79000332086E+01 0.72287197153E+01 0.71308801513E+01 0.73597097566E+01 0.71762406127E+01
 0.71308801513E+01 0.77942071435E+01 0.88422269414E+01 0.10230702515E+02 0.13560339558E+02
 0.20358377110E+02 0.36719103163E+02 0.87926301958E+02 0.19354208427E+03 0.35033844554E+03
 0.52609455848E+03 0.66705090226E+03 0.72126174206E+03 0.66705090226E+03 0.52609455848E+03
 0.35033844554E+03 0.19354208427E+03 0.87926301958E+02 0.36719103163E+02 0.20358377110E+02
 0.13560339558E+02 0.10230702515E+02 0.88422269414E+01 0.77942071435E+01 0.71308801513E+01
 0.71762406127E+01 0.75960679037E+01 0.73597097566E+01 0.72182704365E+01 0.78284097391E+01
 0.88629302065E+01 0.10274630593E+02 0.13755151816E+02 0.20864099636E+02 0.39292586240E+02
 0.96112847076E+02 0.21124999799E+03 0.38066691531E+03 0.56981053431E+03 0.72126174206E+03
 0.77947888888E+03 0.72126174206E+03 0.56981053431E+03 0.38066691531E+03 0.21124999799E+03
 0.96112847076E+02 0.39292586240E+02 0.20864099636E+02 0.13755151816E+02 0.10274630593E+02
 0.88629302065E+01 0.78284097391E+01 0.72182704365E+01 0.73597097566E+01 0.73597097566E+01
 0.71762406127E+01 0.71308801513E+01 0.77942071435E+01 0.88422269414E+01 0.10230702515E+02
 0.13560339558E+02 0.20358377110E+02 0.36719103163E+02 0.87926301958E+02 0.19354208427E+03
 0.35033844554E+03 0.52609455848E+03 0.66705090226E+03 0.72126174206E+03 0.66705090226E+03
 0.52609455848E+03 0.35033844554E+03 0.19354208427E+03 0.87926301958E+02 0.36719103163E+02
 0.20358377110E+02 0.13560339558E+02 0.10230702515E+02 0.88422269414E+01 0.77942071435E+01
 0.71308801513E+01 0.71762406127E+01 0.72182704365E+01 0.71308801513E+01 0.72287197153E+01
 0.79000332086E+01 0.88715402555E+01 0.10129811552E+02 0.13023565357E+02 0.19004426013E+02
 0.30676889365E+02 0.67672728499E+02 0.14847465423E+03 0.27210653254E+03 0.41267156484E+03
 0.52609455848E+03 0.56981053431E+03 0.52609455848E+03 0.41267156484E+03 0.27210653254E+03
 0.14847465423E+03 0.67672728499E+02 0.30676889365E+02 0.19004426013E+02 0.13023565357E+02
 0.10129811552E+02 0.88715402555E+01 0.79000332086E+01 0.72287197153E+01 0.71308801513E+01
 0.78284097391E+01 0.77942071435E+01 0.79000332086E+01 0.83718621957E+01 0.90621484193E+01
 0.10029647928E+02 0.12276768576E+02 0.17045895220E+02 0.24603935989E+02 0.45235499576E+02
 0.95194674343E+02 0.17658793532E+03 0.27210653254E+03 0.35033844554E+03 0.38066691531E+03
 0.35033844554E+03 0.27210653254E+03 0.17658793532E+03 0.95194674343E+02 0.45235499576E+02
 0.24603935989E+02 0.17045895220E+02 0.12276768576E+02 0.10029647928E+02 0.90621484193E+01
 0.83718621957E+01 0.79000332086E+01 0.77942071435E+01 0.88629302065E+01 0.88422269414E+01
 0.88715402555E+01 0.90621484193E+01 0.93926952987E+01 0.99887437955E+01 0.11509170038E+02
 0.14873819920E+02 0.20272724649E+02 0.29262574758E+02 0.52593443938E+02 0.95194674343E+02
 0.14847465423E+03 0.19354208427E+03 0.21124999799E+03 0.19354208427E+03 0.14847465423E+03
 0.95194674343E+02 0.52593443938E+02 0.29262574758E+02 0.20272724649E+02 0.14873819920E+02
 0.11509170038E+02 0.99887437955E+01 0.93926952987E+01 0.90621484193E+01 0.88715402555E+01
 0.88422269414E+01 0.10274630593E+02 0.10230702515E+02 0.10129811552E+02 0.10029647928E+02
 0.99887437955E+01 0.10162013367E+02 0.10949190647E+02 0.12943440197E+02 0.16533828425E+02
 0.21415586574E+02 0.29262574758E+02 0.45235499576E+02 0.67672728499E+02 0.87926301958E+02
 0.96112847076E+02 0.87926301958E+02 0.67672728499E+02 0.45235499576E+02 0.29262574758E+02
 0.21415586574E+02 0.16533828425E+02 0.12943440197E+02 0.10949190647E+02 0.10162013367E+02
 0.99887437955E+01 0.10029647928E+02 0.10129811552E+02 0.10230702515E+02 0.13755151816E+02
 0.13560339558E+02 0.13023565357E+02 0.12276768576E+02 0.11509170038E+02 0.10949190647E+02
 0.10878136302E+02 0.11634850673E+02 0.13512869689E+02 0.16533828425E+02 0.20272724649E+02
 0.24603935989E+02 0.30676889365E+02 0.36719103163E+02 0.39292586240E+02 0.36719103163E+02
 0.30676889365E+02 0.24603935989E+02 0.20272724649E+02 0.16533828425E+02 0.13512869689E+02
 0.11634850673E+02 0.10878136302E+02 0.10949190647E+02 0.11509170038E+02 0.12276768576E+02
 0.13023565357E+02 0.13560339558E+02 0.20864099636E+02 0.20358377110E+02 0.19004426013E+02
 0.17045895220E+02 0.14873819920E+02 0.12943440197E+02 0.11634850673E+02 0.11174938183E+02
 0.11634850673E+02 0.12943440197E+02 0.14873819920E+02 0.17045895220E+02 0.19004426013E+02
 0.20358377110E+02 0.20864099636E+02 0.20358377110E+02 0.19004426013E+02 0.17045895220E+02
 0.14873819920E+02 0.12943440197E+02 0.11634850673E+02 0.11174938183E+02 0.11634850673E+02
 0.12943440197E+02 0.14873819920E+02 0.17045895220E+02 0.19004426013E+02 0.20358377110E+02
 0.39292586240E+02 0.36719103163E+02 0.30676889365E+02 0.24603935989E+02 0.20272724649E+02
 0.16533828425E+02 0.13512869689E+02 0.11634850673E+02 0.10878136302E+02 0.10949190647E+02
 0.11509170038E+02 0.12276768576E+02 0.13023565357E+02 0.13560339558E+02 0.13755151816E+02
 0.13560339558E+02 0.13023565357E+02 0.12276768576E+02 0.11509170038E+02 0.10949190647E+02
 0.10878136302E+02 0.11634850673E+02 0.13512869689E+02 0.16533828425E+02 0.20272724649E+02
 0.24603935989E+02 0.30676889365E+02 0.36719103163E+02 0.96112847076E+02 0.87926301958E+02
 0.67672728499E+02 0.45235499576E+02 0.29262574758E+02 0.21415586574E+02 0.16533828425E+02
 0.12943440197E+02 0.10949190647E+02 0.10162013367E+02 0.99887437955E+01 0.10029647928E+02
 0.10129811552E+02 0.10230702515E+02 0.10274630593E+02 0.10230702515E+02 0.10129811552E+02
 0.10029647928E+02 0.99887437955E+01 0.10162013367E+02 0.10949190647E+02 0.12943440197E+02
 0.16533828425E+02 0.21415586574E+02 0.29262574758E+02 0.45235499576E+02 0.67672728499E+02
 0.87926301958E+02 0.21124999799E+03 0.19354208427E+03 0.14847465423E+03 0.95194674343E+02
 0.52593443938E+02 0.29262574758E+02 0.20272724649E+02 0.14873819920E+02 0.11509170038E+02
 0.99887437955E+01 0.93926952987E+01 0.90621484193E+01 0.88715402555E+01 0.88422269414E+01
 0.88629302065E+01 0.88422269414E+01 0.88715402555E+01 0.90621484193E+01 0.93926952987E+01
 0.99887437955E+01 0.11509170038E+02 0.14873819920E+02 0.20272724649E+02 0.29262574758E+02
 0.52593443938E+02 0.95194674343E+02 0.14847465423E+03 0.19354208427E+03 0.38066691531E+03
 0.35033844554E+03 0.27210653254E+03 0.17658793532E+03 0.95194674343E+02 0.45235499576E+02
 0.24603935989E+02 0.17045895220E+02 0.12276768576E+02 0.10029647928E+02 0.90621484193E+01
 0.83718621957E+01 0.79000332086E+01 0.77942071435E+01 0.78284097391E+01 0.77942071435E+01
 0.79000332086E+01 0.83718621957E+01 0.90621484193E+01 0.10029647928E+02 0.12276768576E+02
 0.17045895220E+02 0.24603935989E+02 0.45235499576E+02 0.95194674343E+02 0.17658793532E+03
 0.27210653254E+03 0.35033844554E+03 0.56981053431E+03 0.52609455848E+03 0.41267156484E+03
 0.27210653254E+03 0.14847465423E+03 0.67672728499E+02 0.30676889365E+02 0.19004426013E+02
 0.13023565357E+02 0.10129811552E+02 0.88715402555E+01 0.79000332086E+01 0.72287197153E+01
 0.71308801513E+01 0.72182704365E+01 0.71308801513E+01 0.72287197153E+01 0.79000332086E+01
 0.88715402555E+01 0.10129811552E+02 0.13023565357E+02 0.19004426013E+02 0.30676889365E+02
 0.67672728499E+02 0.14847465423E+03 0.27210653254E+03 0.41267156484E+03 0.52609455848E+03
 0.72126174206E+03 0.66705090226E+03 0.52609455848E+03 0.35033844554E+03 0.19354208427E+03
 0.87926301958E+02 0.36719103163E+02 0.20358377110E+02 0.13560339558E+02 0.10230702515E+02
 0.88422269414E+01 0.77942071435E+01 0.71308801513E+01 0.71762406127E+01 0.73597097566E+01
 0.71762406127E+01 0.71308801513E+01 0.77942071435E+01 0.88422269414E+01 0.10230702515E+02
 0.13560339558E+02 0.20358377110E+02 0.36719103163E+02 0.87926301958E+02 0.19354208427E+03
 0.35033844554E+03 0.52609455848E+03 0.66705090226E+03 0.61680524727E+03 0.56981053431E+03
 0.44778554480E+03 0.29623145857E+03 0.16226714593E+03 0.73785748493E+02 0.32466465913E+02
 0.19454204404E+02 0.13194682812E+02 0.10152328854E+02 0.88579312102E+01 0.78839174532E+01
 0.72454467666E+01 0.72182704365E+01 0.73457424726E+01 0.72182704365E+01 0.72454467666E+01
 0.78839174532E+01 0.88579312102E+01 0.10152328854E+02 0.13194682812E+02 0.19454204404E+02
 0.32466465913E+02 0.73785748493E+02 0.16226714593E+03 0.29623145857E+03 0.44778554480E+03
 0.56981053431E+03 0.56981053431E+03 0.52609455848E+03 0.41267156484E+03 0.27210653254E+03
 0.14847465423E+03 0.67672728499E+02 0.30676889365E+02 0.19004426013E+02 0.13023565357E+02
 0.10129811552E+02 0.88715402555E+01 0.79000332086E+01 0.72287197153E+01 0.71308801513E+01
 0.72182704365E+01 0.71308801513E+01 0.72287197153E+01 0.79000332086E+01 0.88715402555E+01
 0.10129811552E+02 0.13023565357E+02 0.19004426013E+02 0.30676889365E+02 0.67672728499E+02
 0.14847465423E+03 0.27210653254E+03 0.41267156484E+03 0.52609455848E+03 0.44778554480E+03