   4   4   0   0
  0.1200752E+02  0.3635000E-09  0.3635000E-09  0.3635000E-09  0.5000000E-15
  1.000000000000000E-004
  CAR 
 unknown system                          
     27.69356369     -3.81407063  301      7.18319768      1.00000000
     -3.814  0.0000E+00  0.0000E+00
     -3.709  0.0000E+00  0.0000E+00
     -3.604  0.0000E+00  0.0000E+00
     -3.499 -0.5433E-31 -0.5706E-32
     -3.394 -0.2691E-27 -0.2827E-28
     -3.289 -0.7644E-24 -0.8031E-25
     -3.184 -0.1244E-20 -0.1308E-21
     -3.079 -0.1160E-17 -0.1220E-18
     -2.974 -0.6014E-15 -0.6329E-16
     -2.869 -0.1816E-12 -0.1913E-13
     -2.764 -0.3122E-10 -0.3298E-11
     -2.659 -0.3039E-08 -0.3225E-09
     -2.554 -0.1663E-06 -0.1779E-07
     -2.449 -0.5055E-05 -0.5487E-06
     -2.344 -0.8348E-04 -0.9316E-05
     -2.239 -0.7133E-03 -0.8423E-04
     -2.134 -0.2726E-02 -0.3706E-03
     -2.029 -0.1219E-02 -0.4986E-03
     -1.924  0.2059E-01  0.1664E-02
     -1.819  0.5583E-01  0.7527E-02
     -1.714  0.5059E-01  0.1284E-01
     -1.609  0.3934E-02  0.1325E-01
     -1.504  0.3206E-01  0.1662E-01
     -1.398  0.2258E+00  0.4034E-01
     -1.293  0.3800E+00  0.8025E-01
     -1.188  0.2350E+00  0.1049E+00
     -1.083  0.4485E-01  0.1096E+00
     -0.978  0.2442E+00  0.1353E+00
     -0.873  0.6838E+00  0.2071E+00
     -0.768  0.6840E+00  0.2789E+00
     -0.663  0.2491E+00  0.3051E+00
     -0.558  0.9837E-01  0.3154E+00
     -0.453  0.3662E+00  0.3539E+00
     -0.348  0.4898E+00  0.4053E+00
     -0.243  0.2384E+00  0.4304E+00
     -0.138  0.6570E-01  0.4373E+00
     -0.033  0.2192E+00  0.4603E+00
      0.072  0.3407E+00  0.4961E+00
      0.177  0.1672E+00  0.5136E+00
      0.282  0.2235E+00  0.5371E+00
      0.387  0.9787E+00  0.6399E+00
      0.492  0.1492E+01  0.7965E+00
      0.597  0.9408E+00  0.8954E+00
      0.702  0.6191E+00  0.9604E+00
      0.807  0.1262E+01  0.1093E+01
      0.912  0.1417E+01  0.1242E+01
      1.017  0.6095E+00  0.1306E+01
      1.122 -0.1795E-02  0.1305E+01
      1.227 -0.1005E+00  0.1295E+01
      1.332 -0.6913E-01  0.1288E+01
      1.437  0.9130E-01  0.1297E+01
      1.542  0.5395E+00  0.1354E+01
      1.647  0.1210E+01  0.1481E+01
      1.752  0.1877E+01  0.1678E+01
      1.857  0.1786E+01  0.1866E+01
      1.962  0.1019E+01  0.1973E+01
      2.067  0.1165E+01  0.2095E+01
      2.172  0.1997E+01  0.2305E+01
      2.277  0.2142E+01  0.2530E+01
      2.382  0.1996E+01  0.2739E+01
      2.487  0.2155E+01  0.2966E+01
      2.592  0.2882E+01  0.3268E+01
      2.698  0.4787E+01  0.3771E+01
      2.803  0.6749E+01  0.4480E+01
      2.908  0.6712E+01  0.5185E+01
      3.013  0.5004E+01  0.5711E+01
      3.118  0.3810E+01  0.6111E+01
      3.223  0.6487E+01  0.6792E+01
      3.328  0.1076E+02  0.7922E+01
      3.433  0.1053E+02  0.9027E+01
      3.538  0.8750E+01  0.9946E+01
      3.643  0.9322E+01  0.1093E+02
      3.748  0.8612E+01  0.1183E+02
      3.853  0.6713E+01  0.1253E+02
      3.958  0.7825E+01  0.1336E+02
      4.063  0.1163E+02  0.1458E+02
      4.168  0.1509E+02  0.1616E+02
      4.273  0.1690E+02  0.1794E+02
      4.378  0.1699E+02  0.1972E+02
      4.483  0.1624E+02  0.2143E+02
      4.588  0.1456E+02  0.2296E+02
      4.693  0.1303E+02  0.2433E+02
      4.798  0.1386E+02  0.2578E+02
      4.903  0.1519E+02  0.2738E+02
      5.008  0.1472E+02  0.2892E+02
      5.113  0.1508E+02  0.3051E+02
      5.218  0.1710E+02  0.3230E+02
      5.323  0.1557E+02  0.3394E+02
      5.428  0.1336E+02  0.3534E+02
      5.533  0.1717E+02  0.3714E+02
      5.638  0.2064E+02  0.3931E+02
      5.743  0.1583E+02  0.4097E+02
      5.848  0.7883E+01  0.4180E+02
      5.953  0.3792E+01  0.4220E+02
      6.058  0.2552E+01  0.4247E+02
      6.163  0.1946E+01  0.4267E+02
      6.268  0.1384E+01  0.4282E+02
      6.373  0.5484E+00  0.4288E+02
      6.478 -0.2173E-01  0.4287E+02
      6.583 -0.1079E+00  0.4286E+02
      6.688 -0.3313E-01  0.4286E+02
      6.793  0.5679E-01  0.4286E+02
      6.899  0.4152E+00  0.4291E+02
      7.004  0.2059E+01  0.4312E+02
      7.109  0.4596E+01  0.4361E+02
      7.214  0.5056E+01  0.4414E+02
      7.319  0.2910E+01  0.4444E+02
      7.424  0.7198E+00  0.4452E+02
      7.529 -0.1721E+00  0.4450E+02
      7.634 -0.2254E-01  0.4450E+02
      7.739  0.8329E+00  0.4459E+02
      7.844  0.1546E+01  0.4475E+02
      7.949  0.1115E+01  0.4487E+02
      8.054  0.2219E+00  0.4489E+02
      8.159 -0.1516E+00  0.4487E+02
      8.264  0.5519E-01  0.4488E+02
      8.369  0.8382E+00  0.4497E+02
      8.474  0.1463E+01  0.4512E+02
      8.579  0.1061E+01  0.4523E+02
      8.684  0.8707E+00  0.4532E+02
      8.789  0.1850E+01  0.4552E+02
      8.894  0.2266E+01  0.4576E+02
      8.999  0.1221E+01  0.4588E+02
      9.104  0.1592E+00  0.4590E+02
      9.209 -0.1683E+00  0.4588E+02
      9.314 -0.3452E-01  0.4588E+02
      9.419  0.6033E+00  0.4594E+02
      9.524  0.1323E+01  0.4608E+02
      9.629  0.1422E+01  0.4623E+02
      9.734  0.1987E+01  0.4644E+02
      9.839  0.3168E+01  0.4677E+02
      9.944  0.2878E+01  0.4708E+02
     10.049  0.1355E+01  0.4722E+02
     10.154  0.2781E+00  0.4725E+02
     10.259 -0.6011E-01  0.4724E+02
     10.364 -0.6465E-01  0.4723E+02
     10.469 -0.3929E-01  0.4723E+02
     10.574 -0.4041E-01  0.4723E+02
     10.679  0.1056E+00  0.4724E+02
     10.784  0.5290E+00  0.4729E+02
     10.889  0.7792E+00  0.4737E+02
     10.995  0.4542E+00  0.4742E+02
     11.100  0.9963E-02  0.4742E+02
     11.205 -0.9101E-01  0.4741E+02
     11.310  0.3695E+00  0.4745E+02
     11.415  0.1219E+01  0.4758E+02
     11.520  0.1442E+01  0.4773E+02
     11.625  0.1169E+01  0.4785E+02
     11.730  0.1579E+01  0.4802E+02
     11.835  0.2185E+01  0.4825E+02
     11.940  0.1986E+01  0.4846E+02
     12.045  0.1151E+01  0.4858E+02
     12.150  0.6096E+00  0.4864E+02
     12.255  0.5981E+00  0.4871E+02
     12.360  0.1258E+01  0.4884E+02
     12.465  0.2671E+01  0.4912E+02
     12.570  0.2808E+01  0.4941E+02
     12.675  0.1296E+01  0.4955E+02
     12.780  0.7657E+00  0.4963E+02
     12.885  0.1355E+01  0.4977E+02
     12.990  0.1164E+01  0.4989E+02
     13.095  0.4706E+00  0.4994E+02
     13.200  0.3727E+00  0.4998E+02
     13.305  0.4382E+00  0.5003E+02
     13.410  0.1951E+00  0.5005E+02
     13.515 -0.7521E-01  0.5004E+02
     13.620 -0.1808E+00  0.5002E+02
     13.725  0.3480E+00  0.5006E+02
     13.830  0.2007E+01  0.5027E+02
     13.935  0.3124E+01  0.5060E+02
     14.040  0.1962E+01  0.5080E+02
     14.145  0.2978E+00  0.5084E+02
     14.250 -0.1422E+00  0.5082E+02
     14.355  0.3385E+00  0.5086E+02
     14.460  0.1294E+01  0.5099E+02
     14.565  0.1958E+01  0.5120E+02
     14.670  0.1551E+01  0.5136E+02
     14.775  0.6882E+00  0.5143E+02
     14.880  0.6513E+00  0.5150E+02
     14.985  0.1368E+01  0.5164E+02
     15.091  0.1677E+01  0.5182E+02
     15.196  0.1689E+01  0.5200E+02
     15.301  0.1846E+01  0.5219E+02
     15.406  0.2040E+01  0.5241E+02
     15.511  0.2766E+01  0.5270E+02
     15.616  0.2994E+01  0.5301E+02
     15.721  0.1534E+01  0.5317E+02
     15.826  0.7560E-01  0.5318E+02
     15.931 -0.9185E-01  0.5317E+02
     16.036  0.7160E+00  0.5325E+02
     16.141  0.1495E+01  0.5340E+02
     16.246  0.1146E+01  0.5352E+02
     16.351  0.3810E+00  0.5356E+02
     16.456  0.4782E+00  0.5361E+02
     16.561  0.1067E+01  0.5373E+02
     16.666  0.1351E+01  0.5387E+02
     16.771  0.1539E+01  0.5403E+02
     16.876  0.1844E+01  0.5422E+02
     16.981  0.2082E+01  0.5444E+02
     17.086  0.2332E+01  0.5469E+02
     17.191  0.2249E+01  0.5492E+02
     17.296  0.1495E+01  0.5508E+02
     17.401  0.6284E+00  0.5515E+02
     17.506  0.2240E+00  0.5517E+02
     17.611  0.4900E+00  0.5522E+02
     17.716  0.1252E+01  0.5535E+02
     17.821  0.1323E+01  0.5549E+02
     17.926  0.7290E+00  0.5557E+02
     18.031  0.1206E+01  0.5569E+02
     18.136  0.2491E+01  0.5596E+02
     18.241  0.2788E+01  0.5625E+02
     18.346  0.1894E+01  0.5645E+02
     18.451  0.6740E+00  0.5652E+02
     18.556  0.3329E+00  0.5655E+02
     18.661  0.1416E+01  0.5670E+02
     18.766  0.2647E+01  0.5698E+02
     18.871  0.2418E+01  0.5723E+02
     18.976  0.1332E+01  0.5737E+02
     19.081  0.1881E+01  0.5757E+02
     19.187  0.3933E+01  0.5798E+02
     19.292  0.3952E+01  0.5840E+02
     19.397  0.1625E+01  0.5857E+02
     19.502  0.1349E-01  0.5857E+02
     19.607 -0.1928E+00  0.5855E+02
     19.712 -0.6095E-01  0.5854E+02
     19.817 -0.1661E-01  0.5854E+02
     19.922 -0.4946E-01  0.5854E+02
     20.027 -0.1107E+00  0.5853E+02
     20.132  0.1252E+00  0.5854E+02
     20.237  0.1156E+01  0.5866E+02
     20.342  0.2479E+01  0.5892E+02
     20.447  0.2653E+01  0.5920E+02
     20.552  0.1452E+01  0.5935E+02
     20.657  0.2586E+00  0.5938E+02
     20.762 -0.1089E+00  0.5937E+02
     20.867 -0.6322E-01  0.5936E+02
     20.972 -0.1253E-01  0.5936E+02
     21.077 -0.1223E-02  0.5936E+02
     21.182 -0.6365E-04  0.5936E+02
     21.287 -0.1825E-05  0.5936E+02
     21.392 -0.2931E-07  0.5936E+02
     21.497 -0.3995E-08  0.5936E+02
     21.602 -0.2993E-06  0.5936E+02
     21.707 -0.1346E-04  0.5936E+02
     21.812 -0.3343E-03  0.5936E+02
     21.917 -0.4457E-02  0.5936E+02
     22.022 -0.2983E-01  0.5936E+02
     22.127 -0.7861E-01  0.5935E+02
     22.232  0.7408E-01  0.5936E+02
     22.337  0.8024E+00  0.5944E+02
     22.442  0.1536E+01  0.5960E+02
     22.547  0.1183E+01  0.5973E+02
     22.652  0.3033E+00  0.5976E+02
     22.757 -0.6623E-01  0.5975E+02
     22.862 -0.5137E-01  0.5975E+02
     22.967 -0.1069E-01  0.5974E+02
     23.072 -0.1053E-02  0.5974E+02
     23.177 -0.5454E-04  0.5974E+02
     23.282 -0.1546E-05  0.5974E+02
     23.388 -0.2444E-07  0.5974E+02
     23.493 -0.2176E-09  0.5974E+02
     23.598 -0.1098E-11  0.5974E+02
     23.703 -0.3247E-14  0.5974E+02
     23.808  0.0000E+00  0.5974E+02
     23.913  0.0000E+00  0.5974E+02
     24.018 -0.1847E-29  0.5974E+02
     24.123 -0.8720E-26  0.5974E+02
     24.228 -0.2361E-22  0.5974E+02
     24.333 -0.3664E-19  0.5974E+02
     24.438 -0.3255E-16  0.5974E+02
     24.543 -0.1600E-13  0.5974E+02
     24.648 -0.4625E-11  0.5974E+02
     24.753 -0.7574E-09  0.5974E+02
     24.858 -0.7019E-07  0.5974E+02
     24.963 -0.3653E-05  0.5974E+02
     25.068 -0.1055E-03  0.5974E+02
     25.173 -0.1650E-02  0.5974E+02
     25.278 -0.1327E-01  0.5974E+02
     25.383 -0.4652E-01  0.5974E+02
     25.488 -0.6133E-02  0.5974E+02
     25.593  0.3809E+00  0.5978E+02
     25.698  0.9521E+00  0.5988E+02
     25.803  0.9167E+00  0.5997E+02
     25.908  0.3314E+00  0.6001E+02
     26.013 -0.1942E-01  0.6001E+02
     26.118 -0.4362E-01  0.6000E+02
     26.223 -0.1141E-01  0.6000E+02
     26.328 -0.1336E-02  0.6000E+02
     26.433 -0.8087E-04  0.6000E+02
     26.538 -0.2661E-05  0.6000E+02
     26.643 -0.4863E-07  0.6000E+02
     26.748 -0.4996E-09  0.6000E+02
     26.853 -0.2905E-11  0.6000E+02
     26.958 -0.9742E-14  0.6000E+02
     27.063  0.0000E+00  0.6000E+02
     27.168  0.0000E+00  0.6000E+02
     27.273  0.0000E+00  0.6000E+02
     27.378  0.0000E+00  0.6000E+02
     27.484  0.0000E+00  0.6000E+02
     27.589  0.0000E+00  0.6000E+02
     27.694  0.0000E+00  0.6000E+02
