<?xml version="1.0" encoding="ISO-8859-1"?>
<modeling>
 <generator>
  <i name="program" type="string">vasp </i>
  <i name="version" type="string">6.2.0  </i>
  <i name="subversion" type="string">18Jan21 (build Mar 17 2021 09:06:54) complex                          serial </i>
  <i name="platform" type="string">LinuxIFC </i>
  <i name="date" type="string">2021 08 03 </i>
  <i name="time" type="string">10:15:04 </i>
 </generator>
 <incar>
  <i type="string" name="PREC">normal</i>
  <i type="int" name="ICHARG">     1</i>
  <i type="int" name="IBRION">    -1</i>
  <i name="EDIFF">      0.00000100</i>
  <i type="int" name="NSW">     0</i>
  <i name="ENCUT">    230.00000000</i>
  <i type="int" name="NBANDS">    30</i>
  <i type="int" name="ISMEAR">     1</i>
  <i name="SIGMA">      0.20000000</i>
  <i type="logical" name="LCHARG"> T  </i>
  <i type="int" name="KPAR">     1</i>
  <i type="int" name="NCORE">     1</i>
  <i type="string" name="GGA">PE</i>
 </incar>
 <primitive_cell>
  <structure name="primitive_cell" >
   <crystal>
    <varray name="basis" >
     <v>       1.81750000      -1.81750000       0.00000000 </v>
     <v>       1.81750000       0.00000000       1.81750000 </v>
     <v>       0.00000000      -1.81750000       1.81750000 </v>
    </varray>
    <i name="volume">     12.00751822 </i>
    <varray name="rec_basis" >
     <v>       0.27510316      -0.27510316      -0.27510316 </v>
     <v>       0.27510316       0.27510316       0.27510316 </v>
     <v>      -0.27510316      -0.27510316       0.27510316 </v>
    </varray>
   </crystal>
   <varray name="positions" >
    <v>       0.00000000       0.00000000       0.00000000 </v>
   </varray>
  </structure>
  <varray name="primitive_index" >
   <v type="int" >        1 </v>
  </varray>
 </primitive_cell>
 <kpoints>
  <generation param="Monkhorst-Pack">
   <v type="int" name="divisions">       5        5        5 </v>
   <v name="usershift">      0.00000000       0.00000000       0.00000000 </v>
   <v name="genvec1">      0.20000000       0.00000000       0.00000000 </v>
   <v name="genvec2">      0.00000000       0.20000000       0.00000000 </v>
   <v name="genvec3">      0.00000000       0.00000000       0.20000000 </v>
   <v name="shift">      0.00000000       0.00000000       0.00000000 </v>
  </generation>
  <varray name="kpointlist" >
   <v>       0.00000000       0.00000000       0.00000000 </v>
   <v>       0.20000000       0.00000000       0.00000000 </v>
   <v>       0.40000000       0.00000000       0.00000000 </v>
   <v>       0.20000000       0.20000000       0.00000000 </v>
   <v>       0.40000000       0.20000000       0.00000000 </v>
   <v>       0.40000000       0.40000000       0.00000000 </v>
   <v>       0.20000000       0.20000000       0.20000000 </v>
   <v>       0.40000000       0.20000000       0.20000000 </v>
   <v>       0.40000000       0.40000000       0.20000000 </v>
   <v>       0.40000000       0.40000000       0.40000000 </v>
  </varray>
  <varray name="weights" >
   <v>       0.00800000 </v>
   <v>       0.04800000 </v>
   <v>       0.04800000 </v>
   <v>       0.09600000 </v>
   <v>       0.19200000 </v>
   <v>       0.09600000 </v>
   <v>       0.06400000 </v>
   <v>       0.19200000 </v>
   <v>       0.19200000 </v>
   <v>       0.06400000 </v>
  </varray>
 </kpoints>
 <parameters>
  <separator name="general" >
   <i type="string" name="SYSTEM">unknown system</i>
   <i type="logical" name="LCOMPAT"> F  </i>
  </separator>
  <separator name="electronic" >
   <i type="string" name="PREC">normal</i>
   <i name="ENMAX">    230.00000000</i>
   <i name="ENAUG">    586.98000000</i>
   <i name="EDIFF">      0.00000100</i>
   <i type="int" name="IALGO">    38</i>
   <i type="int" name="IWAVPR">     0</i>
   <i type="int" name="NBANDS">    30</i>
   <i type="int" name="NBANDSLOW">    -1</i>
   <i type="int" name="NBANDSHIGH">    -1</i>
   <i name="NELECT">     44.00000000</i>
   <i type="int" name="TURBO">     0</i>
   <i type="int" name="IRESTART">     0</i>
   <i type="int" name="NREBOOT">     0</i>
   <i type="int" name="NMIN">     0</i>
   <i name="EREF">      0.00000000</i>
   <separator name="electronic smearing" >
    <i type="int" name="ISMEAR">     1</i>
    <i name="SIGMA">      0.20000000</i>
    <i name="KSPACING">      0.50000000</i>
    <i type="logical" name="KGAMMA"> T  </i>
    <i type="logical" name="KBLOWUP"> T  </i>
   </separator>
   <separator name="electronic projectors" >
    <i type="logical" name="LREAL"> F  </i>
    <v name="ROPT">      0.00000000</v>
    <i type="int" name="LMAXPAW">  -100</i>
    <i type="int" name="LMAXMIX">     2</i>
    <i type="logical" name="NLSPLINE"> F  </i>
   </separator>
   <separator name="electronic startup" >
    <i type="int" name="ISTART">     1</i>
    <i type="int" name="ICHARG">     1</i>
    <i type="int" name="INIWAV">     1</i>
   </separator>
   <separator name="electronic spin" >
    <i type="int" name="ISPIN">     1</i>
    <i type="logical" name="LNONCOLLINEAR"> F  </i>
    <v name="MAGMOM">      1.00000000      1.00000000      1.00000000      1.00000000</v>
    <i name="NUPDOWN">     -1.00000000</i>
    <i type="logical" name="LSORBIT"> F  </i>
    <v name="SAXIS">      0.00000000      0.00000000      1.00000000</v>
    <i type="logical" name="LSPIRAL"> F  </i>
    <v name="QSPIRAL">      0.00000000      0.00000000      0.00000000</v>
    <i type="logical" name="LZEROZ"> F  </i>
   </separator>
   <separator name="electronic exchange-correlation" >
    <i type="logical" name="LASPH"> F  </i>
    <i type="logical" name="LMETAGGA"> F  </i>
   </separator>
   <separator name="electronic convergence" >
    <i type="int" name="NELM">    60</i>
    <i type="int" name="NELMDL">     0</i>
    <i type="int" name="NELMIN">     2</i>
    <i name="ENINI">    230.00000000</i>
    <separator name="electronic convergence detail" >
     <i type="logical" name="LDIAG"> T  </i>
     <i type="logical" name="LSUBROT"> F  </i>
     <i name="WEIMIN">      0.00000000</i>
     <i name="EBREAK">      0.00000001</i>
     <i name="DEPER">      0.30000000</i>
     <i type="int" name="NRMM">     4</i>
     <i name="TIME">      0.40000000</i>
    </separator>
   </separator>
   <separator name="electronic mixer" >
    <i name="AMIX">      0.40000000</i>
    <i name="BMIX">      1.00000000</i>
    <i name="AMIN">      0.10000000</i>
    <i name="AMIX_MAG">      1.60000000</i>
    <i name="BMIX_MAG">      1.00000000</i>
    <separator name="electronic mixer details" >
     <i type="int" name="IMIX">     4</i>
     <i type="logical" name="MIXFIRST"> F  </i>
     <i type="int" name="MAXMIX">   -45</i>
     <i name="WC">    100.00000000</i>
     <i type="int" name="INIMIX">     1</i>
     <i type="int" name="MIXPRE">     1</i>
     <i type="int" name="MREMOVE">     5</i>
    </separator>
   </separator>
   <separator name="electronic dipolcorrection" >
    <i type="logical" name="LDIPOL"> F  </i>
    <i type="logical" name="LMONO"> F  </i>
    <i type="int" name="IDIPOL">     0</i>
    <i name="EPSILON">      1.00000000</i>
    <v name="DIPOL">   -100.00000000   -100.00000000   -100.00000000</v>
    <i name="EFIELD">      0.00000000</i>
   </separator>
  </separator>
  <separator name="grids" >
   <i type="int" name="NGX">    14</i>
   <i type="int" name="NGY">    14</i>
   <i type="int" name="NGZ">    14</i>
   <i type="int" name="NGXF">    28</i>
   <i type="int" name="NGYF">    28</i>
   <i type="int" name="NGZF">    28</i>
   <i type="logical" name="ADDGRID"> F  </i>
  </separator>
  <separator name="ionic" >
   <i type="int" name="NSW">     0</i>
   <i type="int" name="IBRION">    -1</i>
   <i type="int" name="MDALGO">     0</i>
   <i type="int" name="ISIF">     2</i>
   <i name="PSTRESS">      0.00000000</i>
   <i name="EDIFFG">      0.00001000</i>
   <i type="int" name="NFREE">     0</i>
   <i name="POTIM">      0.50000000</i>
   <i name="SMASS">     -3.00000000</i>
   <i name="SCALEE">      1.00000000</i>
  </separator>
  <separator name="ionic md" >
   <i name="TEBEG">      0.00010000</i>
   <i name="TEEND">      0.00010000</i>
   <i type="int" name="NBLOCK">     1</i>
   <i type="int" name="KBLOCK">     1</i>
   <i type="int" name="NPACO">   256</i>
   <i name="APACO">     16.00000000</i>
  </separator>
  <separator name="symmetry" >
   <i type="int" name="ISYM">     2</i>
   <i name="SYMPREC">      0.00001000</i>
  </separator>
  <separator name="dos" >
   <i type="int" name="LORBIT">     0</i>
   <v name="RWIGS">     -1.00000000</v>
   <i type="int" name="NEDOS">   301</i>
   <i name="EMIN">     10.00000000</i>
   <i name="EMAX">    -10.00000000</i>
   <i name="EFERMI">      0.00000000</i>
  </separator>
  <separator name="writing" >
   <i type="int" name="NWRITE">     2</i>
   <i type="logical" name="LWAVE"> T  </i>
   <i type="logical" name="LDOWNSAMPLE"> F  </i>
   <i type="logical" name="LCHARG"> T  </i>
   <i type="logical" name="LPARD"> F  </i>
   <i type="logical" name="LVTOT"> F  </i>
   <i type="logical" name="LVHAR"> F  </i>
   <i type="logical" name="LELF"> F  </i>
   <i type="logical" name="LOPTICS"> F  </i>
   <v name="STM">      0.00000000      0.00000000      0.00000000      0.00000000      0.00000000      0.00000000      0.00000000</v>
  </separator>
  <separator name="performance" >
   <i type="int" name="NPAR">     1</i>
   <i type="int" name="NSIM">     4</i>
   <i type="int" name="NBLK">    -1</i>
   <i type="logical" name="LPLANE"> T  </i>
   <i type="logical" name="LSCALAPACK"> F  </i>
   <i type="logical" name="LSCAAWARE"> F  </i>
   <i type="logical" name="LSCALU"> F  </i>
   <i type="logical" name="LASYNC"> F  </i>
   <i type="logical" name="LORBITALREAL"> F  </i>
  </separator>
  <separator name="miscellaneous" >
   <i type="int" name="IDIOT">     3</i>
   <i type="int" name="PHON_NSTRUCT">    -1</i>
   <i type="logical" name="LMUSIC"> F  </i>
   <v name="POMASS">     63.54600000</v>
   <v name="DARWINR">      0.00000000</v>
   <v name="DARWINV">      1.00000000</v>
   <i type="logical" name="LCORR"> T  </i>
  </separator>
  <i type="logical" name="GGA_COMPAT"> T  </i>
  <i type="logical" name="LBERRY"> F  </i>
  <i type="int" name="ICORELEVEL">     0</i>
  <i type="logical" name="LDAU"> F  </i>
  <i type="int" name="I_CONSTRAINED_M">     0</i>
  <separator name="electronic exchange-correlation" >
   <i type="string" name="GGA">PE</i>
   <i type="int" name="VOSKOWN">     0</i>
   <i type="logical" name="LHFCALC"> F  </i>
   <i type="string" name="PRECFOCK"></i>
   <i type="logical" name="LSYMGRAD"> F  </i>
   <i type="logical" name="LHFONE"> F  </i>
   <i type="logical" name="LRHFCALC"> F  </i>
   <i type="logical" name="LTHOMAS"> F  </i>
   <i type="logical" name="LMODELHF"> F  </i>
   <i type="logical" name="LFOCKACE"> F  </i>
   <i name="ENCUT4O">     -1.00000000</i>
   <i type="int" name="EXXOEP">     0</i>
   <i type="int" name="FOURORBIT">     0</i>
   <i name="AEXX">      0.00000000</i>
   <i name="HFALPHA">      0.00000000</i>
   <i name="MCALPHA">      0.00000000</i>
   <i name="ALDAX">      1.00000000</i>
   <i name="AGGAX">      1.00000000</i>
   <i name="ALDAC">      1.00000000</i>
   <i name="AGGAC">      1.00000000</i>
   <i type="int" name="NKREDX">     1</i>
   <i type="int" name="NKREDY">     1</i>
   <i type="int" name="NKREDZ">     1</i>
   <i type="logical" name="SHIFTRED"> F  </i>
   <i type="logical" name="ODDONLY"> F  </i>
   <i type="logical" name="EVENONLY"> F  </i>
   <i type="int" name="LMAXFOCK">     0</i>
   <i type="int" name="NMAXFOCKAE">     0</i>
   <i type="logical" name="LFOCKAEDFT"> F  </i>
   <i name="HFSCREEN">      0.00000000</i>
   <i name="HFSCREENC">      0.00000000</i>
   <i type="int" name="NBANDSGWLOW">     0</i>
  </separator>
  <separator name="vdW DFT" >
   <i type="logical" name="LUSE_VDW"> F  </i>
   <i name="Zab_VDW">     -0.84910000</i>
   <i name="PARAM1">      0.12340000</i>
   <i name="PARAM2">      1.00000000</i>
   <i name="PARAM3">      0.00000000</i>
  </separator>
  <separator name="model GW" >
   <i type="int" name="MODEL_GW">     0</i>
   <i name="MODEL_EPS0">      7.20451093</i>
   <i name="MODEL_ALPHA">      1.00000000</i>
  </separator>
  <separator name="linear response parameters" >
   <i type="logical" name="LEPSILON"> F  </i>
   <i type="logical" name="LRPA"> F  </i>
   <i type="logical" name="LNABLA"> F  </i>
   <i type="logical" name="LVEL"> F  </i>
   <i type="int" name="KINTER">     0</i>
   <i name="CSHIFT">      0.10000000</i>
   <i name="OMEGAMAX">     -1.00000000</i>
   <i name="DEG_THRESHOLD">      0.00200000</i>
   <i name="RTIME">     -0.10000000</i>
   <i name="WPLASMAI">      0.00000000</i>
   <v name="DFIELD">      0.00000000      0.00000000      0.00000000</v>
   <v name="WPLASMA">      0.00000000      0.00000000      0.00000000      0.00000000      0.00000000      0.00000000      0.00000000      0.00000000      0.00000000</v>
  </separator>
  <separator name="orbital magnetization" >
   <i type="logical" name="NUCIND"> F  </i>
   <v name="MAGPOS">      0.00000000      0.00000000      0.00000000</v>
   <i type="logical" name="LNICSALL"> T  </i>
   <i type="logical" name="ORBITALMAG"> F  </i>
   <i type="logical" name="LMAGBLOCH"> F  </i>
   <i type="logical" name="LCHIMAG"> F  </i>
   <i type="logical" name="LGAUGE"> T  </i>
   <i type="int" name="MAGATOM">     0</i>
   <v name="MAGDIPOL">      0.00000000      0.00000000      0.00000000</v>
   <v name="AVECCONST">      0.00000000      0.00000000      0.00000000</v>
  </separator>
  <separator name="response functions" >
   <i type="logical" name="LFINITE_TEMPERATURE"> F  </i>
   <i type="logical" name="LADDER"> F  </i>
   <i type="logical" name="LRPAFORCE"> F  </i>
   <i type="logical" name="LFXC"> F  </i>
   <i type="logical" name="LHARTREE"> T  </i>
   <i type="int" name="IBSE">     0</i>
   <v type="int" name="KPOINT">    -1     0     0     0</v>
   <i type="logical" name="LTCTC"> F  </i>
   <i type="logical" name="LTCTE"> F  </i>
   <i type="logical" name="LTETE"> F  </i>
   <i type="logical" name="LTRIPLET"> F  </i>
   <i type="logical" name="LFXCEPS"> F  </i>
   <i type="logical" name="LFXHEG"> F  </i>
   <i type="int" name="NATURALO">     2</i>
   <i type="logical" name="LHOLEGF"> F  </i>
   <i type="logical" name="L2ORDER"> F  </i>
   <i type="logical" name="LDMP1"> F  </i>
   <i type="logical" name="LMP2LT"> F  </i>
   <i type="logical" name="LSMP2LT"> F  </i>
   <i type="logical" name="LGWLF"> F  </i>
   <i name="ENCUTGW">     -2.00000000</i>
   <i name="ENCUTGWSOFT">     -2.00000000</i>
   <i name="ENCUTLF">     -1.00000000</i>
   <i type="logical" name="LESF_SPLINES"> F  </i>
   <i type="int" name="LMAXMP2">    -1</i>
   <i name="SCISSOR">      0.00000000</i>
   <i type="int" name="NOMEGA">     0</i>
   <i type="int" name="NOMEGAR">     0</i>
   <i type="int" name="NBANDSGW">    -1</i>
   <i type="int" name="NBANDSO">    -1</i>
   <i type="int" name="NBANDSV">    -1</i>
   <i type="int" name="NELM">     1</i>
   <i type="int" name="NELMHF">     1</i>
   <i type="int" name="DIM">     3</i>
   <i type="int" name="IESPILON">     4</i>
   <i type="int" name="ANTIRES">     0</i>
   <i name="OMEGAMAX">    -30.00000000</i>
   <i name="OMEGAMIN">    -30.00000000</i>
   <i name="OMEGATL">   -200.00000000</i>
   <i type="int" name="OMEGAGRID">     0</i>
   <i name="CSHIFT">     -0.10000000</i>
   <i type="logical" name="LSELFENERGY"> F  </i>
   <i type="logical" name="LSPECTRAL"> F  </i>
   <i type="logical" name="LSPECTRALGW"> F  </i>
   <i type="logical" name="LSINGLES"> F  </i>
   <i type="logical" name="LFERMIGW"> F  </i>
   <i type="logical" name="ODDONLYGW"> F  </i>
   <i type="logical" name="EVENONLYGW"> F  </i>
   <i type="int" name="NKREDLFX">     1</i>
   <i type="int" name="NKREDLFY">     1</i>
   <i type="int" name="NKREDLFZ">     1</i>
   <i type="int" name="MAXMEM">  2800</i>
   <i type="int" name="TELESCOPE">     0</i>
   <i type="int" name="NTAUPAR">    -1</i>
   <i type="int" name="NOMEGAPAR">    -1</i>
   <i name="DAMP_NEWTON">      0.80000001</i>
   <i name="LAMBDA">      1.00000000</i>
  </separator>
  <separator name="External order field" >
   <i name="OFIELD_KAPPA">      0.00000000</i>
   <v name="OFIELD_K">      0.00000000      0.00000000      0.00000000</v>
   <i name="OFIELD_Q6_NEAR">      0.00000000</i>
   <i name="OFIELD_Q6_FAR">      0.00000000</i>
   <i name="OFIELD_A">      0.00000000</i>
  </separator>
 </parameters>
 <atominfo>
  <atoms>       4 </atoms>
  <types>       1 </types>
  <array name="atoms" >
   <dimension dim="1">ion</dimension>
   <field type="string">element</field>
   <field type="int">atomtype</field>
   <set>
    <rc><c>Cu</c><c>   1</c></rc>
    <rc><c>Cu</c><c>   1</c></rc>
    <rc><c>Cu</c><c>   1</c></rc>
    <rc><c>Cu</c><c>   1</c></rc>
   </set>
  </array>
  <array name="atomtypes" >
   <dimension dim="1">type</dimension>
   <field type="int">atomspertype</field>
   <field type="string">element</field>
   <field>mass</field>
   <field>valence</field>
   <field type="string">pseudopotential</field>
   <set>
    <rc><c>   4</c><c>Cu</c><c>     63.54600000</c><c>     11.00000000</c><c>  PAW_PBE Cu 22Jun2005                  </c></rc>
   </set>
  </array>
 </atominfo>
 <structure name="initialpos" >
  <crystal>
   <varray name="basis" >
    <v>       3.63500000       0.00000000       0.00000000 </v>
    <v>       0.00000000       3.63500000       0.00000000 </v>
    <v>       0.00000000       0.00000000       3.63500000 </v>
   </varray>
   <i name="volume">     48.03007287 </i>
   <varray name="rec_basis" >
    <v>       0.27510316       0.00000000       0.00000000 </v>
    <v>       0.00000000       0.27510316       0.00000000 </v>
    <v>       0.00000000       0.00000000       0.27510316 </v>
   </varray>
  </crystal>
  <varray name="positions" >
   <v>       0.00000000       0.00000000       0.00000000 </v>
   <v>       0.50000000       0.50000000       0.00000000 </v>
   <v>       0.50000000       0.00000000       0.50000000 </v>
   <v>       0.00000000       0.50000000       0.50000000 </v>
  </varray>
 </structure>
 <calculation>
  <scstep>
   <time name="dav">    0.14    0.14</time>
   <time name="total">    0.16    0.16</time>
   <energy>
    <i name="alphaZ">    243.62337785 </i>
    <i name="ewald">  -4395.34838493 </i>
    <i name="hartreedc">  -1370.66872230 </i>
    <i name="XCdc">    178.47412734 </i>
    <i name="pawpsdc">   5304.91233243 </i>
    <i name="pawaedc">  -5727.40732877 </i>
    <i name="eentropy">     -0.02388704 </i>
    <i name="bandstr">    191.82229871 </i>
    <i name="atom">   5561.55158176 </i>
    <i name="e_fr_energy">    -13.06460496 </i>
    <i name="e_wo_entrp">    -13.04071792 </i>
    <i name="e_0_energy">    -13.05664261 </i>
   </energy>
  </scstep>
  <scstep>
   <time name="dav">    0.10    0.10</time>
   <time name="total">    0.12    0.12</time>
   <energy>
    <i name="e_fr_energy">    -13.06305040 </i>
    <i name="e_wo_entrp">    -13.03932520 </i>
    <i name="e_0_energy">    -13.05514200 </i>
   </energy>
  </scstep>
  <scstep>
   <time name="dav">    0.06    0.06</time>
   <time name="total">    0.08    0.08</time>
   <energy>
    <i name="e_fr_energy">    -13.06304886 </i>
    <i name="e_wo_entrp">    -13.03929147 </i>
    <i name="e_0_energy">    -13.05512973 </i>
   </energy>
  </scstep>
  <scstep>
   <time name="dav">    0.05    0.05</time>
   <time name="total">    0.06    0.06</time>
   <energy>
    <i name="alphaZ">    243.62337785 </i>
    <i name="ewald">  -4395.34838493 </i>
    <i name="hartreedc">  -1370.66628482 </i>
    <i name="XCdc">    178.47401263 </i>
    <i name="pawpsdc">   5304.90926314 </i>
    <i name="pawaedc">  -5727.40620201 </i>
    <i name="eentropy">     -0.02376348 </i>
    <i name="bandstr">    191.82335113 </i>
    <i name="atom">   5561.55158176 </i>
    <i name="e_fr_energy">    -13.06304876 </i>
    <i name="e_wo_entrp">    -13.03928527 </i>
    <i name="e_0_energy">    -13.05512760 </i>
   </energy>
  </scstep>
  <structure>
   <crystal>
    <varray name="basis" >
     <v>       3.63500000       0.00000000       0.00000000 </v>
     <v>       0.00000000       3.63500000       0.00000000 </v>
     <v>       0.00000000       0.00000000       3.63500000 </v>
    </varray>
    <i name="volume">     48.03007287 </i>
    <varray name="rec_basis" >
     <v>       0.27510316       0.00000000       0.00000000 </v>
     <v>       0.00000000       0.27510316       0.00000000 </v>
     <v>       0.00000000       0.00000000       0.27510316 </v>
    </varray>
   </crystal>
   <varray name="positions" >
    <v>       0.00000000       0.00000000       0.00000000 </v>
    <v>       0.50000000       0.50000000       0.00000000 </v>
    <v>       0.50000000       0.00000000       0.50000000 </v>
    <v>       0.00000000       0.50000000       0.50000000 </v>
   </varray>
  </structure>
  <varray name="forces" >
   <v>      -0.00000000       0.00000000       0.00000000 </v>
   <v>      -0.00000000      -0.00000000      -0.00000000 </v>
   <v>       0.00000000      -0.00000000      -0.00000000 </v>
   <v>       0.00000000      -0.00000000       0.00000000 </v>
  </varray>
  <varray name="stress" >
   <v>    -932.60791935       0.00000000      -0.00000000 </v>
   <v>       0.00000000    -932.60791935       0.00000000 </v>
   <v>      -0.00000000       0.00000000    -932.60791935 </v>
  </varray>
  <energy>
   <i name="e_fr_energy">    -13.06304876 </i>
   <i name="e_wo_entrp">    -13.03928527 </i>
   <i name="e_0_energy">    -13.05512760 </i>
  </energy>
  <time name="totalsc">    0.52    0.52</time>
  <eigenvalues>
   <array>
    <dimension dim="1">band</dimension>
    <dimension dim="2">kpoint</dimension>
    <dimension dim="3">spin</dimension>
    <field>eigene</field>
    <field>occ</field>
    <set>
     <set comment="spin 1">
      <set comment="kpoint 1">
       <r>   -1.8141    1.0000 </r>
       <r>    2.5784    1.0000 </r>
       <r>    2.5784    1.0000 </r>
       <r>    2.5784    1.0000 </r>
       <r>    3.2285    1.0000 </r>
       <r>    3.2285    1.0000 </r>
       <r>    3.2285    1.0000 </r>
       <r>    4.2869    1.0000 </r>
       <r>    4.2869    1.0000 </r>
       <r>    4.2869    1.0000 </r>
       <r>    5.0576    1.0000 </r>
       <r>    5.0576    1.0000 </r>
       <r>    5.6667    1.0000 </r>
       <r>    5.6667    1.0000 </r>
       <r>    5.6667    1.0000 </r>
       <r>    5.7754    1.0000 </r>
       <r>    5.7754    1.0000 </r>
       <r>    5.7754    1.0000 </r>
       <r>    5.7754    1.0000 </r>
       <r>    5.7754    1.0000 </r>
       <r>    5.7754    1.0000 </r>
       <r>    8.9300   -0.0000 </r>
       <r>    8.9300   -0.0000 </r>
       <r>    8.9300   -0.0000 </r>
       <r>   14.3270    0.0000 </r>
       <r>   14.3270    0.0000 </r>
       <r>   14.3270    0.0000 </r>
       <r>   20.3705    0.0000 </r>
       <r>   20.3705    0.0000 </r>
       <r>   20.3705    0.0000 </r>
      </set>
      <set comment="kpoint 2">
       <r>   -1.3372    1.0000 </r>
       <r>    2.5454    1.0000 </r>
       <r>    2.7680    1.0000 </r>
       <r>    2.7680    1.0000 </r>
       <r>    3.2530    1.0000 </r>
       <r>    3.2530    1.0000 </r>
       <r>    3.3536    1.0000 </r>
       <r>    4.1755    1.0000 </r>
       <r>    4.5652    1.0000 </r>
       <r>    4.5652    1.0000 </r>
       <r>    5.0016    1.0000 </r>
       <r>    5.1532    1.0000 </r>
       <r>    5.1532    1.0000 </r>
       <r>    5.1797    1.0000 </r>
       <r>    5.4857    1.0000 </r>
       <r>    5.4857    1.0000 </r>
       <r>    5.6022    1.0000 </r>
       <r>    5.6022    1.0000 </r>
       <r>    5.6201    1.0000 </r>
       <r>    5.7778    1.0000 </r>
       <r>    5.7778    1.0000 </r>
       <r>    6.8326    1.0163 </r>
       <r>    9.9778   -0.0000 </r>
       <r>    9.9778   -0.0000 </r>
       <r>   14.5136    0.0000 </r>
       <r>   14.5136    0.0000 </r>
       <r>   17.3990    0.0000 </r>
       <r>   18.0991    0.0000 </r>
       <r>   18.0991    0.0000 </r>
       <r>   18.7661    0.0000 </r>
      </set>
      <set comment="kpoint 3">
       <r>    0.0180    1.0000 </r>
       <r>    1.8157    1.0000 </r>
       <r>    3.1600    1.0000 </r>
       <r>    3.1600    1.0000 </r>
       <r>    3.5511    1.0000 </r>
       <r>    3.5511    1.0000 </r>
       <r>    3.6913    1.0000 </r>
       <r>    3.8430    1.0000 </r>
       <r>    4.2241    1.0000 </r>
       <r>    4.2241    1.0000 </r>
       <r>    4.7524    1.0000 </r>
       <r>    4.8271    1.0000 </r>
       <r>    4.8271    1.0000 </r>
       <r>    4.9906    1.0000 </r>
       <r>    5.1786    1.0000 </r>
       <r>    5.1786    1.0000 </r>
       <r>    5.2148    1.0000 </r>
       <r>    5.2148    1.0000 </r>
       <r>    5.2817    1.0000 </r>
       <r>    5.5014    1.0000 </r>
       <r>    5.7369    1.0000 </r>
       <r>    5.7369    1.0000 </r>
       <r>   12.1850   -0.0000 </r>
       <r>   12.1850   -0.0000 </r>
       <r>   14.9631    0.0000 </r>
       <r>   14.9631    0.0000 </r>
       <r>   15.1615    0.0000 </r>
       <r>   15.1615    0.0000 </r>
       <r>   16.6293    0.0000 </r>
       <r>   16.6293    0.0000 </r>
      </set>
      <set comment="kpoint 4">
       <r>   -0.8725    1.0000 </r>
       <r>    2.7486    1.0000 </r>
       <r>    2.7486    1.0000 </r>
       <r>    2.9660    1.0000 </r>
       <r>    3.2852    1.0000 </r>
       <r>    3.2852    1.0000 </r>
       <r>    3.3250    1.0000 </r>
       <r>    4.2650    1.0000 </r>
       <r>    4.4965    1.0000 </r>
       <r>    4.5183    1.0000 </r>
       <r>    4.8306    1.0000 </r>
       <r>    4.8476    1.0000 </r>
       <r>    4.8476    1.0000 </r>
       <r>    5.0134    1.0000 </r>
       <r>    5.2104    1.0000 </r>
       <r>    5.3564    1.0000 </r>
       <r>    5.4563    1.0000 </r>
       <r>    5.4563    1.0000 </r>
       <r>    5.5799    1.0000 </r>
       <r>    5.5799    1.0000 </r>
       <r>    5.6601    1.0000 </r>
       <r>    7.8054   -0.0000 </r>
       <r>    7.8054   -0.0000 </r>
       <r>   10.8301   -0.0000 </r>
       <r>   14.4826    0.0000 </r>
       <r>   14.9827    0.0000 </r>
       <r>   17.7287    0.0000 </r>
       <r>   17.7287    0.0000 </r>
       <r>   18.6814    0.0000 </r>
       <r>   18.6814    0.0000 </r>
      </set>
      <set comment="kpoint 5">
       <r>    0.4376    1.0000 </r>
       <r>    2.1221    1.0000 </r>
       <r>    3.2764    1.0000 </r>
       <r>    3.3546    1.0000 </r>
       <r>    3.5143    1.0000 </r>
       <r>    3.6101    1.0000 </r>
       <r>    3.6454    1.0000 </r>
       <r>    3.9600    1.0000 </r>
       <r>    4.0556    1.0000 </r>
       <r>    4.1731    1.0000 </r>
       <r>    4.5063    1.0000 </r>
       <r>    4.5692    1.0000 </r>
       <r>    4.8025    1.0000 </r>
       <r>    4.9198    1.0000 </r>
       <r>    5.1445    1.0000 </r>
       <r>    5.1569    1.0000 </r>
       <r>    5.2145    1.0000 </r>
       <r>    5.2618    1.0000 </r>
       <r>    5.4356    1.0000 </r>
       <r>    5.5774    1.0000 </r>
       <r>    5.5961    1.0000 </r>
       <r>    5.9755    1.0000 </r>
       <r>    9.5077   -0.0000 </r>
       <r>   11.7242   -0.0000 </r>
       <r>   12.8593    0.0000 </r>
       <r>   15.5296    0.0000 </r>
       <r>   15.5563    0.0000 </r>
       <r>   17.0184    0.0000 </r>
       <r>   18.8303    0.0000 </r>
       <r>   20.2825    0.0000 </r>
      </set>
      <set comment="kpoint 6">
       <r>    1.5696    1.0000 </r>
       <r>    2.8656    1.0000 </r>
       <r>    2.8656    1.0000 </r>
       <r>    3.3414    1.0000 </r>
       <r>    3.7296    1.0000 </r>
       <r>    3.8146    1.0000 </r>
       <r>    3.8146    1.0000 </r>
       <r>    3.9304    1.0000 </r>
       <r>    4.0395    1.0000 </r>
       <r>    4.0945    1.0000 </r>
       <r>    4.0945    1.0000 </r>
       <r>    4.3326    1.0000 </r>
       <r>    4.8247    1.0000 </r>
       <r>    4.9152    1.0000 </r>
       <r>    5.0077    1.0000 </r>
       <r>    5.0077    1.0000 </r>
       <r>    5.0150    1.0000 </r>
       <r>    5.2318    1.0000 </r>
       <r>    5.2318    1.0000 </r>
       <r>    5.3325    1.0000 </r>
       <r>    5.9387    1.0000 </r>
       <r>    7.0628    0.9210 </r>
       <r>    7.0628    0.9210 </r>
       <r>    8.8471   -0.0000 </r>
       <r>   14.6387    0.0000 </r>
       <r>   16.5003    0.0000 </r>
       <r>   17.1769    0.0000 </r>
       <r>   17.1769    0.0000 </r>
       <r>   18.2812    0.0000 </r>
       <r>   18.2812    0.0000 </r>
      </set>
      <set comment="kpoint 7">
       <r>   -0.4252    1.0000 </r>
       <r>    2.9573    1.0000 </r>
       <r>    2.9573    1.0000 </r>
       <r>    2.9573    1.0000 </r>
       <r>    3.4010    1.0000 </r>
       <r>    3.4010    1.0000 </r>
       <r>    3.4010    1.0000 </r>
       <r>    4.1967    1.0000 </r>
       <r>    4.5026    1.0000 </r>
       <r>    4.5026    1.0000 </r>
       <r>    4.6351    1.0000 </r>
       <r>    4.6351    1.0000 </r>
       <r>    4.6351    1.0000 </r>
       <r>    5.1436    1.0000 </r>
       <r>    5.1436    1.0000 </r>
       <r>    5.1436    1.0000 </r>
       <r>    5.1581    1.0000 </r>
       <r>    5.1581    1.0000 </r>
       <r>    5.6965    1.0000 </r>
       <r>    5.6965    1.0000 </r>
       <r>    5.6965    1.0000 </r>
       <r>    8.4356   -0.0000 </r>
       <r>    8.4356   -0.0000 </r>
       <r>    8.4356   -0.0000 </r>
       <r>   15.2941    0.0000 </r>
       <r>   15.2941    0.0000 </r>
       <r>   15.2941    0.0000 </r>
       <r>   18.1015    0.0000 </r>
       <r>   18.1015    0.0000 </r>
       <r>   18.1015    0.0000 </r>
      </set>
      <set comment="kpoint 8">
       <r>    0.8169    1.0000 </r>
       <r>    2.3462    1.0000 </r>
       <r>    3.2833    1.0000 </r>
       <r>    3.2833    1.0000 </r>
       <r>    3.6060    1.0000 </r>
       <r>    3.6060    1.0000 </r>
       <r>    3.7045    1.0000 </r>
       <r>    4.0382    1.0000 </r>
       <r>    4.2442    1.0000 </r>
       <r>    4.2442    1.0000 </r>
       <r>    4.4006    1.0000 </r>
       <r>    4.4700    1.0000 </r>
       <r>    4.7037    1.0000 </r>
       <r>    4.8470    1.0000 </r>
       <r>    4.9682    1.0000 </r>
       <r>    4.9682    1.0000 </r>
       <r>    5.2522    1.0000 </r>
       <r>    5.4248    1.0000 </r>
       <r>    5.6192    1.0000 </r>
       <r>    5.6272    1.0000 </r>
       <r>    5.6272    1.0000 </r>
       <r>    6.1809    1.0000 </r>
       <r>    9.8078   -0.0000 </r>
       <r>    9.8078   -0.0000 </r>
       <r>   12.4762   -0.0000 </r>
       <r>   12.4762   -0.0000 </r>
       <r>   16.8231    0.0000 </r>
       <r>   19.1320    0.0000 </r>
       <r>   19.2099    0.0000 </r>
       <r>   19.2099    0.0000 </r>
      </set>
      <set comment="kpoint 9">
       <r>    1.7661    1.0000 </r>
       <r>    2.7380    1.0000 </r>
       <r>    2.7380    1.0000 </r>
       <r>    2.9947    1.0000 </r>
       <r>    3.8975    1.0000 </r>
       <r>    4.0565    1.0000 </r>
       <r>    4.0565    1.0000 </r>
       <r>    4.1952    1.0000 </r>
       <r>    4.2817    1.0000 </r>
       <r>    4.2817    1.0000 </r>
       <r>    4.3658    1.0000 </r>
       <r>    4.4188    1.0000 </r>
       <r>    4.5447    1.0000 </r>
       <r>    4.7020    1.0000 </r>
       <r>    4.7020    1.0000 </r>
       <r>    4.7411    1.0000 </r>
       <r>    5.2519    1.0000 </r>
       <r>    5.5151    1.0000 </r>
       <r>    5.5263    1.0000 </r>
       <r>    5.5263    1.0000 </r>
       <r>    5.8535    1.0000 </r>
       <r>    7.1145    0.7725 </r>
       <r>    7.1145    0.7725 </r>
       <r>    8.7869   -0.0000 </r>
       <r>   11.8964   -0.0000 </r>
       <r>   13.8820    0.0000 </r>
       <r>   13.8820    0.0000 </r>
       <r>   16.1122    0.0000 </r>
       <r>   20.4199    0.0000 </r>
       <r>   22.4115    0.0000 </r>
      </set>
      <set comment="kpoint 10">
       <r>    2.1585    1.0000 </r>
       <r>    2.5279    1.0000 </r>
       <r>    2.5279    1.0000 </r>
       <r>    2.5279    1.0000 </r>
       <r>    4.2396    1.0000 </r>
       <r>    4.2396    1.0000 </r>
       <r>    4.2396    1.0000 </r>
       <r>    4.4249    1.0000 </r>
       <r>    4.4249    1.0000 </r>
       <r>    4.4368    1.0000 </r>
       <r>    4.4368    1.0000 </r>
       <r>    4.4368    1.0000 </r>
       <r>    4.9068    1.0000 </r>
       <r>    4.9068    1.0000 </r>
       <r>    4.9068    1.0000 </r>
       <r>    5.1821    1.0000 </r>
       <r>    5.5897    1.0000 </r>
       <r>    5.5897    1.0000 </r>
       <r>    5.6717    1.0000 </r>
       <r>    5.6717    1.0000 </r>
       <r>    5.6717    1.0000 </r>
       <r>    7.2488    0.2383 </r>
       <r>    7.2488    0.2383 </r>
       <r>    7.2488    0.2383 </r>
       <r>   11.4306   -0.0000 </r>
       <r>   11.4306   -0.0000 </r>
       <r>   11.4306   -0.0000 </r>
       <r>   13.2153    0.0000 </r>
       <r>   25.6936    0.0000 </r>
       <r>   25.6936    0.0000 </r>
      </set>
     </set>
    </set>
   </array>
  </eigenvalues>
  <separator name="orbital magnetization" >
   <v name="MAGDIPOLOUT">      0.00000000      0.00000000      0.00000000</v>
  </separator>
  <dos>
   <i name="efermi">      7.18319768 </i>
   <total>
    <array>
     <dimension dim="1">gridpoints</dimension>
     <dimension dim="2">spin</dimension>
     <field>energy</field>
     <field>total</field>
     <field>integrated</field>
     <set>
      <set comment="spin 1">
       <r>    -3.8141     0.0000     0.0000 </r>
       <r>    -3.7090     0.0000     0.0000 </r>
       <r>    -3.6040     0.0000     0.0000 </r>
       <r>    -3.4990    -0.0000    -0.0000 </r>
       <r>    -3.3940    -0.0000    -0.0000 </r>
       <r>    -3.2889    -0.0000    -0.0000 </r>
       <r>    -3.1839    -0.0000    -0.0000 </r>
       <r>    -3.0789    -0.0000    -0.0000 </r>
       <r>    -2.9739    -0.0000    -0.0000 </r>
       <r>    -2.8688    -0.0000    -0.0000 </r>
       <r>    -2.7638    -0.0000    -0.0000 </r>
       <r>    -2.6588    -0.0000    -0.0000 </r>
       <r>    -2.5538    -0.0000    -0.0000 </r>
       <r>    -2.4487    -0.0000    -0.0000 </r>
       <r>    -2.3437    -0.0001    -0.0000 </r>
       <r>    -2.2387    -0.0007    -0.0001 </r>
       <r>    -2.1337    -0.0027    -0.0004 </r>
       <r>    -2.0286    -0.0012    -0.0005 </r>
       <r>    -1.9236     0.0206     0.0017 </r>
       <r>    -1.8186     0.0558     0.0075 </r>
       <r>    -1.7136     0.0506     0.0128 </r>
       <r>    -1.6085     0.0039     0.0133 </r>
       <r>    -1.5035     0.0321     0.0166 </r>
       <r>    -1.3985     0.2258     0.0403 </r>
       <r>    -1.2935     0.3800     0.0802 </r>
       <r>    -1.1884     0.2350     0.1049 </r>
       <r>    -1.0834     0.0449     0.1096 </r>
       <r>    -0.9784     0.2442     0.1353 </r>
       <r>    -0.8734     0.6838     0.2071 </r>
       <r>    -0.7683     0.6840     0.2789 </r>
       <r>    -0.6633     0.2491     0.3051 </r>
       <r>    -0.5583     0.0984     0.3154 </r>
       <r>    -0.4533     0.3662     0.3539 </r>
       <r>    -0.3482     0.4898     0.4053 </r>
       <r>    -0.2432     0.2384     0.4304 </r>
       <r>    -0.1382     0.0657     0.4373 </r>
       <r>    -0.0332     0.2192     0.4603 </r>
       <r>     0.0719     0.3407     0.4961 </r>
       <r>     0.1769     0.1672     0.5136 </r>
       <r>     0.2819     0.2235     0.5371 </r>
       <r>     0.3869     0.9787     0.6399 </r>
       <r>     0.4920     1.4917     0.7965 </r>
       <r>     0.5970     0.9408     0.8954 </r>
       <r>     0.7020     0.6191     0.9604 </r>
       <r>     0.8070     1.2615     1.0929 </r>
       <r>     0.9121     1.4169     1.2417 </r>
       <r>     1.0171     0.6095     1.3057 </r>
       <r>     1.1221    -0.0018     1.3055 </r>
       <r>     1.2272    -0.1005     1.2949 </r>
       <r>     1.3322    -0.0691     1.2877 </r>
       <r>     1.4372     0.0913     1.2973 </r>
       <r>     1.5422     0.5395     1.3539 </r>
       <r>     1.6473     1.2099     1.4810 </r>
       <r>     1.7523     1.8766     1.6781 </r>
       <r>     1.8573     1.7858     1.8656 </r>
       <r>     1.9623     1.0195     1.9727 </r>
       <r>     2.0674     1.1649     2.0951 </r>
       <r>     2.1724     1.9969     2.3048 </r>
       <r>     2.2774     2.1420     2.5297 </r>
       <r>     2.3824     1.9959     2.7394 </r>
       <r>     2.4875     2.1549     2.9657 </r>
       <r>     2.5925     2.8824     3.2684 </r>
       <r>     2.6975     4.7869     3.7712 </r>
       <r>     2.8025     6.7494     4.4800 </r>
       <r>     2.9076     6.7124     5.1850 </r>
       <r>     3.0126     5.0043     5.7106 </r>
       <r>     3.1176     3.8102     6.1107 </r>
       <r>     3.2226     6.4873     6.7921 </r>
       <r>     3.3277    10.7575     7.9219 </r>
       <r>     3.4327    10.5266     9.0274 </r>
       <r>     3.5377     8.7501     9.9464 </r>
       <r>     3.6427     9.3221    10.9255 </r>
       <r>     3.7478     8.6116    11.8299 </r>
       <r>     3.8528     6.7128    12.5349 </r>
       <r>     3.9578     7.8254    13.3568 </r>
       <r>     4.0628    11.6306    14.5783 </r>
       <r>     4.1679    15.0883    16.1630 </r>
       <r>     4.2729    16.8994    17.9378 </r>
       <r>     4.3779    16.9906    19.7223 </r>
       <r>     4.4829    16.2400    21.4279 </r>
       <r>     4.5880    14.5563    22.9567 </r>
       <r>     4.6930    13.0333    24.3255 </r>
       <r>     4.7980    13.8644    25.7816 </r>
       <r>     4.9030    15.1891    27.3768 </r>
       <r>     5.0081    14.7225    28.9231 </r>
       <r>     5.1131    15.0801    30.5069 </r>
       <r>     5.2181    17.0973    32.3025 </r>
       <r>     5.3231    15.5690    33.9377 </r>
       <r>     5.4282    13.3624    35.3410 </r>
       <r>     5.5332    17.1706    37.1444 </r>
       <r>     5.6382    20.6390    39.3120 </r>
       <r>     5.7432    15.8293    40.9745 </r>
       <r>     5.8483     7.8828    41.8024 </r>
       <r>     5.9533     3.7923    42.2007 </r>
       <r>     6.0583     2.5517    42.4687 </r>
       <r>     6.1633     1.9461    42.6731 </r>
       <r>     6.2684     1.3845    42.8185 </r>
       <r>     6.3734     0.5484    42.8761 </r>
       <r>     6.4784    -0.0217    42.8738 </r>
       <r>     6.5834    -0.1079    42.8624 </r>
       <r>     6.6885    -0.0331    42.8590 </r>
       <r>     6.7935     0.0568    42.8649 </r>
       <r>     6.8985     0.4152    42.9085 </r>
       <r>     7.0036     2.0586    43.1247 </r>
       <r>     7.1086     4.5957    43.6074 </r>
       <r>     7.2136     5.0559    44.1384 </r>
       <r>     7.3186     2.9100    44.4440 </r>
       <r>     7.4237     0.7198    44.5196 </r>
       <r>     7.5287    -0.1721    44.5016 </r>
       <r>     7.6337    -0.0225    44.4992 </r>
       <r>     7.7387     0.8329    44.5867 </r>
       <r>     7.8438     1.5465    44.7491 </r>
       <r>     7.9488     1.1153    44.8662 </r>
       <r>     8.0538     0.2219    44.8895 </r>
       <r>     8.1588    -0.1516    44.8736 </r>
       <r>     8.2639     0.0552    44.8794 </r>
       <r>     8.3689     0.8382    44.9674 </r>
       <r>     8.4739     1.4627    45.1210 </r>
       <r>     8.5789     1.0610    45.2325 </r>
       <r>     8.6840     0.8707    45.3239 </r>
       <r>     8.7890     1.8504    45.5183 </r>
       <r>     8.8940     2.2660    45.7562 </r>
       <r>     8.9990     1.2211    45.8845 </r>
       <r>     9.1041     0.1592    45.9012 </r>
       <r>     9.2091    -0.1683    45.8835 </r>
       <r>     9.3141    -0.0345    45.8799 </r>
       <r>     9.4191     0.6033    45.9433 </r>
       <r>     9.5242     1.3226    46.0822 </r>
       <r>     9.6292     1.4223    46.2316 </r>
       <r>     9.7342     1.9869    46.4402 </r>
       <r>     9.8392     3.1682    46.7730 </r>
       <r>     9.9443     2.8779    47.0752 </r>
       <r>    10.0493     1.3552    47.2176 </r>
       <r>    10.1543     0.2781    47.2468 </r>
       <r>    10.2593    -0.0601    47.2405 </r>
       <r>    10.3644    -0.0647    47.2337 </r>
       <r>    10.4694    -0.0393    47.2295 </r>
       <r>    10.5744    -0.0404    47.2253 </r>
       <r>    10.6794     0.1056    47.2364 </r>
       <r>    10.7845     0.5290    47.2919 </r>
       <r>    10.8895     0.7792    47.3738 </r>
       <r>    10.9945     0.4542    47.4215 </r>
       <r>    11.0995     0.0100    47.4225 </r>
       <r>    11.2046    -0.0910    47.4130 </r>
       <r>    11.3096     0.3695    47.4518 </r>
       <r>    11.4146     1.2188    47.5798 </r>
       <r>    11.5196     1.4415    47.7312 </r>
       <r>    11.6247     1.1694    47.8540 </r>
       <r>    11.7297     1.5789    48.0198 </r>
       <r>    11.8347     2.1850    48.2493 </r>
       <r>    11.9397     1.9861    48.4579 </r>
       <r>    12.0448     1.1508    48.5788 </r>
       <r>    12.1498     0.6096    48.6428 </r>
       <r>    12.2548     0.5981    48.7056 </r>
       <r>    12.3598     1.2579    48.8377 </r>
       <r>    12.4649     2.6706    49.1182 </r>
       <r>    12.5699     2.8079    49.4131 </r>
       <r>    12.6749     1.2965    49.5492 </r>
       <r>    12.7800     0.7657    49.6297 </r>
       <r>    12.8850     1.3551    49.7720 </r>
       <r>    12.9900     1.1644    49.8943 </r>
       <r>    13.0950     0.4706    49.9437 </r>
       <r>    13.2001     0.3727    49.9828 </r>
       <r>    13.3051     0.4382    50.0289 </r>
       <r>    13.4101     0.1951    50.0493 </r>
       <r>    13.5151    -0.0752    50.0414 </r>
       <r>    13.6202    -0.1808    50.0225 </r>
       <r>    13.7252     0.3480    50.0590 </r>
       <r>    13.8302     2.0075    50.2698 </r>
       <r>    13.9352     3.1241    50.5980 </r>
       <r>    14.0403     1.9623    50.8041 </r>
       <r>    14.1453     0.2978    50.8353 </r>
       <r>    14.2503    -0.1422    50.8204 </r>
       <r>    14.3553     0.3385    50.8559 </r>
       <r>    14.4604     1.2936    50.9918 </r>
       <r>    14.5654     1.9578    51.1974 </r>
       <r>    14.6704     1.5505    51.3603 </r>
       <r>    14.7754     0.6882    51.4325 </r>
       <r>    14.8805     0.6513    51.5010 </r>
       <r>    14.9855     1.3677    51.6446 </r>
       <r>    15.0905     1.6772    51.8207 </r>
       <r>    15.1955     1.6889    51.9981 </r>
       <r>    15.3006     1.8461    52.1920 </r>
       <r>    15.4056     2.0404    52.4063 </r>
       <r>    15.5106     2.7657    52.6968 </r>
       <r>    15.6156     2.9943    53.0112 </r>
       <r>    15.7207     1.5342    53.1724 </r>
       <r>    15.8257     0.0756    53.1803 </r>
       <r>    15.9307    -0.0918    53.1707 </r>
       <r>    16.0357     0.7160    53.2459 </r>
       <r>    16.1408     1.4954    53.4029 </r>
       <r>    16.2458     1.1464    53.5233 </r>
       <r>    16.3508     0.3810    53.5633 </r>
       <r>    16.4558     0.4782    53.6136 </r>
       <r>    16.5609     1.0673    53.7256 </r>
       <r>    16.6659     1.3506    53.8675 </r>
       <r>    16.7709     1.5389    54.0291 </r>
       <r>    16.8759     1.8438    54.2228 </r>
       <r>    16.9810     2.0821    54.4414 </r>
       <r>    17.0860     2.3319    54.6863 </r>
       <r>    17.1910     2.2495    54.9226 </r>
       <r>    17.2960     1.4952    55.0796 </r>
       <r>    17.4011     0.6284    55.1456 </r>
       <r>    17.5061     0.2240    55.1692 </r>
       <r>    17.6111     0.4900    55.2206 </r>
       <r>    17.7161     1.2520    55.3521 </r>
       <r>    17.8212     1.3228    55.4910 </r>
       <r>    17.9262     0.7290    55.5676 </r>
       <r>    18.0312     1.2056    55.6942 </r>
       <r>    18.1362     2.4905    55.9558 </r>
       <r>    18.2413     2.7879    56.2486 </r>
       <r>    18.3463     1.8937    56.4475 </r>
       <r>    18.4513     0.6740    56.5183 </r>
       <r>    18.5563     0.3329    56.5532 </r>
       <r>    18.6614     1.4162    56.7020 </r>
       <r>    18.7664     2.6467    56.9799 </r>
       <r>    18.8714     2.4179    57.2339 </r>
       <r>    18.9765     1.3318    57.3738 </r>
       <r>    19.0815     1.8812    57.5713 </r>
       <r>    19.1865     3.9327    57.9844 </r>
       <r>    19.2915     3.9519    58.3994 </r>
       <r>    19.3966     1.6249    58.5701 </r>
       <r>    19.5016     0.0135    58.5715 </r>
       <r>    19.6066    -0.1928    58.5512 </r>
       <r>    19.7116    -0.0610    58.5448 </r>
       <r>    19.8167    -0.0166    58.5431 </r>
       <r>    19.9217    -0.0495    58.5379 </r>
       <r>    20.0267    -0.1107    58.5263 </r>
       <r>    20.1317     0.1252    58.5394 </r>
       <r>    20.2368     1.1561    58.6608 </r>
       <r>    20.3418     2.4789    58.9212 </r>
       <r>    20.4468     2.6532    59.1998 </r>
       <r>    20.5518     1.4523    59.3524 </r>
       <r>    20.6569     0.2586    59.3795 </r>
       <r>    20.7619    -0.1089    59.3681 </r>
       <r>    20.8669    -0.0632    59.3615 </r>
       <r>    20.9719    -0.0125    59.3601 </r>
       <r>    21.0770    -0.0012    59.3600 </r>
       <r>    21.1820    -0.0001    59.3600 </r>
       <r>    21.2870    -0.0000    59.3600 </r>
       <r>    21.3920    -0.0000    59.3600 </r>
       <r>    21.4971    -0.0000    59.3600 </r>
       <r>    21.6021    -0.0000    59.3600 </r>
       <r>    21.7071    -0.0000    59.3600 </r>
       <r>    21.8121    -0.0003    59.3600 </r>
       <r>    21.9172    -0.0045    59.3595 </r>
       <r>    22.0222    -0.0298    59.3564 </r>
       <r>    22.1272    -0.0786    59.3481 </r>
       <r>    22.2322     0.0741    59.3559 </r>
       <r>    22.3373     0.8024    59.4402 </r>
       <r>    22.4423     1.5357    59.6014 </r>
       <r>    22.5473     1.1834    59.7257 </r>
       <r>    22.6523     0.3033    59.7576 </r>
       <r>    22.7574    -0.0662    59.7506 </r>
       <r>    22.8624    -0.0514    59.7452 </r>
       <r>    22.9674    -0.0107    59.7441 </r>
       <r>    23.0724    -0.0011    59.7440 </r>
       <r>    23.1775    -0.0001    59.7440 </r>
       <r>    23.2825    -0.0000    59.7440 </r>
       <r>    23.3875    -0.0000    59.7440 </r>
       <r>    23.4925    -0.0000    59.7440 </r>
       <r>    23.5976    -0.0000    59.7440 </r>
       <r>    23.7026    -0.0000    59.7440 </r>
       <r>    23.8076     0.0000    59.7440 </r>
       <r>    23.9126     0.0000    59.7440 </r>
       <r>    24.0177    -0.0000    59.7440 </r>
       <r>    24.1227    -0.0000    59.7440 </r>
       <r>    24.2277    -0.0000    59.7440 </r>
       <r>    24.3327    -0.0000    59.7440 </r>
       <r>    24.4378    -0.0000    59.7440 </r>
       <r>    24.5428    -0.0000    59.7440 </r>
       <r>    24.6478    -0.0000    59.7440 </r>
       <r>    24.7529    -0.0000    59.7440 </r>
       <r>    24.8579    -0.0000    59.7440 </r>
       <r>    24.9629    -0.0000    59.7440 </r>
       <r>    25.0679    -0.0001    59.7440 </r>
       <r>    25.1730    -0.0017    59.7438 </r>
       <r>    25.2780    -0.0133    59.7424 </r>
       <r>    25.3830    -0.0465    59.7375 </r>
       <r>    25.4880    -0.0061    59.7369 </r>
       <r>    25.5931     0.3809    59.7769 </r>
       <r>    25.6981     0.9521    59.8769 </r>
       <r>    25.8031     0.9167    59.9732 </r>
       <r>    25.9081     0.3314    60.0080 </r>
       <r>    26.0132    -0.0194    60.0059 </r>
       <r>    26.1182    -0.0436    60.0013 </r>
       <r>    26.2232    -0.0114    60.0001 </r>
       <r>    26.3282    -0.0013    60.0000 </r>
       <r>    26.4333    -0.0001    60.0000 </r>
       <r>    26.5383    -0.0000    60.0000 </r>
       <r>    26.6433    -0.0000    60.0000 </r>
       <r>    26.7483    -0.0000    60.0000 </r>
       <r>    26.8534    -0.0000    60.0000 </r>
       <r>    26.9584    -0.0000    60.0000 </r>
       <r>    27.0634     0.0000    60.0000 </r>
       <r>    27.1684     0.0000    60.0000 </r>
       <r>    27.2735     0.0000    60.0000 </r>
       <r>    27.3785     0.0000    60.0000 </r>
       <r>    27.4835     0.0000    60.0000 </r>
       <r>    27.5885     0.0000    60.0000 </r>
       <r>    27.6936     0.0000    60.0000 </r>
      </set>
     </set>
    </array>
   </total>
  </dos>
 </calculation>
 <structure name="finalpos" >
  <crystal>
   <varray name="basis" >
    <v>       3.63500000       0.00000000       0.00000000 </v>
    <v>       0.00000000       3.63500000       0.00000000 </v>
    <v>       0.00000000       0.00000000       3.63500000 </v>
   </varray>
   <i name="volume">     48.03007287 </i>
   <varray name="rec_basis" >
    <v>       0.27510316       0.00000000       0.00000000 </v>
    <v>       0.00000000       0.27510316       0.00000000 </v>
    <v>       0.00000000       0.00000000       0.27510316 </v>
   </varray>
  </crystal>
  <varray name="positions" >
   <v>       0.00000000       0.00000000       0.00000000 </v>
   <v>       0.50000000       0.50000000       0.00000000 </v>
   <v>       0.50000000       0.00000000       0.50000000 </v>
   <v>       0.00000000       0.50000000       0.50000000 </v>
  </varray>
 </structure>
</modeling>
