unknown system                          
   1.00000000000000     
     3.694601    0.000000    0.000000
     0.000000    3.694601    0.000000
     0.000000    0.000000    3.694601
   Cu
     4
Direct
  0.000000  0.000000  0.000000
  0.500000  0.500000  0.000000
  0.500000  0.000000  0.500000
  0.000000  0.500000  0.500000
 
   32   32   32
  888.53      835.78      694.69      507.74      322.54      174.59      79.796      34.600      20.459      14.894    
  11.324      9.0882      7.7845      7.1640      6.7752      6.3584      6.1457      6.3584      6.7752      7.1640    
  7.7845      9.0882      11.324      14.894      20.459      34.600      79.796      174.59      322.54      507.74    
  694.69      835.78      835.78      785.93      652.63      476.06      301.43      162.50      74.276      32.884    
  20.086      14.691      11.247      9.1060      7.8678      7.2859      6.9307      6.5521      6.3584      6.5521    
  6.9307      7.2859      7.8678      9.1060      11.247      14.691      20.086      32.884      74.276      162.50    
  301.43      476.06      652.63      785.93      694.69      652.63      540.19      391.55      245.44      130.88    
  60.204      28.706      19.069      14.137      11.044      9.1494      8.0616      7.5462      7.2398      6.9307    
  6.7752      6.9307      7.2398      7.5462      8.0616      9.1494      11.044      14.137      19.069      28.706    
  60.204      130.88      245.44      391.55      540.19      652.63      507.74      476.06      391.55      280.52    
  172.98      91.194      43.551      24.185      17.580      13.375      10.794      9.2287      8.3129      7.8397    
  7.5462      7.2859      7.1640      7.2859      7.5462      7.8397      8.3129      9.2287      10.794      13.375    
  17.580      24.185      43.551      91.194      172.98      280.52      391.55      476.06      322.54      301.43    
  245.44      172.98      104.91      56.011      30.253      20.750      15.884      12.592      10.611      9.4210    
  8.7104      8.3129      8.0616      7.8678      7.7845      7.8678      8.0616      8.3129      8.7104      9.4210    
  10.611      12.592      15.884      20.750      30.253      56.011      104.91      172.98      245.44      301.43    
  174.59      162.50      130.88      91.194      56.011      33.190      22.747      17.880      14.278      11.959    
  10.608      9.8387      9.4210      9.2287      9.1494      9.1060      9.0882      9.1060      9.1494      9.2287    
  9.4210      9.8387      10.608      11.959      14.278      17.880      22.747      33.190      56.011      91.194    
  130.88      162.50      79.796      74.276      60.204      43.551      30.253      22.747      18.629      15.330    
  13.006      11.610      10.891      10.608      10.611      10.794      11.044      11.247      11.324      11.247    
  11.044      10.794      10.611      10.608      10.891      11.610      13.006      15.330      18.629      22.747    
  30.253      43.551      60.204      74.276      34.600      32.884      28.706      24.185      20.750      17.880    
  15.330      13.410      12.211      11.655      11.610      11.959      12.592      13.375      14.137      14.691    
  14.894      14.691      14.137      13.375      12.592      11.959      11.610      11.655      12.211      13.410    
  15.330      17.880      20.750      24.185      28.706      32.884      20.459      20.086      19.069      17.580    
  15.884      14.278      13.006      12.211      11.943      12.211      13.006      14.278      15.884      17.580    
  19.069      20.086      20.459      20.086      19.069      17.580      15.884      14.278      13.006      12.211    
  11.943      12.211      13.006      14.278      15.884      17.580      19.069      20.086      14.894      14.691    
  14.137      13.375      12.592      11.959      11.610      11.655      12.211      13.410      15.330      17.880    
  20.750      24.185      28.706      32.884      34.600      32.884      28.706      24.185      20.750      17.880    
  15.330      13.410      12.211      11.655      11.610      11.959      12.592      13.375      14.137      14.691    
  11.324      11.247      11.044      10.794      10.611      10.608      10.891      11.610      13.006      15.330    
  18.629      22.747      30.253      43.551      60.204      74.276      79.796      74.276      60.204      43.551    
  30.253      22.747      18.629      15.330      13.006      11.610      10.891      10.608      10.611      10.794    
  11.044      11.247      9.0882      9.1060      9.1494      9.2287      9.4210      9.8387      10.608      11.959    
  14.278      17.880      22.747      33.190      56.011      91.194      130.88      162.50      174.59      162.50    
  130.88      91.194      56.011      33.190      22.747      17.880      14.278      11.959      10.608      9.8387    
  9.4210      9.2287      9.1494      9.1060      7.7845      7.8678      8.0616      8.3129      8.7104      9.4210    
  10.611      12.592      15.884      20.750      30.253      56.011      104.91      172.98      245.44      301.43    
  322.54      301.43      245.44      172.98      104.91      56.011      30.253      20.750      15.884      12.592    
  10.611      9.4210      8.7104      8.3129      8.0616      7.8678      7.1640      7.2859      7.5462      7.8397    
  8.3129      9.2287      10.794      13.375      17.580      24.185      43.551      91.194      172.98      280.52    
  391.55      476.06      507.74      476.06      391.55      280.52      172.98      91.194      43.551      24.185    
  17.580      13.375      10.794      9.2287      8.3129      7.8397      7.5462      7.2859      6.7752      6.9307    
  7.2398      7.5462      8.0616      9.1494      11.044      14.137      19.069      28.706      60.204      130.88    
  245.44      391.55      540.19      652.63      694.69      652.63      540.19      391.55      245.44      130.88    
  60.204      28.706      19.069      14.137      11.044      9.1494      8.0616      7.5462      7.2398      6.9307    
  6.3584      6.5521      6.9307      7.2859      7.8678      9.1060      11.247      14.691      20.086      32.884    
  74.276      162.50      301.43      476.06      652.63      785.93      835.78      785.93      652.63      476.06    
  301.43      162.50      74.276      32.884      20.086      14.691      11.247      9.1060      7.8678      7.2859    
  6.9307      6.5521      6.1457      6.3584      6.7752      7.1640      7.7845      9.0882      11.324      14.894    
  20.459      34.600      79.796      174.59      322.54      507.74      694.69      835.78      888.53      835.78    
  694.69      507.74      322.54      174.59      79.796      34.600      20.459      14.894      11.324      9.0882    
  7.7845      7.1640      6.7752      6.3584      6.3584      6.5521      6.9307      7.2859      7.8678      9.1060    
  11.247      14.691      20.086      32.884      74.276      162.50      301.43      476.06      652.63      785.93    
  835.78      785.93      652.63      476.06      301.43      162.50      74.276      32.884      20.086      14.691    
  11.247      9.1060      7.8678      7.2859      6.9307      6.5521      6.7752      6.9307      7.2398      7.5462    
  8.0616      9.1494      11.044      14.137      19.069      28.706      60.204      130.88      245.44      391.55    
  540.19      652.63      694.69      652.63      540.19      391.55      245.44      130.88      60.204      28.706    
  19.069      14.137      11.044      9.1494      8.0616      7.5462      7.2398      6.9307      7.1640      7.2859    
  7.5462      7.8397      8.3129      9.2287      10.794      13.375      17.580      24.185      43.551      91.194    
  172.98      280.52      391.55      476.06      507.74      476.06      391.55      280.52      172.98      91.194    
  43.551      24.185      17.580      13.375      10.794      9.2287      8.3129      7.8397      7.5462      7.2859    
  7.7845      7.8678      8.0616      8.3129      8.7104      9.4210      10.611      12.592      15.884      20.750    
  30.253      56.011      104.91      172.98      245.44      301.43      322.54      301.43      245.44      172.98    
  104.91      56.011      30.253      20.750      15.884      12.592      10.611      9.4210      8.7104      8.3129    
  8.0616      7.8678      9.0882      9.1060      9.1494      9.2287      9.4210      9.8387      10.608      11.959    
  14.278      17.880      22.747      33.190      56.011      91.194      130.88      162.50      174.59      162.50    
  130.88      91.194      56.011      33.190      22.747      17.880      14.278      11.959      10.608      9.8387    
  9.4210      9.2287      9.1494      9.1060      11.324      11.247      11.044      10.794      10.611      10.608    
  10.891      11.610      13.006      15.330      18.629      22.747      30.253      43.551      60.204      74.276    
  79.796      74.276      60.204      43.551      30.253      22.747      18.629      15.330      13.006      11.610    
  10.891      10.608      10.611      10.794      11.044      11.247      14.894      14.691      14.137      13.375    
  12.592      11.959      11.610      11.655      12.211      13.410      15.330      17.880      20.750      24.185    
  28.706      32.884      34.600      32.884      28.706      24.185      20.750      17.880      15.330      13.410    
  12.211      11.655      11.610      11.959      12.592      13.375      14.137      14.691      20.459      20.086    
  19.069      17.580      15.884      14.278      13.006      12.211      11.943      12.211      13.006      14.278    
  15.884      17.580      19.069      20.086      20.459      20.086      19.069      17.580      15.884      14.278    
  13.006      12.211      11.943      12.211      13.006      14.278      15.884      17.580      19.069      20.086    
  34.600      32.884      28.706      24.185      20.750      17.880      15.330      13.410      12.211      11.655    
  11.610      11.959      12.592      13.375      14.137      14.691      14.894      14.691      14.137      13.375    
  12.592      11.959      11.610      11.655      12.211      13.410      15.330      17.880      20.750      24.185    
  28.706      32.884      79.796      74.276      60.204      43.551      30.253      22.747      18.629      15.330    
  13.006      11.610      10.891      10.608      10.611      10.794      11.044      11.247      11.324      11.247    
  11.044      10.794      10.611      10.608      10.891      11.610      13.006      15.330      18.629      22.747    
  30.253      43.551      60.204      74.276      174.59      162.50      130.88      91.194      56.011      33.190    
  22.747      17.880      14.278      11.959      10.608      9.8387      9.4210      9.2287      9.1494      9.1060    
  9.0882      9.1060      9.1494      9.2287      9.4210      9.8387      10.608      11.959      14.278      17.880    
  22.747      33.190      56.011      91.194      130.88      162.50      322.54      301.43      245.44      172.98    
  104.91      56.011      30.253      20.750      15.884      12.592      10.611      9.4210      8.7104      8.3129    
  8.0616      7.8678      7.7845      7.8678      8.0616      8.3129      8.7104      9.4210      10.611      12.592    
  15.884      20.750      30.253      56.011      104.91      172.98      245.44      301.43      507.74      476.06    
  391.55      280.52      172.98      91.194      43.551      24.185      17.580      13.375      10.794      9.2287    
  8.3129      7.8397      7.5462      7.2859      7.1640      7.2859      7.5462      7.8397      8.3129      9.2287    
  10.794      13.375      17.580      24.185      43.551      91.194      172.98      280.52      391.55      476.06    
  694.69      652.63      540.19      391.55      245.44      130.88      60.204      28.706      19.069      14.137    
  11.044      9.1494      8.0616      7.5462      7.2398      6.9307      6.7752      6.9307      7.2398      7.5462    
  8.0616      9.1494      11.044      14.137      19.069      28.706      60.204      130.88      245.44      391.55    
  540.19      652.63      835.78      785.93      652.63      476.06      301.43      162.50      74.276      32.884    
  20.086      14.691      11.247      9.1060      7.8678      7.2859      6.9307      6.5521      6.3584      6.5521    
  6.9307      7.2859      7.8678      9.1060      11.247      14.691      20.086      32.884      74.276      162.50    
  301.43      476.06      652.63      785.93      835.78      785.93      652.63      476.06      301.43      162.50    
  74.276      32.884      20.086      14.691      11.247      9.1060      7.8678      7.2859      6.9307      6.5521    
  6.3584      6.5521      6.9307      7.2859      7.8678      9.1060      11.247      14.691      20.086      32.884    
  74.276      162.50      301.43      476.06      652.63      785.93      785.93      738.83      612.90      446.17    
  281.57      151.22      69.186      31.336      19.730      14.494      11.171      9.1202      7.9430      7.3965    
  7.0718      6.7282      6.5521      6.7282      7.0718      7.3965      7.9430      9.1202      11.171      14.494    
  19.730      31.336      69.186      151.22      281.57      446.17      612.90      738.83      652.63      612.90    
  506.72      366.48      228.97      121.72      56.244      27.580      18.738      13.955      10.972      9.1557    
  8.1196      7.6335      7.3523      7.0718      6.9307      7.0718      7.3523      7.6335      8.1196      9.1557    
  10.972      13.955      18.738      27.580      56.244      121.72      228.97      366.48      506.72      612.90    
  476.06      446.17      366.48      261.95      161.06      84.858      41.025      23.521      17.285      13.216    
  10.729      9.2270      8.3531      7.9053      7.6335      7.3965      7.2859      7.3965      7.6335      7.9053    
  8.3531      9.2270      10.729      13.216      17.285      23.521      41.025      84.858      161.06      261.95    
  366.48      446.17      301.43      281.57      228.97      161.06      97.588      52.421      28.994      20.359    
  15.637      12.459      10.552      9.4093      8.7302      8.3531      8.1196      7.9430      7.8678      7.9430    
  8.1196      8.3531      8.7302      9.4093      10.552      12.459      15.637      20.359      28.994      52.421    
  97.588      161.06      228.97      281.57      162.50      151.22      121.72      84.858      52.421      31.645    
  22.232      17.566      14.084      11.850      10.549      9.8095      9.4093      9.2270      9.1557      9.1202    
  9.1060      9.1202      9.1557      9.2270      9.4093      9.8095      10.549      11.850      14.084      17.566    
  22.232      31.645      52.421      84.858      121.72      151.22      74.276      69.186      56.244      41.025    
  28.994      22.232      18.292      15.097      12.859      11.516      10.823      10.549      10.552      10.729    
  10.972      11.171      11.247      11.171      10.972      10.729      10.552      10.549      10.823      11.516    
  12.859      15.097      18.292      22.232      28.994      41.025      56.244      69.186      32.884      31.336    
  27.580      23.521      20.359      17.566      15.097      13.247      12.095      11.560      11.516      11.850    
  12.459      13.216      13.955      14.494      14.691      14.494      13.955      13.216      12.459      11.850    
  11.516      11.560      12.095      13.247      15.097      17.566      20.359      23.521      27.580      31.336    
  20.086      19.730      18.738      17.285      15.637      14.084      12.859      12.095      11.838      12.095    
  12.859      14.084      15.637      17.285      18.738      19.730      20.086      19.730      18.738      17.285    
  15.637      14.084      12.859      12.095      11.838      12.095      12.859      14.084      15.637      17.285    
  18.738      19.730      14.691      14.494      13.955      13.216      12.459      11.850      11.516      11.560    
  12.095      13.247      15.097      17.566      20.359      23.521      27.580      31.336      32.884      31.336    
  27.580      23.521      20.359      17.566      15.097      13.247      12.095      11.560      11.516      11.850    
  12.459      13.216      13.955      14.494      11.247      11.171      10.972      10.729      10.552      10.549    
  10.823      11.516      12.859      15.097      18.292      22.232      28.994      41.025      56.244      69.186    
  74.276      69.186      56.244      41.025      28.994      22.232      18.292      15.097      12.859      11.516    
  10.823      10.549      10.552      10.729      10.972      11.171      9.1060      9.1202      9.1557      9.2270    
  9.4093      9.8095      10.549      11.850      14.084      17.566      22.232      31.645      52.421      84.858    
  121.72      151.22      162.50      151.22      121.72      84.858      52.421      31.645      22.232      17.566    
  14.084      11.850      10.549      9.8095      9.4093      9.2270      9.1557      9.1202      7.8678      7.9430    
  8.1196      8.3531      8.7302      9.4093      10.552      12.459      15.637      20.359      28.994      52.421    
  97.588      161.06      228.97      281.57      301.43      281.57      228.97      161.06      97.588      52.421    
  28.994      20.359      15.637      12.459      10.552      9.4093      8.7302      8.3531      8.1196      7.9430    
  7.2859      7.3965      7.6335      7.9053      8.3531      9.2270      10.729      13.216      17.285      23.521    
  41.025      84.858      161.06      261.95      366.48      446.17      476.06      446.17      366.48      261.95    
  161.06      84.858      41.025      23.521      17.285      13.216      10.729      9.2270      8.3531      7.9053    
  7.6335      7.3965      6.9307      7.0718      7.3523      7.6335      8.1196      9.1557      10.972      13.955    
  18.738      27.580      56.244      121.72      228.97      366.48      506.72      612.90      652.63      612.90    
  506.72      366.48      228.97      121.72      56.244      27.580      18.738      13.955      10.972      9.1557    
  8.1196      7.6335      7.3523      7.0718      6.5521      6.7282      7.0718      7.3965      7.9430      9.1202    
  11.171      14.494      19.730      31.336      69.186      151.22      281.57      446.17      612.90      738.83    
  785.93      738.83      612.90      446.17      281.57      151.22      69.186      31.336      19.730      14.494    
  11.171      9.1202      7.9430      7.3965      7.0718      6.7282      6.3584      6.5521      6.9307      7.2859    
  7.8678      9.1060      11.247      14.691      20.086      32.884      74.276      162.50      301.43      476.06    
  652.63      785.93      835.78      785.93      652.63      476.06      301.43      162.50      74.276      32.884    
  20.086      14.691      11.247      9.1060      7.8678      7.2859      6.9307      6.5521      6.5521      6.7282    
  7.0718      7.3965      7.9430      9.1202      11.171      14.494      19.730      31.336      69.186      151.22    
  281.57      446.17      612.90      738.83      785.93      738.83      612.90      446.17      281.57      151.22    
  69.186      31.336      19.730      14.494      11.171      9.1202      7.9430      7.3965      7.0718      6.7282    
  6.9307      7.0718      7.3523      7.6335      8.1196      9.1557      10.972      13.955      18.738      27.580    
  56.244      121.72      228.97      366.48      506.72      612.90      652.63      612.90      506.72      366.48    
  228.97      121.72      56.244      27.580      18.738      13.955      10.972      9.1557      8.1196      7.6335    
  7.3523      7.0718      7.2859      7.3965      7.6335      7.9053      8.3531      9.2270      10.729      13.216    
  17.285      23.521      41.025      84.858      161.06      261.95      366.48      446.17      476.06      446.17    
  366.48      261.95      161.06      84.858      41.025      23.521      17.285      13.216      10.729      9.2270    
  8.3531      7.9053      7.6335      7.3965      7.8678      7.9430      8.1196      8.3531      8.7302      9.4093    
  10.552      12.459      15.637      20.359      28.994      52.421      97.588      161.06      228.97      281.57    
  301.43      281.57      228.97      161.06      97.588      52.421      28.994      20.359      15.637      12.459    
  10.552      9.4093      8.7302      8.3531      8.1196      7.9430      9.1060      9.1202      9.1557      9.2270    
  9.4093      9.8095      10.549      11.850      14.084      17.566      22.232      31.645      52.421      84.858    
  121.72      151.22      162.50      151.22      121.72      84.858      52.421      31.645      22.232      17.566    
  14.084      11.850      10.549      9.8095      9.4093      9.2270      9.1557      9.1202      11.247      11.171    
  10.972      10.729      10.552      10.549      10.823      11.516      12.859      15.097      18.292      22.232    
  28.994      41.025      56.244      69.186      74.276      69.186      56.244      41.025      28.994      22.232    
  18.292      15.097      12.859      11.516      10.823      10.549      10.552      10.729      10.972      11.171    
  14.691      14.494      13.955      13.216      12.459      11.850      11.516      11.560      12.095      13.247    
  15.097      17.566      20.359      23.521      27.580      31.336      32.884      31.336      27.580      23.521    
  20.359      17.566      15.097      13.247      12.095      11.560      11.516      11.850      12.459      13.216    
  13.955      14.494      20.086      19.730      18.738      17.285      15.637      14.084      12.859      12.095    
  11.838      12.095      12.859      14.084      15.637      17.285      18.738      19.730      20.086      19.730    
  18.738      17.285      15.637      14.084      12.859      12.095      11.838      12.095      12.859      14.084    
  15.637      17.285      18.738      19.730      32.884      31.336      27.580      23.521      20.359      17.566    
  15.097      13.247      12.095      11.560      11.516      11.850      12.459      13.216      13.955      14.494    
  14.691      14.494      13.955      13.216      12.459      11.850      11.516      11.560      12.095      13.247    
  15.097      17.566      20.359      23.521      27.580      31.336      74.276      69.186      56.244      41.025    
  28.994      22.232      18.292      15.097      12.859      11.516      10.823      10.549      10.552      10.729    
  10.972      11.171      11.247      11.171      10.972      10.729      10.552      10.549      10.823      11.516    
  12.859      15.097      18.292      22.232      28.994      41.025      56.244      69.186      162.50      151.22    
  121.72      84.858      52.421      31.645      22.232      17.566      14.084      11.850      10.549      9.8095    
  9.4093      9.2270      9.1557      9.1202      9.1060      9.1202      9.1557      9.2270      9.4093      9.8095    
  10.549      11.850      14.084      17.566      22.232      31.645      52.421      84.858      121.72      151.22    
  301.43      281.57      228.97      161.06      97.588      52.421      28.994      20.359      15.637      12.459    
  10.552      9.4093      8.7302      8.3531      8.1196      7.9430      7.8678      7.9430      8.1196      8.3531    
  8.7302      9.4093      10.552      12.459      15.637      20.359      28.994      52.421      97.588      161.06    
  228.97      281.57      476.06      446.17      366.48      261.95      161.06      84.858      41.025      23.521    
  17.285      13.216      10.729      9.2270      8.3531      7.9053      7.6335      7.3965      7.2859      7.3965    
  7.6335      7.9053      8.3531      9.2270      10.729      13.216      17.285      23.521      41.025      84.858    
  161.06      261.95      366.48      446.17      652.63      612.90      506.72      366.48      228.97      121.72    
  56.244      27.580      18.738      13.955      10.972      9.1557      8.1196      7.6335      7.3523      7.0718    
  6.9307      7.0718      7.3523      7.6335      8.1196      9.1557      10.972      13.955      18.738      27.580    
  56.244      121.72      228.97      366.48      506.72      612.90      785.93      738.83      612.90      446.17    
  281.57      151.22      69.186      31.336      19.730      14.494      11.171      9.1202      7.9430      7.3965    
  7.0718      6.7282      6.5521      6.7282      7.0718      7.3965      7.9430      9.1202      11.171      14.494    
  19.730      31.336      69.186      151.22      281.57      446.17      612.90      738.83      694.69      652.63    
  540.19      391.55      245.44      130.88      60.204      28.706      19.069      14.137      11.044      9.1494    
  8.0616      7.5462      7.2398      6.9307      6.7752      6.9307      7.2398      7.5462      8.0616      9.1494    
  11.044      14.137      19.069      28.706      60.204      130.88      245.44      391.55      540.19      652.63    
  652.63      612.90      506.72      366.48      228.97      121.72      56.244      27.580      18.738      13.955    
  10.972      9.1557      8.1196      7.6335      7.3523      7.0718      6.9307      7.0718      7.3523      7.6335    
  8.1196      9.1557      10.972      13.955      18.738      27.580      56.244      121.72      228.97      366.48    
  506.72      612.90      540.19      506.72      417.37      299.79      185.49      97.934      46.268      24.859    
  17.809      13.459      10.785      9.1745      8.2597      7.8254      7.5808      7.3523      7.2398      7.3523    
  7.5808      7.8254      8.2597      9.1745      10.785      13.459      17.809      24.859      46.268      97.934    
  185.49      299.79      417.37      506.72      391.55      366.48      299.79      212.81      129.85      68.589    
  34.765      21.887      16.462      12.785      10.560      9.2287      8.4570      8.0595      7.8254      7.6335    
  7.5462      7.6335      7.8254      8.0595      8.4570      9.2287      10.560      12.785      16.462      21.887    
  34.765      68.589      129.85      212.81      299.79      366.48      245.44      228.97      185.49      129.85    
  78.699      43.393      25.931      19.261      14.953      12.100      10.399      9.3866      8.7879      8.4570    
  8.2597      8.1196      8.0616      8.1196      8.2597      8.4570      8.7879      9.3866      10.399      12.100    
  14.953      19.261      25.931      43.393      78.699      129.85      185.49      228.97      130.88      121.72    
  97.934      68.589      43.393      27.872      20.899      16.685      13.548      11.554      10.396      9.7398    
  9.3866      9.2287      9.1745      9.1557      9.1494      9.1557      9.1745      9.2287      9.3866      9.7398    
  10.396      11.554      13.548      16.685      20.899      27.872      43.393      68.589      97.934      121.72    
  60.204      56.244      46.268      34.765      25.931      20.899      17.340      14.450      12.451      11.258    
  10.641      10.396      10.399      10.560      10.785      10.972      11.044      10.972      10.785      10.560    
  10.399      10.396      10.641      11.258      12.451      14.450      17.340      20.899      25.931      34.765    
  46.268      56.244      28.706      27.580      24.859      21.887      19.261      16.685      14.450      12.796    
  11.774      11.299      11.258      11.554      12.100      12.785      13.459      13.955      14.137      13.955    
  13.459      12.785      12.100      11.554      11.258      11.299      11.774      12.796      14.450      16.685    
  19.261      21.887      24.859      27.580      19.069      18.738      17.809      16.462      14.953      13.548    
  12.451      11.774      11.547      11.774      12.451      13.548      14.953      16.462      17.809      18.738    
  19.069      18.738      17.809      16.462      14.953      13.548      12.451      11.774      11.547      11.774    
  12.451      13.548      14.953      16.462      17.809      18.738      14.137      13.955      13.459      12.785    
  12.100      11.554      11.258      11.299      11.774      12.796      14.450      16.685      19.261      21.887    
  24.859      27.580      28.706      27.580      24.859      21.887      19.261      16.685      14.450      12.796    
  11.774      11.299      11.258      11.554      12.100      12.785      13.459      13.955      11.044      10.972    
  10.785      10.560      10.399      10.396      10.641      11.258      12.451      14.450      17.340      20.899    
  25.931      34.765      46.268      56.244      60.204      56.244      46.268      34.765      25.931      20.899    
  17.340      14.450      12.451      11.258      10.641      10.396      10.399      10.560      10.785      10.972    
  9.1494      9.1557      9.1745      9.2287      9.3866      9.7398      10.396      11.554      13.548      16.685    
  20.899      27.872      43.393      68.589      97.934      121.72      130.88      121.72      97.934      68.589    
  43.393      27.872      20.899      16.685      13.548      11.554      10.396      9.7398      9.3866      9.2287    
  9.1745      9.1557      8.0616      8.1196      8.2597      8.4570      8.7879      9.3866      10.399      12.100    
  14.953      19.261      25.931      43.393      78.699      129.85      185.49      228.97      245.44      228.97    