unknown system                          
   1.00000000000000     
     3.694601    0.000000    0.000000
     0.000000    3.694601    0.000000
     0.000000    0.000000    3.694601
   Cu
     4
Direct
  0.000000  0.000000  0.000000
  0.500000  0.500000  0.000000
  0.500000  0.000000  0.500000
  0.000000  0.500000  0.500000
 
   32   32   32
 0.88853165392E+03 0.83577518104E+03 0.69469496961E+03 0.50774332772E+03 0.32253991039E+03
 0.17458883962E+03 0.79796398507E+02 0.34600470704E+02 0.20458537614E+02 0.14894337603E+02
 0.11323974261E+02 0.90881738696E+01 0.77844958754E+01 0.71639717523E+01 0.67752168263E+01
 0.63583856843E+01 0.61456905163E+01 0.63583856843E+01 0.67752168263E+01 0.71639717523E+01
 0.77844958754E+01 0.90881738696E+01 0.11323974261E+02 0.14894337603E+02 0.20458537614E+02
 0.34600470704E+02 0.79796398507E+02 0.17458883962E+03 0.32253991039E+03 0.50774332772E+03
 0.69469496961E+03 0.83577518104E+03 0.83577518104E+03 0.78592957812E+03 0.65263221562E+03
 0.47606152171E+03 0.30142621704E+03 0.16250479514E+03 0.74276490706E+02 0.32883965594E+02
 0.20086078918E+02 0.14691367084E+02 0.11246989175E+02 0.91060234733E+01 0.78677568892E+01
 0.72858683161E+01 0.69306662064E+01 0.65520519766E+01 0.63583856843E+01 0.65520519766E+01
 0.69306662064E+01 0.72858683161E+01 0.78677568892E+01 0.91060234733E+01 0.11246989175E+02
 0.14691367084E+02 0.20086078918E+02 0.32883965594E+02 0.74276490706E+02 0.16250479514E+03
 0.30142621704E+03 0.47606152171E+03 0.65263221562E+03 0.78592957812E+03 0.69469496961E+03
 0.65263221562E+03 0.54019197253E+03 0.39154791738E+03 0.24544004593E+03 0.13088228179E+03
 0.60203757675E+02 0.28706371491E+02 0.19069127231E+02 0.14137000701E+02 0.11043751406E+02
 0.91493599055E+01 0.80616075668E+01 0.75461507578E+01 0.72398386572E+01 0.69306662064E+01
 0.67752168263E+01 0.69306662064E+01 0.72398386572E+01 0.75461507578E+01 0.80616075668E+01
 0.91493599055E+01 0.11043751406E+02 0.14137000701E+02 0.19069127231E+02 0.28706371491E+02
 0.60203757675E+02 0.13088228179E+03 0.24544004593E+03 0.39154791738E+03 0.54019197253E+03
 0.65263221562E+03 0.50774332772E+03 0.47606152171E+03 0.39154791738E+03 0.28051780228E+03
 0.17298071190E+03 0.91194253035E+02 0.43551453753E+02 0.24184636888E+02 0.17580462642E+02
 0.13375424455E+02 0.10794218353E+02 0.92287002375E+01 0.83128599498E+01 0.78397202337E+01
 0.75461507578E+01 0.72858683161E+01 0.71639717523E+01 0.72858683161E+01 0.75461507578E+01
 0.78397202337E+01 0.83128599498E+01 0.92287002375E+01 0.10794218353E+02 0.13375424455E+02
 0.17580462642E+02 0.24184636888E+02 0.43551453753E+02 0.91194253035E+02 0.17298071190E+03
 0.28051780228E+03 0.39154791738E+03 0.47606152171E+03 0.32253991039E+03 0.30142621704E+03
 0.24544004593E+03 0.17298071190E+03 0.10490532066E+03 0.56011168583E+02 0.30253038522E+02
 0.20750076839E+02 0.15884251718E+02 0.12591683235E+02 0.10611419022E+02 0.94210451280E+01
 0.87103927717E+01 0.83128599498E+01 0.80616075668E+01 0.78677568892E+01 0.77844958754E+01
 0.78677568892E+01 0.80616075668E+01 0.83128599498E+01 0.87103927717E+01 0.94210451280E+01
 0.10611419022E+02 0.12591683235E+02 0.15884251718E+02 0.20750076839E+02 0.30253038522E+02
 0.56011168583E+02 0.10490532066E+03 0.17298071190E+03 0.24544004593E+03 0.30142621704E+03
 0.17458883962E+03 0.16250479514E+03 0.13088228179E+03 0.91194253035E+02 0.56011168583E+02
 0.33189728438E+02 0.22747402946E+02 0.17879840906E+02 0.14277835940E+02 0.11958763341E+02
 0.10608105721E+02 0.98386630237E+01 0.94210451280E+01 0.92287002375E+01 0.91493599055E+01
 0.91060234733E+01 0.90881738696E+01 0.91060234733E+01 0.91493599055E+01 0.92287002375E+01
 0.94210451280E+01 0.98386630237E+01 0.10608105721E+02 0.11958763341E+02 0.14277835940E+02
 0.17879840906E+02 0.22747402946E+02 0.33189728438E+02 0.56011168583E+02 0.91194253035E+02
 0.13088228179E+03 0.16250479514E+03 0.79796398507E+02 0.74276490706E+02 0.60203757675E+02
 0.43551453753E+02 0.30253038522E+02 0.22747402946E+02 0.18629477645E+02 0.15329500267E+02
 0.13005956011E+02 0.11610400495E+02 0.10890898087E+02 0.10608105721E+02 0.10611419022E+02
 0.10794218353E+02 0.11043751406E+02 0.11246989175E+02 0.11323974261E+02 0.11246989175E+02
 0.11043751406E+02 0.10794218353E+02 0.10611419022E+02 0.10608105721E+02 0.10890898087E+02
 0.11610400495E+02 0.13005956011E+02 0.15329500267E+02 0.18629477645E+02 0.22747402946E+02
 0.30253038522E+02 0.43551453753E+02 0.60203757675E+02 0.74276490706E+02 0.34600470704E+02
 0.32883965594E+02 0.28706371491E+02 0.24184636888E+02 0.20750076839E+02 0.17879840906E+02
 0.15329500267E+02 0.13409683088E+02 0.12210642075E+02 0.11654944164E+02 0.11610400495E+02
 0.11958763341E+02 0.12591683235E+02 0.13375424455E+02 0.14137000701E+02 0.14691367084E+02
 0.14894337603E+02 0.14691367084E+02 0.14137000701E+02 0.13375424455E+02 0.12591683235E+02
 0.11958763341E+02 0.11610400495E+02 0.11654944164E+02 0.12210642075E+02 0.13409683088E+02
 0.15329500267E+02 0.17879840906E+02 0.20750076839E+02 0.24184636888E+02 0.28706371491E+02
 0.32883965594E+02 0.20458537614E+02 0.20086078918E+02 0.19069127231E+02 0.17580462642E+02
 0.15884251718E+02 0.14277835940E+02 0.13005956011E+02 0.12210642075E+02 0.11942809249E+02
 0.12210642075E+02 0.13005956011E+02 0.14277835940E+02 0.15884251718E+02 0.17580462642E+02
 0.19069127231E+02 0.20086078918E+02 0.20458537614E+02 0.20086078918E+02 0.19069127231E+02
 0.17580462642E+02 0.15884251718E+02 0.14277835940E+02 0.13005956011E+02 0.12210642075E+02
 0.11942809249E+02 0.12210642075E+02 0.13005956011E+02 0.14277835940E+02 0.15884251718E+02
 0.17580462642E+02 0.19069127231E+02 0.20086078918E+02 0.14894337603E+02 0.14691367084E+02
 0.14137000701E+02 0.13375424455E+02 0.12591683235E+02 0.11958763341E+02 0.11610400495E+02
 0.11654944164E+02 0.12210642075E+02 0.13409683088E+02 0.15329500267E+02 0.17879840906E+02
 0.20750076839E+02 0.24184636888E+02 0.28706371491E+02 0.32883965594E+02 0.34600470704E+02
 0.32883965594E+02 0.28706371491E+02 0.24184636888E+02 0.20750076839E+02 0.17879840906E+02
 0.15329500267E+02 0.13409683088E+02 0.12210642075E+02 0.11654944164E+02 0.11610400495E+02
 0.11958763341E+02 0.12591683235E+02 0.13375424455E+02 0.14137000701E+02 0.14691367084E+02
 0.11323974261E+02 0.11246989175E+02 0.11043751406E+02 0.10794218353E+02 0.10611419022E+02
 0.10608105721E+02 0.10890898087E+02 0.11610400495E+02 0.13005956011E+02 0.15329500267E+02
 0.18629477645E+02 0.22747402946E+02 0.30253038522E+02 0.43551453753E+02 0.60203757675E+02
 0.74276490706E+02 0.79796398507E+02 0.74276490706E+02 0.60203757675E+02 0.43551453753E+02
 0.30253038522E+02 0.22747402946E+02 0.18629477645E+02 0.15329500267E+02 0.13005956011E+02
 0.11610400495E+02 0.10890898087E+02 0.10608105721E+02 0.10611419022E+02 0.10794218353E+02
 0.11043751406E+02 0.11246989175E+02 0.90881738696E+01 0.91060234733E+01 0.91493599055E+01
 0.92287002375E+01 0.94210451280E+01 0.98386630237E+01 0.10608105721E+02 0.11958763341E+02
 0.14277835940E+02 0.17879840906E+02 0.22747402946E+02 0.33189728438E+02 0.56011168583E+02
 0.91194253035E+02 0.13088228179E+03 0.16250479514E+03 0.17458883962E+03 0.16250479514E+03
 0.13088228179E+03 0.91194253035E+02 0.56011168583E+02 0.33189728438E+02 0.22747402946E+02
 0.17879840906E+02 0.14277835940E+02 0.11958763341E+02 0.10608105721E+02 0.98386630237E+01
 0.94210451280E+01 0.92287002375E+01 0.91493599055E+01 0.91060234733E+01 0.77844958754E+01
 0.78677568892E+01 0.80616075668E+01 0.83128599498E+01 0.87103927717E+01 0.94210451280E+01
 0.10611419022E+02 0.12591683235E+02 0.15884251718E+02 0.20750076839E+02 0.30253038522E+02
 0.56011168583E+02 0.10490532066E+03 0.17298071190E+03 0.24544004593E+03 0.30142621704E+03
 0.32253991039E+03 0.30142621704E+03 0.24544004593E+03 0.17298071190E+03 0.10490532066E+03
 0.56011168583E+02 0.30253038522E+02 0.20750076839E+02 0.15884251718E+02 0.12591683235E+02
 0.10611419022E+02 0.94210451280E+01 0.87103927717E+01 0.83128599498E+01 0.80616075668E+01
 0.78677568892E+01 0.71639717523E+01 0.72858683161E+01 0.75461507578E+01 0.78397202337E+01
 0.83128599498E+01 0.92287002375E+01 0.10794218353E+02 0.13375424455E+02 0.17580462642E+02
 0.24184636888E+02 0.43551453753E+02 0.91194253035E+02 0.17298071190E+03 0.28051780228E+03
 0.39154791738E+03 0.47606152171E+03 0.50774332772E+03 0.47606152171E+03 0.39154791738E+03
 0.28051780228E+03 0.17298071190E+03 0.91194253035E+02 0.43551453753E+02 0.24184636888E+02
 0.17580462642E+02 0.13375424455E+02 0.10794218353E+02 0.92287002375E+01 0.83128599498E+01
 0.78397202337E+01 0.75461507578E+01 0.72858683161E+01 0.67752168263E+01 0.69306662064E+01
 0.72398386572E+01 0.75461507578E+01 0.80616075668E+01 0.91493599055E+01 0.11043751406E+02
 0.14137000701E+02 0.19069127231E+02 0.28706371491E+02 0.60203757675E+02 0.13088228179E+03
 0.24544004593E+03 0.39154791738E+03 0.54019197253E+03 0.65263221562E+03 0.69469496961E+03
 0.65263221562E+03 0.54019197253E+03 0.39154791738E+03 0.24544004593E+03 0.13088228179E+03
 0.60203757675E+02 0.28706371491E+02 0.19069127231E+02 0.14137000701E+02 0.11043751406E+02
 0.91493599055E+01 0.80616075668E+01 0.75461507578E+01 0.72398386572E+01 0.69306662064E+01
 0.63583856843E+01 0.65520519766E+01 0.69306662064E+01 0.72858683161E+01 0.78677568892E+01
 0.91060234733E+01 0.11246989175E+02 0.14691367084E+02 0.20086078918E+02 0.32883965594E+02
 0.74276490706E+02 0.16250479514E+03 0.30142621704E+03 0.47606152171E+03 0.65263221562E+03
 0.78592957812E+03 0.83577518104E+03 0.78592957812E+03 0.65263221562E+03 0.47606152171E+03
 0.30142621704E+03 0.16250479514E+03 0.74276490706E+02 0.32883965594E+02 0.20086078918E+02
 0.14691367084E+02 0.11246989175E+02 0.91060234733E+01 0.78677568892E+01 0.72858683161E+01
 0.69306662064E+01 0.65520519766E+01 0.61456905163E+01 0.63583856843E+01 0.67752168263E+01
 0.71639717523E+01 0.77844958754E+01 0.90881738696E+01 0.11323974261E+02 0.14894337603E+02
 0.20458537614E+02 0.34600470704E+02 0.79796398507E+02 0.17458883962E+03 0.32253991039E+03
 0.50774332772E+03 0.69469496961E+03 0.83577518104E+03 0.88853165392E+03 0.83577518104E+03
 0.69469496961E+03 0.50774332772E+03 0.32253991039E+03 0.17458883962E+03 0.79796398507E+02
 0.34600470704E+02 0.20458537614E+02 0.14894337603E+02 0.11323974261E+02 0.90881738696E+01
 0.77844958754E+01 0.71639717523E+01 0.67752168263E+01 0.63583856843E+01 0.63583856843E+01
 0.65520519766E+01 0.69306662064E+01 0.72858683161E+01 0.78677568892E+01 0.91060234733E+01
 0.11246989175E+02 0.14691367084E+02 0.20086078918E+02 0.32883965594E+02 0.74276490706E+02
 0.16250479514E+03 0.30142621704E+03 0.47606152171E+03 0.65263221562E+03 0.78592957812E+03
 0.83577518104E+03 0.78592957812E+03 0.65263221562E+03 0.47606152171E+03 0.30142621704E+03
 0.16250479514E+03 0.74276490706E+02 0.32883965594E+02 0.20086078918E+02 0.14691367084E+02
 0.11246989175E+02 0.91060234733E+01 0.78677568892E+01 0.72858683161E+01 0.69306662064E+01
 0.65520519766E+01 0.67752168263E+01 0.69306662064E+01 0.72398386572E+01 0.75461507578E+01
 0.80616075668E+01 0.91493599055E+01 0.11043751406E+02 0.14137000701E+02 0.19069127231E+02
 0.28706371491E+02 0.60203757675E+02 0.13088228179E+03 0.24544004593E+03 0.39154791738E+03
 0.54019197253E+03 0.65263221562E+03 0.69469496961E+03 0.65263221562E+03 0.54019197253E+03
 0.39154791738E+03 0.24544004593E+03 0.13088228179E+03 0.60203757675E+02 0.28706371491E+02
 0.19069127231E+02 0.14137000701E+02 0.11043751406E+02 0.91493599055E+01 0.80616075668E+01
 0.75461507578E+01 0.72398386572E+01 0.69306662064E+01 0.71639717523E+01 0.72858683161E+01
 0.75461507578E+01 0.78397202337E+01 0.83128599498E+01 0.92287002375E+01 0.10794218353E+02
 0.13375424455E+02 0.17580462642E+02 0.24184636888E+02 0.43551453753E+02 0.91194253035E+02
 0.17298071190E+03 0.28051780228E+03 0.39154791738E+03 0.47606152171E+03 0.50774332772E+03
 0.47606152171E+03 0.39154791738E+03 0.28051780228E+03 0.17298071190E+03 0.91194253035E+02
 0.43551453753E+02 0.24184636888E+02 0.17580462642E+02 0.13375424455E+02 0.10794218353E+02
 0.92287002375E+01 0.83128599498E+01 0.78397202337E+01 0.75461507578E+01 0.72858683161E+01
 0.77844958754E+01 0.78677568892E+01 0.80616075668E+01 0.83128599498E+01 0.87103927717E+01
 0.94210451280E+01 0.10611419022E+02 0.12591683235E+02 0.15884251718E+02 0.20750076839E+02
 0.30253038522E+02 0.56011168583E+02 0.10490532066E+03 0.17298071190E+03 0.24544004593E+03
 0.30142621704E+03 0.32253991039E+03 0.30142621704E+03 0.24544004593E+03 0.17298071190E+03
 0.10490532066E+03 0.56011168583E+02 0.30253038522E+02 0.20750076839E+02 0.15884251718E+02
 0.12591683235E+02 0.10611419022E+02 0.94210451280E+01 0.87103927717E+01 0.83128599498E+01
 0.80616075668E+01 0.78677568892E+01 0.90881738696E+01 0.91060234733E+01 0.91493599055E+01
 0.92287002375E+01 0.94210451280E+01 0.98386630237E+01 0.10608105721E+02 0.11958763341E+02
 0.14277835940E+02 0.17879840906E+02 0.22747402946E+02 0.33189728438E+02 0.56011168583E+02
 0.91194253035E+02 0.13088228179E+03 0.16250479514E+03 0.17458883962E+03 0.16250479514E+03
 0.13088228179E+03 0.91194253035E+02 0.56011168583E+02 0.33189728438E+02 0.22747402946E+02
 0.17879840906E+02 0.14277835940E+02 0.11958763341E+02 0.10608105721E+02 0.98386630237E+01
 0.94210451280E+01 0.92287002375E+01 0.91493599055E+01 0.91060234733E+01 0.11323974261E+02
 0.11246989175E+02 0.11043751406E+02 0.10794218353E+02 0.10611419022E+02 0.10608105721E+02
 0.10890898087E+02 0.11610400495E+02 0.13005956011E+02 0.15329500267E+02 0.18629477645E+02
 0.22747402946E+02 0.30253038522E+02 0.43551453753E+02 0.60203757675E+02 0.74276490706E+02
 0.79796398507E+02 0.74276490706E+02 0.60203757675E+02 0.43551453753E+02 0.30253038522E+02
 0.22747402946E+02 0.18629477645E+02 0.15329500267E+02 0.13005956011E+02 0.11610400495E+02
 0.10890898087E+02 0.10608105721E+02 0.10611419022E+02 0.10794218353E+02 0.11043751406E+02
 0.11246989175E+02 0.14894337603E+02 0.14691367084E+02 0.14137000701E+02 0.13375424455E+02
 0.12591683235E+02 0.11958763341E+02 0.11610400495E+02 0.11654944164E+02 0.12210642075E+02
 0.13409683088E+02 0.15329500267E+02 0.17879840906E+02 0.20750076839E+02 0.24184636888E+02
 0.28706371491E+02 0.32883965594E+02 0.34600470704E+02 0.32883965594E+02 0.28706371491E+02
 0.24184636888E+02 0.20750076839E+02 0.17879840906E+02 0.15329500267E+02 0.13409683088E+02
 0.12210642075E+02 0.11654944164E+02 0.11610400495E+02 0.11958763341E+02 0.12591683235E+02
 0.13375424455E+02 0.14137000701E+02 0.14691367084E+02 0.20458537614E+02 0.20086078918E+02
 0.19069127231E+02 0.17580462642E+02 0.15884251718E+02 0.14277835940E+02 0.13005956011E+02
 0.12210642075E+02 0.11942809249E+02 0.12210642075E+02 0.13005956011E+02 0.14277835940E+02
 0.15884251718E+02 0.17580462642E+02 0.19069127231E+02 0.20086078918E+02 0.20458537614E+02
 0.20086078918E+02 0.19069127231E+02 0.17580462642E+02 0.15884251718E+02 0.14277835940E+02
 0.13005956011E+02 0.12210642075E+02 0.11942809249E+02 0.12210642075E+02 0.13005956011E+02
 0.14277835940E+02 0.15884251718E+02 0.17580462642E+02 0.19069127231E+02 0.20086078918E+02
 0.34600470704E+02 0.32883965594E+02 0.28706371491E+02 0.24184636888E+02 0.20750076839E+02
 0.17879840906E+02 0.15329500267E+02 0.13409683088E+02 0.12210642075E+02 0.11654944164E+02
 0.11610400495E+02 0.11958763341E+02 0.12591683235E+02 0.13375424455E+02 0.14137000701E+02
 0.14691367084E+02 0.14894337603E+02 0.14691367084E+02 0.14137000701E+02 0.13375424455E+02
 0.12591683235E+02 0.11958763341E+02 0.11610400495E+02 0.11654944164E+02 0.12210642075E+02
 0.13409683088E+02 0.15329500267E+02 0.17879840906E+02 0.20750076839E+02 0.24184636888E+02
 0.28706371491E+02 0.32883965594E+02 0.79796398507E+02 0.74276490706E+02 0.60203757675E+02
 0.43551453753E+02 0.30253038522E+02 0.22747402946E+02 0.18629477645E+02 0.15329500267E+02
 0.13005956011E+02 0.11610400495E+02 0.10890898087E+02 0.10608105721E+02 0.10611419022E+02
 0.10794218353E+02 0.11043751406E+02 0.11246989175E+02 0.11323974261E+02 0.11246989175E+02
 0.11043751406E+02 0.10794218353E+02 0.10611419022E+02 0.10608105721E+02 0.10890898087E+02
 0.11610400495E+02 0.13005956011E+02 0.15329500267E+02 0.18629477645E+02 0.22747402946E+02
 0.30253038522E+02 0.43551453753E+02 0.60203757675E+02 0.74276490706E+02 0.17458883962E+03
 0.16250479514E+03 0.13088228179E+03 0.91194253035E+02 0.56011168583E+02 0.33189728438E+02
 0.22747402946E+02 0.17879840906E+02 0.14277835940E+02 0.11958763341E+02 0.10608105721E+02
 0.98386630237E+01 0.94210451280E+01 0.92287002375E+01 0.91493599055E+01 0.91060234733E+01
 0.90881738696E+01 0.91060234733E+01 0.91493599055E+01 0.92287002375E+01 0.94210451280E+01
 0.98386630237E+01 0.10608105721E+02 0.11958763341E+02 0.14277835940E+02 0.17879840906E+02
 0.22747402946E+02 0.33189728438E+02 0.56011168583E+02 0.91194253035E+02 0.13088228179E+03
 0.16250479514E+03 0.32253991039E+03 0.30142621704E+03 0.24544004593E+03 0.17298071190E+03
 0.10490532066E+03 0.56011168583E+02 0.30253038522E+02 0.20750076839E+02 0.15884251718E+02
 0.12591683235E+02 0.10611419022E+02 0.94210451280E+01 0.87103927717E+01 0.83128599498E+01
 0.80616075668E+01 0.78677568892E+01 0.77844958754E+01 0.78677568892E+01 0.80616075668E+01
 0.83128599498E+01 0.87103927717E+01 0.94210451280E+01 0.10611419022E+02 0.12591683235E+02
 0.15884251718E+02 0.20750076839E+02 0.30253038522E+02 0.56011168583E+02 0.10490532066E+03
 0.17298071190E+03 0.24544004593E+03 0.30142621704E+03 0.50774332772E+03 0.47606152171E+03
 0.39154791738E+03 0.28051780228E+03 0.17298071190E+03 0.91194253035E+02 0.43551453753E+02
 0.24184636888E+02 0.17580462642E+02 0.13375424455E+02 0.10794218353E+02 0.92287002375E+01
 0.83128599498E+01 0.78397202337E+01 0.75461507578E+01 0.72858683161E+01 0.71639717523E+01
 0.72858683161E+01 0.75461507578E+01 0.78397202337E+01 0.83128599498E+01 0.92287002375E+01
 0.10794218353E+02 0.13375424455E+02 0.17580462642E+02 0.24184636888E+02 0.43551453753E+02
 0.91194253035E+02 0.17298071190E+03 0.28051780228E+03 0.39154791738E+03 0.47606152171E+03
 0.69469496961E+03 0.65263221562E+03 0.54019197253E+03 0.39154791738E+03 0.24544004593E+03
 0.13088228179E+03 0.60203757675E+02 0.28706371491E+02 0.19069127231E+02 0.14137000701E+02
 0.11043751406E+02 0.91493599055E+01 0.80616075668E+01 0.75461507578E+01 0.72398386572E+01
 0.69306662064E+01 0.67752168263E+01 0.69306662064E+01 0.72398386572E+01 0.75461507578E+01
 0.80616075668E+01 0.91493599055E+01 0.11043751406E+02 0.14137000701E+02 0.19069127231E+02
 0.28706371491E+02 0.60203757675E+02 0.13088228179E+03 0.24544004593E+03 0.39154791738E+03
 0.54019197253E+03 0.65263221562E+03 0.83577518104E+03 0.78592957812E+03 0.65263221562E+03
 0.47606152171E+03 0.30142621704E+03 0.16250479514E+03 0.74276490706E+02 0.32883965594E+02
 0.20086078918E+02 0.14691367084E+02 0.11246989175E+02 0.91060234733E+01 0.78677568892E+01
 0.72858683161E+01 0.69306662064E+01 0.65520519766E+01 0.63583856843E+01 0.65520519766E+01
 0.69306662064E+01 0.72858683161E+01 0.78677568892E+01 0.91060234733E+01 0.11246989175E+02
 0.14691367084E+02 0.20086078918E+02 0.32883965594E+02 0.74276490706E+02 0.16250479514E+03
 0.30142621704E+03 0.47606152171E+03 0.65263221562E+03 0.78592957812E+03 0.83577518104E+03
 0.78592957812E+03 0.65263221562E+03 0.47606152171E+03 0.30142621704E+03 0.16250479514E+03
 0.74276490706E+02 0.32883965594E+02 0.20086078918E+02 0.14691367084E+02 0.11246989175E+02
 0.91060234733E+01 0.78677568892E+01 0.72858683161E+01 0.69306662064E+01 0.65520519766E+01
 0.63583856843E+01 0.65520519766E+01 0.69306662064E+01 0.72858683161E+01 0.78677568892E+01
 0.91060234733E+01 0.11246989175E+02 0.14691367084E+02 0.20086078918E+02 0.32883965594E+02
 0.74276490706E+02 0.16250479514E+03 0.30142621704E+03 0.47606152171E+03 0.65263221562E+03
 0.78592957812E+03 0.78592957812E+03 0.73883493926E+03 0.61290114546E+03 0.44617030315E+03
 0.28156798275E+03 0.15121517987E+03 0.69185822310E+02 0.31336080825E+02 0.19730325365E+02
 0.14493666154E+02 0.11171142615E+02 0.91202150889E+01 0.79430450964E+01 0.73965202305E+01
 0.70717716758E+01 0.67281875559E+01 0.65520519766E+01 0.67281875559E+01 0.70717716758E+01
 0.73965202305E+01 0.79430450964E+01 0.91202150889E+01 0.11171142615E+02 0.14493666154E+02
 0.19730325365E+02 0.31336080825E+02 0.69185822310E+02 0.15121517987E+03 0.28156798275E+03
 0.44617030315E+03 0.61290114546E+03 0.73883493926E+03 0.65263221562E+03 0.61290114546E+03
 0.50672058198E+03 0.36647965636E+03 0.22896651213E+03 0.12172305606E+03 0.56243927595E+02
 0.27579630590E+02 0.18738214881E+02 0.13954565991E+02 0.10971823210E+02 0.91556797441E+01
 0.81195764844E+01 0.76335227313E+01 0.73522507968E+01 0.70717716758E+01 0.69306662064E+01
 0.70717716758E+01 0.73522507968E+01 0.76335227313E+01 0.81195764844E+01 0.91556797441E+01
 0.10971823210E+02 0.13954565991E+02 0.18738214881E+02 0.27579630590E+02 0.56243927595E+02
 0.12172305606E+03 0.22896651213E+03 0.36647965636E+03 0.50672058198E+03 0.61290114546E+03
 0.47606152171E+03 0.44617030315E+03 0.36647965636E+03 0.26195115039E+03 0.16106199262E+03
 0.84857522657E+02 0.41025010767E+02 0.23520706924E+02 0.17285140146E+02 0.13216066558E+02
 0.10728765015E+02 0.92269780376E+01 0.83531069359E+01 0.79053026009E+01 0.76335227313E+01
 0.73965202305E+01 0.72858683161E+01 0.73965202305E+01 0.76335227313E+01 0.79053026009E+01
 0.83531069359E+01 0.92269780376E+01 0.10728765015E+02 0.13216066558E+02 0.17285140146E+02
 0.23520706924E+02 0.41025010767E+02 0.84857522657E+02 0.16106199262E+03 0.26195115039E+03
 0.36647965636E+03 0.44617030315E+03 0.30142621704E+03 0.28156798275E+03 0.22896651213E+03
 0.16106199262E+03 0.97587839277E+02 0.52421325912E+02 0.28993513794E+02 0.20358671685E+02
 0.15637187517E+02 0.12458741972E+02 0.10551937773E+02 0.94093099135E+01 0.87301683320E+01
 0.83531069359E+01 0.81195764844E+01 0.79430450964E+01 0.78677568892E+01 0.79430450964E+01
 0.81195764844E+01 0.83531069359E+01 0.87301683320E+01 0.94093099135E+01 0.10551937773E+02
 0.12458741972E+02 0.15637187517E+02 0.20358671685E+02 0.28993513794E+02 0.52421325912E+02
 0.97587839277E+02 0.16106199262E+03 0.22896651213E+03 0.28156798275E+03 0.16250479514E+03
 0.15121517987E+03 0.12172305606E+03 0.84857522657E+02 0.52421325912E+02 0.31645460227E+02
 0.22231868043E+02 0.17565849351E+02 0.14083668874E+02 0.11849512696E+02 0.10549310669E+02
 0.98095365147E+01 0.94093099135E+01 0.92269780376E+01 0.91556797441E+01 0.91202150889E+01
 0.91060234733E+01 0.91202150889E+01 0.91556797441E+01 0.92269780376E+01 0.94093099135E+01
 0.98095365147E+01 0.10549310669E+02 0.11849512696E+02 0.14083668874E+02 0.17565849351E+02
 0.22231868043E+02 0.31645460227E+02 0.52421325912E+02 0.84857522657E+02 0.12172305606E+03
 0.15121517987E+03 0.74276490706E+02 0.69185822310E+02 0.56243927595E+02 0.41025010767E+02
 0.28993513794E+02 0.22231868043E+02 0.18291516428E+02 0.15097029606E+02 0.12858577950E+02
 0.11515881157E+02 0.10822651121E+02 0.10549310669E+02 0.10551937773E+02 0.10728765015E+02
 0.10971823210E+02 0.11171142615E+02 0.11246989175E+02 0.11171142615E+02 0.10971823210E+02
 0.10728765015E+02 0.10551937773E+02 0.10549310669E+02 0.10822651121E+02 0.11515881157E+02
 0.12858577950E+02 0.15097029606E+02 0.18291516428E+02 0.22231868043E+02 0.28993513794E+02
 0.41025010767E+02 0.56243927595E+02 0.69185822310E+02 0.32883965594E+02 0.31336080825E+02
 0.27579630590E+02 0.23520706924E+02 0.20358671685E+02 0.17565849351E+02 0.15097029606E+02
 0.13247307345E+02 0.12094790142E+02 0.11560228821E+02 0.11515881157E+02 0.11849512696E+02
 0.12458741972E+02 0.13216066558E+02 0.13954565991E+02 0.14493666154E+02 0.14691367084E+02
 0.14493666154E+02 0.13954565991E+02 0.13216066558E+02 0.12458741972E+02 0.11849512696E+02
 0.11515881157E+02 0.11560228821E+02 0.12094790142E+02 0.13247307345E+02 0.15097029606E+02
 0.17565849351E+02 0.20358671685E+02 0.23520706924E+02 0.27579630590E+02 0.31336080825E+02
 0.20086078918E+02 0.19730325365E+02 0.18738214881E+02 0.17285140146E+02 0.15637187517E+02
 0.14083668874E+02 0.12858577950E+02 0.12094790142E+02 0.11837984802E+02 0.12094790142E+02
 0.12858577950E+02 0.14083668874E+02 0.15637187517E+02 0.17285140146E+02 0.18738214881E+02
 0.19730325365E+02 0.20086078918E+02 0.19730325365E+02 0.18738214881E+02 0.17285140146E+02
 0.15637187517E+02 0.14083668874E+02 0.12858577950E+02 0.12094790142E+02 0.11837984802E+02
 0.12094790142E+02 0.12858577950E+02 0.14083668874E+02 0.15637187517E+02 0.17285140146E+02
 0.18738214881E+02 0.19730325365E+02 0.14691367084E+02 0.14493666154E+02 0.13954565991E+02
 0.13216066558E+02 0.12458741972E+02 0.11849512696E+02 0.11515881157E+02 0.11560228821E+02
 0.12094790142E+02 0.13247307345E+02 0.15097029606E+02 0.17565849351E+02 0.20358671685E+02
 0.23520706924E+02 0.27579630590E+02 0.31336080825E+02 0.32883965594E+02 0.31336080825E+02
 0.27579630590E+02 0.23520706924E+02 0.20358671685E+02 0.17565849351E+02 0.15097029606E+02
 0.13247307345E+02 0.12094790142E+02 0.11560228821E+02 0.11515881157E+02 0.11849512696E+02
 0.12458741972E+02 0.13216066558E+02 0.13954565991E+02 0.14493666154E+02 0.11246989175E+02
 0.11171142615E+02 0.10971823210E+02 0.10728765015E+02 0.10551937773E+02 0.10549310669E+02
 0.10822651121E+02 0.11515881157E+02 0.12858577950E+02 0.15097029606E+02 0.18291516428E+02
 0.22231868043E+02 0.28993513794E+02 0.41025010767E+02 0.56243927595E+02 0.69185822310E+02
 0.74276490706E+02 0.69185822310E+02 0.56243927595E+02 0.41025010767E+02 0.28993513794E+02
 0.22231868043E+02 0.18291516428E+02 0.15097029606E+02 0.12858577950E+02 0.11515881157E+02
 0.10822651121E+02 0.10549310669E+02 0.10551937773E+02 0.10728765015E+02 0.10971823210E+02
 0.11171142615E+02 0.91060234733E+01 0.91202150889E+01 0.91556797441E+01 0.92269780376E+01
 0.94093099135E+01 0.98095365147E+01 0.10549310669E+02 0.11849512696E+02 0.14083668874E+02
 0.17565849351E+02 0.22231868043E+02 0.31645460227E+02 0.52421325912E+02 0.84857522657E+02
 0.12172305606E+03 0.15121517987E+03 0.16250479514E+03 0.15121517987E+03 0.12172305606E+03
 0.84857522657E+02 0.52421325912E+02 0.31645460227E+02 0.22231868043E+02 0.17565849351E+02
 0.14083668874E+02 0.11849512696E+02 0.10549310669E+02 0.98095365147E+01 0.94093099135E+01
 0.92269780376E+01 0.91556797441E+01 0.91202150889E+01 0.78677568892E+01 0.79430450964E+01
 0.81195764844E+01 0.83531069359E+01 0.87301683320E+01 0.94093099135E+01 0.10551937773E+02
 0.12458741972E+02 0.15637187517E+02 0.20358671685E+02 0.28993513794E+02 0.52421325912E+02
 0.97587839277E+02 0.16106199262E+03 0.22896651213E+03 0.28156798275E+03 0.30142621704E+03
 0.28156798275E+03 0.22896651213E+03 0.16106199262E+03 0.97587839277E+02 0.52421325912E+02
 0.28993513794E+02 0.20358671685E+02 0.15637187517E+02 0.12458741972E+02 0.10551937773E+02
 0.94093099135E+01 0.87301683320E+01 0.83531069359E+01 0.81195764844E+01 0.79430450964E+01
 0.72858683161E+01 0.73965202305E+01 0.76335227313E+01 0.79053026009E+01 0.83531069359E+01
 0.92269780376E+01 0.10728765015E+02 0.13216066558E+02 0.17285140146E+02 0.23520706924E+02
 0.41025010767E+02 0.84857522657E+02 0.16106199262E+03 0.26195115039E+03 0.36647965636E+03
 0.44617030315E+03 0.47606152171E+03 0.44617030315E+03 0.36647965636E+03 0.26195115039E+03
 0.16106199262E+03 0.84857522657E+02 0.41025010767E+02 0.23520706924E+02 0.17285140146E+02
 0.13216066558E+02 0.10728765015E+02 0.92269780376E+01 0.83531069359E+01 0.79053026009E+01
 0.76335227313E+01 0.73965202305E+01 0.69306662064E+01 0.70717716758E+01 0.73522507968E+01
 0.76335227313E+01 0.81195764844E+01 0.91556797441E+01 0.10971823210E+02 0.13954565991E+02
 0.18738214881E+02 0.27579630590E+02 0.56243927595E+02 0.12172305606E+03 0.22896651213E+03
 0.36647965636E+03 0.50672058198E+03 0.61290114546E+03 0.65263221562E+03 0.61290114546E+03
 0.50672058198E+03 0.36647965636E+03 0.22896651213E+03 0.12172305606E+03 0.56243927595E+02
 0.27579630590E+02 0.18738214881E+02 0.13954565991E+02 0.10971823210E+02 0.91556797441E+01
 0.81195764844E+01 0.76335227313E+01 0.73522507968E+01 0.70717716758E+01 0.65520519766E+01
 0.67281875559E+01 0.70717716758E+01 0.73965202305E+01 0.79430450964E+01 0.91202150889E+01
 0.11171142615E+02 0.14493666154E+02 0.19730325365E+02 0.31336080825E+02 0.69185822310E+02
 0.15121517987E+03 0.28156798275E+03 0.44617030315E+03 0.61290114546E+03 0.73883493926E+03
 0.78592957812E+03 0.73883493926E+03 0.61290114546E+03 0.44617030315E+03 0.28156798275E+03
 0.15121517987E+03 0.69185822310E+02 0.31336080825E+02 0.19730325365E+02 0.14493666154E+02
 0.11171142615E+02 0.91202150889E+01 0.79430450964E+01 0.73965202305E+01 0.70717716758E+01
 0.67281875559E+01 0.63583856843E+01 0.65520519766E+01 0.69306662064E+01 0.72858683161E+01
 0.78677568892E+01 0.91060234733E+01 0.11246989175E+02 0.14691367084E+02 0.20086078918E+02
 0.32883965594E+02 0.74276490706E+02 0.16250479514E+03 0.30142621704E+03 0.47606152171E+03
 0.65263221562E+03 0.78592957812E+03 0.83577518104E+03 0.78592957812E+03 0.65263221562E+03
 0.47606152171E+03 0.30142621704E+03 0.16250479514E+03 0.74276490706E+02 0.32883965594E+02
 0.20086078918E+02 0.14691367084E+02 0.11246989175E+02 0.91060234733E+01 0.78677568892E+01
 0.72858683161E+01 0.69306662064E+01 0.65520519766E+01 0.65520519766E+01 0.67281875559E+01
 0.70717716758E+01 0.73965202305E+01 0.79430450964E+01 0.91202150889E+01 0.11171142615E+02
 0.14493666154E+02 0.19730325365E+02 0.31336080825E+02 0.69185822310E+02 0.15121517987E+03
 0.28156798275E+03 0.44617030315E+03 0.61290114546E+03 0.73883493926E+03 0.78592957812E+03
 0.73883493926E+03 0.61290114546E+03 0.44617030315E+03 0.28156798275E+03 0.15121517987E+03
 0.69185822310E+02 0.31336080825E+02 0.19730325365E+02 0.14493666154E+02 0.11171142615E+02
 0.91202150889E+01 0.79430450964E+01 0.73965202305E+01 0.70717716758E+01 0.67281875559E+01
 0.69306662064E+01 0.70717716758E+01 0.73522507968E+01 0.76335227313E+01 0.81195764844E+01
 0.91556797441E+01 0.10971823210E+02 0.13954565991E+02 0.18738214881E+02 0.27579630590E+02
 0.56243927595E+02 0.12172305606E+03 0.22896651213E+03 0.36647965636E+03 0.50672058198E+03
 0.61290114546E+03 0.65263221562E+03 0.61290114546E+03 0.50672058198E+03 0.36647965636E+03
 0.22896651213E+03 0.12172305606E+03 0.56243927595E+02 0.27579630590E+02 0.18738214881E+02