<?xml version="1.0" encoding="ISO-8859-1"?>
<modeling>
 <generator>
  <i name="program" type="string">vasp </i>
  <i name="version" type="string">6.2.0  </i>
  <i name="subversion" type="string">18Jan21 (build Mar 17 2021 09:06:54) complex                          serial </i>
  <i name="platform" type="string">LinuxIFC </i>
  <i name="date" type="string">2021 08 03 </i>
  <i name="time" type="string">10:15:50 </i>
 </generator>
 <incar>
  <i type="string" name="PREC">normal</i>
  <i type="int" name="ICHARG">     1</i>
  <i type="int" name="IBRION">     1</i>
  <i name="EDIFF">      0.00000100</i>
  <i type="int" name="NSW">     0</i>
  <i type="int" name="ISIF">     4</i>
  <i name="ENCUT">    320.00000000</i>
  <i type="int" name="NBANDS">    30</i>
  <i type="int" name="ISMEAR">     1</i>
  <i name="SIGMA">      0.20000000</i>
  <i type="logical" name="LCHARG"> T  </i>
  <i type="int" name="KPAR">     1</i>
  <i type="int" name="NCORE">     1</i>
  <i type="string" name="GGA">PE</i>
 </incar>
 <primitive_cell>
  <structure name="primitive_cell" >
   <crystal>
    <varray name="basis" >
     <v>       1.84730038      -1.84730038       0.00000000 </v>
     <v>       1.84730038       0.00000000       1.84730038 </v>
     <v>       0.00000000      -1.84730038       1.84730038 </v>
    </varray>
    <i name="volume">     12.60789413 </i>
    <varray name="rec_basis" >
     <v>       0.27066524      -0.27066524      -0.27066524 </v>
     <v>       0.27066524       0.27066524       0.27066524 </v>
     <v>      -0.27066524      -0.27066524       0.27066524 </v>
    </varray>
   </crystal>
   <varray name="positions" >
    <v>       0.00000000       0.00000000       0.00000000 </v>
   </varray>
  </structure>
  <varray name="primitive_index" >
   <v type="int" >        1 </v>
  </varray>
 </primitive_cell>
 <kpoints>
  <generation param="Monkhorst-Pack">
   <v type="int" name="divisions">       9        9        9 </v>
   <v name="usershift">      0.00000000       0.00000000       0.00000000 </v>
   <v name="genvec1">      0.11111111       0.00000000       0.00000000 </v>
   <v name="genvec2">      0.00000000       0.11111111       0.00000000 </v>
   <v name="genvec3">      0.00000000       0.00000000       0.11111111 </v>
   <v name="shift">      0.00000000       0.00000000       0.00000000 </v>
  </generation>
  <varray name="kpointlist" >
   <v>       0.00000000       0.00000000       0.00000000 </v>
   <v>       0.11111111       0.00000000       0.00000000 </v>
   <v>       0.22222222       0.00000000       0.00000000 </v>
   <v>       0.33333333       0.00000000       0.00000000 </v>
   <v>       0.44444444       0.00000000       0.00000000 </v>
   <v>       0.11111111       0.11111111       0.00000000 </v>
   <v>       0.22222222       0.11111111       0.00000000 </v>
   <v>       0.33333333       0.11111111       0.00000000 </v>
   <v>       0.44444444       0.11111111       0.00000000 </v>
   <v>       0.22222222       0.22222222       0.00000000 </v>
   <v>       0.33333333       0.22222222       0.00000000 </v>
   <v>       0.44444444       0.22222222       0.00000000 </v>
   <v>       0.33333333       0.33333333       0.00000000 </v>
   <v>       0.44444444       0.33333333       0.00000000 </v>
   <v>       0.44444444       0.44444444       0.00000000 </v>
   <v>       0.11111111       0.11111111       0.11111111 </v>
   <v>       0.22222222       0.11111111       0.11111111 </v>
   <v>       0.33333333       0.11111111       0.11111111 </v>
   <v>       0.44444444       0.11111111       0.11111111 </v>
   <v>       0.22222222       0.22222222       0.11111111 </v>
   <v>       0.33333333       0.22222222       0.11111111 </v>
   <v>       0.44444444       0.22222222       0.11111111 </v>
   <v>       0.33333333       0.33333333       0.11111111 </v>
   <v>       0.44444444       0.33333333       0.11111111 </v>
   <v>       0.44444444       0.44444444       0.11111111 </v>
   <v>       0.22222222       0.22222222       0.22222222 </v>
   <v>       0.33333333       0.22222222       0.22222222 </v>
   <v>       0.44444444       0.22222222       0.22222222 </v>
   <v>       0.33333333       0.33333333       0.22222222 </v>
   <v>       0.44444444       0.33333333       0.22222222 </v>
   <v>       0.44444444       0.44444444       0.22222222 </v>
   <v>       0.33333333       0.33333333       0.33333333 </v>
   <v>       0.44444444       0.33333333       0.33333333 </v>
   <v>       0.44444444       0.44444444       0.33333333 </v>
   <v>       0.44444444       0.44444444       0.44444444 </v>
  </varray>
  <varray name="weights" >
   <v>       0.00137174 </v>
   <v>       0.00823045 </v>
   <v>       0.00823045 </v>
   <v>       0.00823045 </v>
   <v>       0.00823045 </v>
   <v>       0.01646091 </v>
   <v>       0.03292181 </v>
   <v>       0.03292181 </v>
   <v>       0.03292181 </v>
   <v>       0.01646091 </v>
   <v>       0.03292181 </v>
   <v>       0.03292181 </v>
   <v>       0.01646091 </v>
   <v>       0.03292181 </v>
   <v>       0.01646091 </v>
   <v>       0.01097394 </v>
   <v>       0.03292181 </v>
   <v>       0.03292181 </v>
   <v>       0.03292181 </v>
   <v>       0.03292181 </v>
   <v>       0.06584362 </v>
   <v>       0.06584362 </v>
   <v>       0.03292181 </v>
   <v>       0.06584362 </v>
   <v>       0.03292181 </v>
   <v>       0.01097394 </v>
   <v>       0.03292181 </v>
   <v>       0.03292181 </v>
   <v>       0.03292181 </v>
   <v>       0.06584362 </v>
   <v>       0.03292181 </v>
   <v>       0.01097394 </v>
   <v>       0.03292181 </v>
   <v>       0.03292181 </v>
   <v>       0.01097394 </v>
  </varray>
 </kpoints>
 <parameters>
  <separator name="general" >
   <i type="string" name="SYSTEM">unknown system</i>
   <i type="logical" name="LCOMPAT"> F  </i>
  </separator>
  <separator name="electronic" >
   <i type="string" name="PREC">normal</i>
   <i name="ENMAX">    320.00000000</i>
   <i name="ENAUG">    586.98000000</i>
   <i name="EDIFF">      0.00000100</i>
   <i type="int" name="IALGO">    38</i>
   <i type="int" name="IWAVPR">     0</i>
   <i type="int" name="NBANDS">    30</i>
   <i type="int" name="NBANDSLOW">    -1</i>
   <i type="int" name="NBANDSHIGH">    -1</i>
   <i name="NELECT">     44.00000000</i>
   <i type="int" name="TURBO">     0</i>
   <i type="int" name="IRESTART">     0</i>
   <i type="int" name="NREBOOT">     0</i>
   <i type="int" name="NMIN">     0</i>
   <i name="EREF">      0.00000000</i>
   <separator name="electronic smearing" >
    <i type="int" name="ISMEAR">     1</i>
    <i name="SIGMA">      0.20000000</i>
    <i name="KSPACING">      0.50000000</i>
    <i type="logical" name="KGAMMA"> T  </i>
    <i type="logical" name="KBLOWUP"> T  </i>
   </separator>
   <separator name="electronic projectors" >
    <i type="logical" name="LREAL"> F  </i>
    <v name="ROPT">      0.00000000</v>
    <i type="int" name="LMAXPAW">  -100</i>
    <i type="int" name="LMAXMIX">     2</i>
    <i type="logical" name="NLSPLINE"> F  </i>
   </separator>
   <separator name="electronic startup" >
    <i type="int" name="ISTART">     1</i>
    <i type="int" name="ICHARG">     1</i>
    <i type="int" name="INIWAV">     1</i>
   </separator>
   <separator name="electronic spin" >
    <i type="int" name="ISPIN">     1</i>
    <i type="logical" name="LNONCOLLINEAR"> F  </i>
    <v name="MAGMOM">      1.00000000      1.00000000      1.00000000      1.00000000</v>
    <i name="NUPDOWN">     -1.00000000</i>
    <i type="logical" name="LSORBIT"> F  </i>
    <v name="SAXIS">      0.00000000      0.00000000      1.00000000</v>
    <i type="logical" name="LSPIRAL"> F  </i>
    <v name="QSPIRAL">      0.00000000      0.00000000      0.00000000</v>
    <i type="logical" name="LZEROZ"> F  </i>
   </separator>
   <separator name="electronic exchange-correlation" >
    <i type="logical" name="LASPH"> F  </i>
    <i type="logical" name="LMETAGGA"> F  </i>
   </separator>
   <separator name="electronic convergence" >
    <i type="int" name="NELM">    60</i>
    <i type="int" name="NELMDL">     0</i>
    <i type="int" name="NELMIN">     2</i>
    <i name="ENINI">    320.00000000</i>
    <separator name="electronic convergence detail" >
     <i type="logical" name="LDIAG"> T  </i>
     <i type="logical" name="LSUBROT"> F  </i>
     <i name="WEIMIN">      0.00000000</i>
     <i name="EBREAK">      0.00000001</i>
     <i name="DEPER">      0.30000000</i>
     <i type="int" name="NRMM">     4</i>
     <i name="TIME">      0.40000000</i>
    </separator>
   </separator>
   <separator name="electronic mixer" >
    <i name="AMIX">      0.40000000</i>
    <i name="BMIX">      1.00000000</i>
    <i name="AMIN">      0.10000000</i>
    <i name="AMIX_MAG">      1.60000000</i>
    <i name="BMIX_MAG">      1.00000000</i>
    <separator name="electronic mixer details" >
     <i type="int" name="IMIX">     4</i>
     <i type="logical" name="MIXFIRST"> F  </i>
     <i type="int" name="MAXMIX">   -45</i>
     <i name="WC">    100.00000000</i>
     <i type="int" name="INIMIX">     1</i>
     <i type="int" name="MIXPRE">     1</i>
     <i type="int" name="MREMOVE">     5</i>
    </separator>
   </separator>
   <separator name="electronic dipolcorrection" >
    <i type="logical" name="LDIPOL"> F  </i>
    <i type="logical" name="LMONO"> F  </i>
    <i type="int" name="IDIPOL">     0</i>
    <i name="EPSILON">      1.00000000</i>
    <v name="DIPOL">   -100.00000000   -100.00000000   -100.00000000</v>
    <i name="EFIELD">      0.00000000</i>
   </separator>
  </separator>
  <separator name="grids" >
   <i type="int" name="NGX">    16</i>
   <i type="int" name="NGY">    16</i>
   <i type="int" name="NGZ">    16</i>
   <i type="int" name="NGXF">    32</i>
   <i type="int" name="NGYF">    32</i>
   <i type="int" name="NGZF">    32</i>
   <i type="logical" name="ADDGRID"> F  </i>
  </separator>
  <separator name="ionic" >
   <i type="int" name="NSW">     0</i>
   <i type="int" name="IBRION">    -1</i>
   <i type="int" name="MDALGO">     0</i>
   <i type="int" name="ISIF">     4</i>
   <i name="PSTRESS">      0.00000000</i>
   <i name="EDIFFG">      0.00001000</i>
   <i type="int" name="NFREE">     0</i>
   <i name="POTIM">      0.50000000</i>
   <i name="SMASS">     -3.00000000</i>
   <i name="SCALEE">      1.00000000</i>
  </separator>
  <separator name="ionic md" >
   <i name="TEBEG">      0.00010000</i>
   <i name="TEEND">      0.00010000</i>
   <i type="int" name="NBLOCK">     1</i>
   <i type="int" name="KBLOCK">     1</i>
   <i type="int" name="NPACO">   256</i>
   <i name="APACO">     16.00000000</i>
  </separator>
  <separator name="symmetry" >
   <i type="int" name="ISYM">     2</i>
   <i name="SYMPREC">      0.00001000</i>
  </separator>
  <separator name="dos" >
   <i type="int" name="LORBIT">     0</i>
   <v name="RWIGS">     -1.00000000</v>
   <i type="int" name="NEDOS">   301</i>
   <i name="EMIN">     10.00000000</i>
   <i name="EMAX">    -10.00000000</i>
   <i name="EFERMI">      0.00000000</i>
  </separator>
  <separator name="writing" >
   <i type="int" name="NWRITE">     2</i>
   <i type="logical" name="LWAVE"> T  </i>
   <i type="logical" name="LDOWNSAMPLE"> F  </i>
   <i type="logical" name="LCHARG"> T  </i>
   <i type="logical" name="LPARD"> F  </i>
   <i type="logical" name="LVTOT"> F  </i>
   <i type="logical" name="LVHAR"> F  </i>
   <i type="logical" name="LELF"> F  </i>
   <i type="logical" name="LOPTICS"> F  </i>
   <v name="STM">      0.00000000      0.00000000      0.00000000      0.00000000      0.00000000      0.00000000      0.00000000</v>
  </separator>
  <separator name="performance" >
   <i type="int" name="NPAR">     1</i>
   <i type="int" name="NSIM">     4</i>
   <i type="int" name="NBLK">    -1</i>
   <i type="logical" name="LPLANE"> T  </i>
   <i type="logical" name="LSCALAPACK"> F  </i>
   <i type="logical" name="LSCAAWARE"> F  </i>
   <i type="logical" name="LSCALU"> F  </i>
   <i type="logical" name="LASYNC"> F  </i>
   <i type="logical" name="LORBITALREAL"> F  </i>
  </separator>
  <separator name="miscellaneous" >
   <i type="int" name="IDIOT">     3</i>
   <i type="int" name="PHON_NSTRUCT">    -1</i>
   <i type="logical" name="LMUSIC"> F  </i>
   <v name="POMASS">     63.54600000</v>
   <v name="DARWINR">      0.00000000</v>
   <v name="DARWINV">      1.00000000</v>
   <i type="logical" name="LCORR"> T  </i>
  </separator>
  <i type="logical" name="GGA_COMPAT"> T  </i>
  <i type="logical" name="LBERRY"> F  </i>
  <i type="int" name="ICORELEVEL">     0</i>
  <i type="logical" name="LDAU"> F  </i>
  <i type="int" name="I_CONSTRAINED_M">     0</i>
  <separator name="electronic exchange-correlation" >
   <i type="string" name="GGA">PE</i>
   <i type="int" name="VOSKOWN">     0</i>
   <i type="logical" name="LHFCALC"> F  </i>
   <i type="string" name="PRECFOCK"></i>
   <i type="logical" name="LSYMGRAD"> F  </i>
   <i type="logical" name="LHFONE"> F  </i>
   <i type="logical" name="LRHFCALC"> F  </i>
   <i type="logical" name="LTHOMAS"> F  </i>
   <i type="logical" name="LMODELHF"> F  </i>
   <i type="logical" name="LFOCKACE"> F  </i>
   <i name="ENCUT4O">     -1.00000000</i>
   <i type="int" name="EXXOEP">     0</i>
   <i type="int" name="FOURORBIT">     0</i>
   <i name="AEXX">      0.00000000</i>
   <i name="HFALPHA">      0.00000000</i>
   <i name="MCALPHA">      0.00000000</i>
   <i name="ALDAX">      1.00000000</i>
   <i name="AGGAX">      1.00000000</i>
   <i name="ALDAC">      1.00000000</i>
   <i name="AGGAC">      1.00000000</i>
   <i type="int" name="NKREDX">     1</i>
   <i type="int" name="NKREDY">     1</i>
   <i type="int" name="NKREDZ">     1</i>
   <i type="logical" name="SHIFTRED"> F  </i>
   <i type="logical" name="ODDONLY"> F  </i>
   <i type="logical" name="EVENONLY"> F  </i>
   <i type="int" name="LMAXFOCK">     0</i>
   <i type="int" name="NMAXFOCKAE">     0</i>
   <i type="logical" name="LFOCKAEDFT"> F  </i>
   <i name="HFSCREEN">      0.00000000</i>
   <i name="HFSCREENC">      0.00000000</i>
   <i type="int" name="NBANDSGWLOW">     0</i>
  </separator>
  <separator name="vdW DFT" >
   <i type="logical" name="LUSE_VDW"> F  </i>
   <i name="Zab_VDW">     -0.84910000</i>
   <i name="PARAM1">      0.12340000</i>
   <i name="PARAM2">      1.00000000</i>
   <i name="PARAM3">      0.00000000</i>
  </separator>
  <separator name="model GW" >
   <i type="int" name="MODEL_GW">     0</i>
   <i name="MODEL_EPS0">      7.56473648</i>
   <i name="MODEL_ALPHA">      1.00000000</i>
  </separator>
  <separator name="linear response parameters" >
   <i type="logical" name="LEPSILON"> F  </i>
   <i type="logical" name="LRPA"> F  </i>
   <i type="logical" name="LNABLA"> F  </i>
   <i type="logical" name="LVEL"> F  </i>
   <i type="int" name="KINTER">     0</i>
   <i name="CSHIFT">      0.10000000</i>
   <i name="OMEGAMAX">     -1.00000000</i>
   <i name="DEG_THRESHOLD">      0.00200000</i>
   <i name="RTIME">     -0.10000000</i>
   <i name="WPLASMAI">      0.00000000</i>
   <v name="DFIELD">      0.00000000      0.00000000      0.00000000</v>
   <v name="WPLASMA">      0.00000000      0.00000000      0.00000000      0.00000000      0.00000000      0.00000000      0.00000000      0.00000000      0.00000000</v>
  </separator>
  <separator name="orbital magnetization" >
   <i type="logical" name="NUCIND"> F  </i>
   <v name="MAGPOS">      0.00000000      0.00000000      0.00000000</v>
   <i type="logical" name="LNICSALL"> T  </i>
   <i type="logical" name="ORBITALMAG"> F  </i>
   <i type="logical" name="LMAGBLOCH"> F  </i>
   <i type="logical" name="LCHIMAG"> F  </i>
   <i type="logical" name="LGAUGE"> T  </i>
   <i type="int" name="MAGATOM">     0</i>
   <v name="MAGDIPOL">      0.00000000      0.00000000      0.00000000</v>
   <v name="AVECCONST">      0.00000000      0.00000000      0.00000000</v>
  </separator>
  <separator name="response functions" >
   <i type="logical" name="LFINITE_TEMPERATURE"> F  </i>
   <i type="logical" name="LADDER"> F  </i>
   <i type="logical" name="LRPAFORCE"> F  </i>
   <i type="logical" name="LFXC"> F  </i>
   <i type="logical" name="LHARTREE"> T  </i>
   <i type="int" name="IBSE">     0</i>
   <v type="int" name="KPOINT">    -1     0     0     0</v>
   <i type="logical" name="LTCTC"> F  </i>
   <i type="logical" name="LTCTE"> F  </i>
   <i type="logical" name="LTETE"> F  </i>
   <i type="logical" name="LTRIPLET"> F  </i>
   <i type="logical" name="LFXCEPS"> F  </i>
   <i type="logical" name="LFXHEG"> F  </i>
   <i type="int" name="NATURALO">     2</i>
   <i type="logical" name="LHOLEGF"> F  </i>
   <i type="logical" name="L2ORDER"> F  </i>
   <i type="logical" name="LDMP1"> F  </i>
   <i type="logical" name="LMP2LT"> F  </i>
   <i type="logical" name="LSMP2LT"> F  </i>
   <i type="logical" name="LGWLF"> F  </i>
   <i name="ENCUTGW">     -2.00000000</i>
   <i name="ENCUTGWSOFT">     -2.00000000</i>
   <i name="ENCUTLF">     -1.00000000</i>
   <i type="logical" name="LESF_SPLINES"> F  </i>
   <i type="int" name="LMAXMP2">    -1</i>
   <i name="SCISSOR">      0.00000000</i>
   <i type="int" name="NOMEGA">     0</i>
   <i type="int" name="NOMEGAR">     0</i>
   <i type="int" name="NBANDSGW">    -1</i>
   <i type="int" name="NBANDSO">    -1</i>
   <i type="int" name="NBANDSV">    -1</i>
   <i type="int" name="NELM">     1</i>
   <i type="int" name="NELMHF">     1</i>
   <i type="int" name="DIM">     3</i>
   <i type="int" name="IESPILON">     4</i>
   <i type="int" name="ANTIRES">     0</i>
   <i name="OMEGAMAX">    -30.00000000</i>
   <i name="OMEGAMIN">    -30.00000000</i>
   <i name="OMEGATL">   -200.00000000</i>
   <i type="int" name="OMEGAGRID">     0</i>
   <i name="CSHIFT">     -0.10000000</i>
   <i type="logical" name="LSELFENERGY"> F  </i>
   <i type="logical" name="LSPECTRAL"> F  </i>
   <i type="logical" name="LSPECTRALGW"> F  </i>
   <i type="logical" name="LSINGLES"> F  </i>
   <i type="logical" name="LFERMIGW"> F  </i>
   <i type="logical" name="ODDONLYGW"> F  </i>
   <i type="logical" name="EVENONLYGW"> F  </i>
   <i type="int" name="NKREDLFX">     1</i>
   <i type="int" name="NKREDLFY">     1</i>
   <i type="int" name="NKREDLFZ">     1</i>
   <i type="int" name="MAXMEM">  2800</i>
   <i type="int" name="TELESCOPE">     0</i>
   <i type="int" name="NTAUPAR">    -1</i>
   <i type="int" name="NOMEGAPAR">    -1</i>
   <i name="DAMP_NEWTON">      0.80000001</i>
   <i name="LAMBDA">      1.00000000</i>
  </separator>
  <separator name="External order field" >
   <i name="OFIELD_KAPPA">      0.00000000</i>
   <v name="OFIELD_K">      0.00000000      0.00000000      0.00000000</v>
   <i name="OFIELD_Q6_NEAR">      0.00000000</i>
   <i name="OFIELD_Q6_FAR">      0.00000000</i>
   <i name="OFIELD_A">      0.00000000</i>
  </separator>
 </parameters>
 <atominfo>
  <atoms>       4 </atoms>
  <types>       1 </types>
  <array name="atoms" >
   <dimension dim="1">ion</dimension>
   <field type="string">element</field>
   <field type="int">atomtype</field>
   <set>
    <rc><c>Cu</c><c>   1</c></rc>
    <rc><c>Cu</c><c>   1</c></rc>
    <rc><c>Cu</c><c>   1</c></rc>
    <rc><c>Cu</c><c>   1</c></rc>
   </set>
  </array>
  <array name="atomtypes" >
   <dimension dim="1">type</dimension>
   <field type="int">atomspertype</field>
   <field type="string">element</field>
   <field>mass</field>
   <field>valence</field>
   <field type="string">pseudopotential</field>
   <set>
    <rc><c>   4</c><c>Cu</c><c>     63.54600000</c><c>     11.00000000</c><c>  PAW_PBE Cu 22Jun2005                  </c></rc>
   </set>
  </array>
 </atominfo>
 <structure name="initialpos" >
  <crystal>
   <varray name="basis" >
    <v>       3.69460076       0.00000000       0.00000000 </v>
    <v>       0.00000000       3.69460076       0.00000000 </v>
    <v>       0.00000000       0.00000000       3.69460076 </v>
   </varray>
   <i name="volume">     50.43157652 </i>
   <varray name="rec_basis" >
    <v>       0.27066524       0.00000000       0.00000000 </v>
    <v>       0.00000000       0.27066524       0.00000000 </v>
    <v>       0.00000000       0.00000000       0.27066524 </v>
   </varray>
  </crystal>
  <varray name="positions" >
   <v>       0.00000000       0.00000000       0.00000000 </v>
   <v>       0.50000000       0.50000000       0.00000000 </v>
   <v>       0.50000000       0.00000000       0.50000000 </v>
   <v>       0.00000000       0.50000000       0.50000000 </v>
  </varray>
 </structure>
 <calculation>
  <scstep>
   <time name="dav">    0.48    0.50</time>
   <time name="total">    0.54    0.56</time>
   <energy>
    <i name="alphaZ">    232.02226462 </i>
    <i name="ewald">  -4324.44327005 </i>
    <i name="hartreedc">  -1408.56699625 </i>
    <i name="XCdc">    178.19048675 </i>
    <i name="pawpsdc">   5180.98659316 </i>
    <i name="pawaedc">  -5611.03884757 </i>
    <i name="eentropy">      0.00200721 </i>
    <i name="bandstr">    174.16461525 </i>
    <i name="atom">   5563.77610493 </i>
    <i name="e_fr_energy">    -14.90704195 </i>
    <i name="e_wo_entrp">    -14.90904916 </i>
    <i name="e_0_energy">    -14.90771102 </i>
   </energy>
  </scstep>
  <scstep>
   <time name="dav">    0.54    0.54</time>
   <time name="total">    0.59    0.59</time>
   <energy>
    <i name="e_fr_energy">    -14.90531556 </i>
    <i name="e_wo_entrp">    -14.90731994 </i>
    <i name="e_0_energy">    -14.90598369 </i>
   </energy>
  </scstep>
  <scstep>
   <time name="dav">    0.39    0.39</time>
   <time name="total">    0.43    0.43</time>
   <energy>
    <i name="e_fr_energy">    -14.90531376 </i>
    <i name="e_wo_entrp">    -14.90731923 </i>
    <i name="e_0_energy">    -14.90598225 </i>
   </energy>
  </scstep>
  <scstep>
   <time name="dav">    0.28    0.28</time>
   <time name="total">    0.30    0.30</time>
   <energy>
    <i name="alphaZ">    232.02226462 </i>
    <i name="ewald">  -4324.44327005 </i>
    <i name="hartreedc">  -1408.56254967 </i>
    <i name="XCdc">    178.19023976 </i>
    <i name="pawpsdc">   5180.97540303 </i>
    <i name="pawaedc">  -5611.03003266 </i>
    <i name="eentropy">      0.00200574 </i>
    <i name="bandstr">    174.16452067 </i>
    <i name="atom">   5563.77610493 </i>
    <i name="e_fr_energy">    -14.90531364 </i>
    <i name="e_wo_entrp">    -14.90731938 </i>
    <i name="e_0_energy">    -14.90598222 </i>
   </energy>
  </scstep>
  <structure>
   <crystal>
    <varray name="basis" >
     <v>       3.69460076       0.00000000       0.00000000 </v>
     <v>       0.00000000       3.69460076       0.00000000 </v>
     <v>       0.00000000       0.00000000       3.69460076 </v>
    </varray>
    <i name="volume">     50.43157652 </i>
    <varray name="rec_basis" >
     <v>       0.27066524       0.00000000       0.00000000 </v>
     <v>       0.00000000       0.27066524       0.00000000 </v>
     <v>       0.00000000       0.00000000       0.27066524 </v>
    </varray>
   </crystal>
   <varray name="positions" >
    <v>       0.00000000       0.00000000       0.00000000 </v>
    <v>       0.50000000       0.50000000       0.00000000 </v>
    <v>       0.50000000       0.00000000       0.50000000 </v>
    <v>       0.00000000       0.50000000       0.50000000 </v>
   </varray>
  </structure>
  <varray name="forces" >
   <v>      -0.00000000       0.00000000      -0.00000000 </v>
   <v>      -0.00000000      -0.00000000       0.00000000 </v>
   <v>       0.00000000       0.00000000      -0.00000000 </v>
   <v>       0.00000000       0.00000000      -0.00000000 </v>
  </varray>
  <varray name="stress" >
   <v>     -63.21247600      -0.00000000       0.00000000 </v>
   <v>       0.00000000     -63.21247600      -0.00000000 </v>
   <v>      -0.00000000      -0.00000000     -63.21247600 </v>
  </varray>
  <energy>
   <i name="e_fr_energy">    -14.90531364 </i>
   <i name="e_wo_entrp">    -14.90731938 </i>
   <i name="e_0_energy">    -14.90598222 </i>
  </energy>
  <time name="totalsc">    2.29    2.31</time>
  <eigenvalues>
   <array>
    <dimension dim="1">band</dimension>
    <dimension dim="2">kpoint</dimension>
    <dimension dim="3">spin</dimension>
    <field>eigene</field>
    <field>occ</field>
    <set>
     <set comment="spin 1">
      <set comment="kpoint 1">
       <r>   -2.0644    1.0000 </r>
       <r>    2.2962    1.0000 </r>
       <r>    2.2962    1.0000 </r>
       <r>    2.2962    1.0000 </r>
       <r>    2.7123    1.0000 </r>
       <r>    2.7123    1.0000 </r>
       <r>    2.7123    1.0000 </r>
       <r>    3.9708    1.0000 </r>
       <r>    3.9708    1.0000 </r>
       <r>    3.9708    1.0000 </r>
       <r>    4.7174    1.0000 </r>
       <r>    4.7174    1.0000 </r>
       <r>    5.2145    1.0000 </r>
       <r>    5.2145    1.0000 </r>
       <r>    5.2145    1.0000 </r>
       <r>    5.3558    1.0000 </r>
       <r>    5.3558    1.0000 </r>
       <r>    5.3558    1.0000 </r>
       <r>    5.3558    1.0000 </r>
       <r>    5.3558    1.0000 </r>
       <r>    5.3558    1.0000 </r>
       <r>    8.3478   -0.0000 </r>
       <r>    8.3478   -0.0000 </r>
       <r>    8.3478   -0.0000 </r>
       <r>   13.4709    0.0000 </r>
       <r>   13.4709    0.0000 </r>
       <r>   13.4709    0.0000 </r>
       <r>   19.3838    0.0000 </r>
       <r>   19.3838    0.0000 </r>
       <r>   19.3838    0.0000 </r>
      </set>
      <set comment="kpoint 2">
       <r>   -1.9212    1.0000 </r>
       <r>    2.2905    1.0000 </r>
       <r>    2.3605    1.0000 </r>
       <r>    2.3605    1.0000 </r>
       <r>    2.7486    1.0000 </r>
       <r>    2.7507    1.0000 </r>
       <r>    2.7507    1.0000 </r>
       <r>    3.9310    1.0000 </r>
       <r>    4.0030    1.0000 </r>
       <r>    4.0030    1.0000 </r>
       <r>    4.6814    1.0000 </r>
       <r>    4.7321    1.0000 </r>
       <r>    5.1354    1.0000 </r>
       <r>    5.1354    1.0000 </r>
       <r>    5.1679    1.0000 </r>
       <r>    5.1679    1.0000 </r>
       <r>    5.1992    1.0000 </r>
       <r>    5.3009    1.0000 </r>
       <r>    5.3009    1.0000 </r>
       <r>    5.3560    1.0000 </r>
       <r>    5.3560    1.0000 </r>
       <r>    7.4972   -0.0000 </r>
       <r>    8.6983   -0.0000 </r>
       <r>    8.6983   -0.0000 </r>
       <r>   13.5276    0.0000 </r>
       <r>   13.5276    0.0000 </r>
       <r>   14.6120    0.0000 </r>
       <r>   18.4948    0.0000 </r>
       <r>   18.4948    0.0000 </r>
       <r>   18.7743    0.0000 </r>
      </set>
      <set comment="kpoint 3">
       <r>   -1.4971    1.0000 </r>
       <r>    2.2178    1.0000 </r>
       <r>    2.5369    1.0000 </r>
       <r>    2.5369    1.0000 </r>
       <r>    2.8531    1.0000 </r>
       <r>    2.8668    1.0000 </r>
       <r>    2.8668    1.0000 </r>
       <r>    3.8169    1.0000 </r>
       <r>    4.0982    1.0000 </r>
       <r>    4.0982    1.0000 </r>
       <r>    4.5811    1.0000 </r>
       <r>    4.6643    1.0000 </r>
       <r>    4.6643    1.0000 </r>
       <r>    4.7744    1.0000 </r>
       <r>    5.0364    1.0000 </r>
       <r>    5.0364    1.0000 </r>
       <r>    5.1488    1.0000 </r>
       <r>    5.1488    1.0000 </r>
       <r>    5.1554    1.0000 </r>
       <r>    5.3562    1.0000 </r>
       <r>    5.3562    1.0000 </r>
       <r>    6.0135    1.0000 </r>
       <r>    9.5576   -0.0000 </r>
       <r>    9.5576   -0.0000 </r>
       <r>   13.7067    0.0000 </r>
       <r>   13.7067    0.0000 </r>
       <r>   16.8517    0.0000 </r>
       <r>   16.8517    0.0000 </r>
       <r>   17.0119    0.0000 </r>
       <r>   17.5473    0.0000 </r>
      </set>
      <set comment="kpoint 4">
       <r>   -0.8107    1.0000 </r>
       <r>    1.8774    1.0000 </r>
       <r>    2.7695    1.0000 </r>
       <r>    2.7695    1.0000 </r>
       <r>    3.0150    1.0000 </r>
       <r>    3.0640    1.0000 </r>
       <r>    3.0640    1.0000 </r>
       <r>    3.6442    1.0000 </r>
       <r>    4.1620    1.0000 </r>
       <r>    4.1620    1.0000 </r>
       <r>    4.2519    1.0000 </r>
       <r>    4.2519    1.0000 </r>
       <r>    4.4419    1.0000 </r>
       <r>    4.8396    1.0000 </r>
       <r>    4.8499    1.0000 </r>
       <r>    4.8542    1.0000 </r>
       <r>    4.8542    1.0000 </r>
       <r>    4.9321    1.0000 </r>
       <r>    4.9321    1.0000 </r>
       <r>    5.0880    1.0000 </r>
       <r>    5.3564    1.0000 </r>
       <r>    5.3564    1.0000 </r>
       <r>   10.7021   -0.0000 </r>
       <r>   10.7021   -0.0000 </r>
       <r>   14.0347    0.0000 </r>
       <r>   14.0347    0.0000 </r>
       <r>   15.1476    0.0000 </r>
       <r>   15.1476    0.0000 </r>
       <r>   16.3270    0.0000 </r>
       <r>   16.3270    0.0000 </r>
      </set>
      <set comment="kpoint 5">
       <r>    0.0912    1.0000 </r>
       <r>    1.0857    1.0000 </r>
       <r>    2.9512    1.0000 </r>
       <r>    2.9512    1.0000 </r>
       <r>    3.2168    1.0000 </r>
       <r>    3.3460    1.0000 </r>
       <r>    3.3460    1.0000 </r>
       <r>    3.4353    1.0000 </r>
       <r>    3.7137    1.0000 </r>
       <r>    3.7137    1.0000 </r>
       <r>    4.3227    1.0000 </r>
       <r>    4.3591    1.0000 </r>
       <r>    4.4542    1.0000 </r>
       <r>    4.4542    1.0000 </r>
       <r>    4.6893    1.0000 </r>
       <r>    4.6893    1.0000 </r>
       <r>    4.7051    1.0000 </r>
       <r>    4.7051    1.0000 </r>
       <r>    4.9201    1.0000 </r>
       <r>    5.0064    1.0000 </r>
       <r>    5.3565    1.0000 </r>
       <r>    5.3565    1.0000 </r>
       <r>   12.0387   -0.0000 </r>
       <r>   12.0387   -0.0000 </r>
       <r>   13.5291    0.0000 </r>
       <r>   13.5291    0.0000 </r>
       <r>   14.5455    0.0000 </r>
       <r>   14.5455    0.0000 </r>
       <r>   15.3283    0.0000 </r>
       <r>   15.3283    0.0000 </r>
      </set>
      <set comment="kpoint 6">
       <r>   -1.7791    1.0000 </r>
       <r>    2.3576    1.0000 </r>
       <r>    2.3576    1.0000 </r>
       <r>    2.4220    1.0000 </r>
       <r>    2.7856    1.0000 </r>
       <r>    2.7856    1.0000 </r>
       <r>    2.7868    1.0000 </r>
       <r>    3.9097    1.0000 </r>
       <r>    4.0181    1.0000 </r>
       <r>    4.0293    1.0000 </r>
       <r>    4.6723    1.0000 </r>
       <r>    4.7258    1.0000 </r>
       <r>    4.9863    1.0000 </r>
       <r>    5.0330    1.0000 </r>
       <r>    5.0330    1.0000 </r>
       <r>    5.1248    1.0000 </r>
       <r>    5.1820    1.0000 </r>
       <r>    5.1820    1.0000 </r>
       <r>    5.3007    1.0000 </r>
       <r>    5.3007    1.0000 </r>
       <r>    5.3204    1.0000 </r>
       <r>    7.8381   -0.0000 </r>
       <r>    7.8381   -0.0000 </r>
       <r>    9.0133   -0.0000 </r>
       <r>   13.5857    0.0000 </r>
       <r>   14.6963    0.0000 </r>
       <r>   14.6963    0.0000 </r>
       <r>   16.8489    0.0000 </r>
       <r>   18.6830    0.0000 </r>
       <r>   18.6830    0.0000 </r>
      </set>
      <set comment="kpoint 7">
       <r>   -1.3582    1.0000 </r>
       <r>    2.2942    1.0000 </r>
       <r>    2.5423    1.0000 </r>
       <r>    2.5902    1.0000 </r>
       <r>    2.8864    1.0000 </r>
       <r>    2.8952    1.0000 </r>
       <r>    2.8978    1.0000 </r>
       <r>    3.8096    1.0000 </r>
       <r>    4.1037    1.0000 </r>
       <r>    4.1045    1.0000 </r>
       <r>    4.5600    1.0000 </r>
       <r>    4.5892    1.0000 </r>
       <r>    4.5904    1.0000 </r>
       <r>    4.7700    1.0000 </r>
       <r>    4.7988    1.0000 </r>
       <r>    5.0024    1.0000 </r>
       <r>    5.0463    1.0000 </r>
       <r>    5.1414    1.0000 </r>
       <r>    5.1481    1.0000 </r>
       <r>    5.3002    1.0000 </r>
       <r>    5.3016    1.0000 </r>
       <r>    6.4117    1.0185 </r>
       <r>    8.6196   -0.0000 </r>
       <r>    9.8188   -0.0000 </r>
       <r>   13.7644    0.0000 </r>
       <r>   14.9594    0.0000 </r>
       <r>   15.0826    0.0000 </r>
       <r>   17.0280    0.0000 </r>
       <r>   17.1161    0.0000 </r>
       <r>   17.7105    0.0000 </r>
      </set>
      <set comment="kpoint 8">
       <r>   -0.6777    1.0000 </r>
       <r>    1.9693    1.0000 </r>
       <r>    2.7896    1.0000 </r>
       <r>    2.8173    1.0000 </r>
       <r>    3.0425    1.0000 </r>
       <r>    3.0721    1.0000 </r>
       <r>    3.0879    1.0000 </r>
       <r>    3.6460    1.0000 </r>
       <r>    4.0706    1.0000 </r>
       <r>    4.1309    1.0000 </r>
       <r>    4.1983    1.0000 </r>
       <r>    4.2540    1.0000 </r>
       <r>    4.4330    1.0000 </r>
       <r>    4.4950    1.0000 </r>
       <r>    4.8323    1.0000 </r>
       <r>    4.8512    1.0000 </r>
       <r>    4.8650    1.0000 </r>
       <r>    4.9313    1.0000 </r>
       <r>    5.0276    1.0000 </r>
       <r>    5.2976    1.0000 </r>
       <r>    5.2993    1.0000 </r>
       <r>    5.4335    1.0000 </r>
       <r>    9.6094   -0.0000 </r>
       <r>   10.9251   -0.0000 </r>
       <r>   13.4207    0.0000 </r>
       <r>   14.1505    0.0000 </r>
       <r>   15.3239    0.0000 </r>
       <r>   15.4270    0.0000 </r>
       <r>   16.4671    0.0000 </r>
       <r>   18.2352    0.0000 </r>
      </set>
      <set comment="kpoint 9">
       <r>    0.2146    1.0000 </r>
       <r>    1.1947    1.0000 </r>
       <r>    2.9909    1.0000 </r>
       <r>    3.0029    1.0000 </r>
       <r>    3.2367    1.0000 </r>
       <r>    3.3122    1.0000 </r>
       <r>    3.3588    1.0000 </r>
       <r>    3.4464    1.0000 </r>
       <r>    3.6452    1.0000 </r>
       <r>    3.7096    1.0000 </r>
       <r>    4.1918    1.0000 </r>
       <r>    4.1949    1.0000 </r>
       <r>    4.4547    1.0000 </r>
       <r>    4.5583    1.0000 </r>
       <r>    4.6888    1.0000 </r>
       <r>    4.6971    1.0000 </r>
       <r>    4.7106    1.0000 </r>
       <r>    4.7858    1.0000 </r>
       <r>    4.9567    1.0000 </r>
       <r>    5.0943    1.0000 </r>
       <r>    5.2974    1.0000 </r>
       <r>    5.2982    1.0000 </r>
       <r>   10.7393   -0.0000 </r>
       <r>   12.0066   -0.0000 </r>
       <r>   12.2374    0.0000 </r>
       <r>   13.7130    0.0000 </r>
       <r>   14.6663    0.0000 </r>
       <r>   15.4336    0.0000 </r>
       <r>   16.1369    0.0000 </r>
       <r>   17.0849    0.0000 </r>
      </set>
      <set comment="kpoint 10">
       <r>   -0.9474    1.0000 </r>
       <r>    2.5067    1.0000 </r>
       <r>    2.5067    1.0000 </r>
       <r>    2.7357    1.0000 </r>
       <r>    2.9809    1.0000 </r>
       <r>    2.9871    1.0000 </r>
       <r>    2.9871    1.0000 </r>
       <r>    3.7577    1.0000 </r>
       <r>    4.1237    1.0000 </r>
       <r>    4.1525    1.0000 </r>
       <r>    4.3070    1.0000 </r>
       <r>    4.3070    1.0000 </r>
       <r>    4.3602    1.0000 </r>
       <r>    4.5627    1.0000 </r>
       <r>    4.8157    1.0000 </r>
       <r>    4.9039    1.0000 </r>
       <r>    5.0240    1.0000 </r>
       <r>    5.0240    1.0000 </r>
       <r>    5.1465    1.0000 </r>
       <r>    5.1465    1.0000 </r>
       <r>    5.2156    1.0000 </r>
       <r>    7.1352   -0.0104 </r>
       <r>    7.1352   -0.0104 </r>
       <r>   10.5262   -0.0000 </r>
       <r>   13.1479    0.0000 </r>
       <r>   14.0257    0.0000 </r>
       <r>   17.4318    0.0000 </r>
       <r>   17.4318    0.0000 </r>
       <r>   17.5405    0.0000 </r>
       <r>   17.5405    0.0000 </r>
      </set>
      <set comment="kpoint 11">
       <r>   -0.2862    1.0000 </r>
       <r>    2.2261    1.0000 </r>
       <r>    2.7996    1.0000 </r>
       <r>    2.9372    1.0000 </r>
       <r>    3.1087    1.0000 </r>
       <r>    3.1247    1.0000 </r>
       <r>    3.1566    1.0000 </r>
       <r>    3.6383    1.0000 </r>
       <r>    3.8625    1.0000 </r>
       <r>    4.0320    1.0000 </r>
       <r>    4.0403    1.0000 </r>
       <r>    4.1306    1.0000 </r>
       <r>    4.2766    1.0000 </r>
       <r>    4.5083    1.0000 </r>
       <r>    4.7640    1.0000 </r>
       <r>    4.8535    1.0000 </r>
       <r>    4.9213    1.0000 </r>
       <r>    4.9298    1.0000 </r>
       <r>    4.9449    1.0000 </r>
       <r>    5.1446    1.0000 </r>
       <r>    5.1679    1.0000 </r>
       <r>    6.0187    1.0000 </r>
       <r>    7.9863   -0.0000 </r>
       <r>   11.5237   -0.0000 </r>
       <r>   11.5510   -0.0000 </r>
       <r>   14.3840    0.0000 </r>
       <r>   15.8362    0.0000 </r>
       <r>   16.8783    0.0000 </r>
       <r>   17.9831    0.0000 </r>
       <r>   18.3494    0.0000 </r>
      </set>
      <set comment="kpoint 12">
       <r>    0.5737    1.0000 </r>
       <r>    1.5053    1.0000 </r>
       <r>    3.0667    1.0000 </r>
       <r>    3.1476    1.0000 </r>
       <r>    3.2187    1.0000 </r>
       <r>    3.2941    1.0000 </r>
       <r>    3.3939    1.0000 </r>
       <r>    3.4738    1.0000 </r>
       <r>    3.4924    1.0000 </r>
       <r>    3.6927    1.0000 </r>
       <r>    3.9693    1.0000 </r>
       <r>    4.0570    1.0000 </r>
       <r>    4.4634    1.0000 </r>
       <r>    4.5655    1.0000 </r>
       <r>    4.6592    1.0000 </r>
       <r>    4.6904    1.0000 </r>
       <r>    4.6962    1.0000 </r>
       <r>    4.7392    1.0000 </r>
       <r>    5.1335    1.0000 </r>
       <r>    5.1443    1.0000 </r>
       <r>    5.1495    1.0000 </r>
       <r>    5.4265    1.0000 </r>
       <r>    8.9712   -0.0000 </r>
       <r>   10.1347   -0.0000 </r>
       <r>   12.8063    0.0000 </r>
       <r>   14.2450    0.0000 </r>
       <r>   14.9654    0.0000 </r>
       <r>   15.7918    0.0000 </r>
       <r>   18.7561    0.0000 </r>
       <r>   19.4072    0.0000 </r>
      </set>
      <set comment="kpoint 13">
       <r>    0.3371    1.0000 </r>
       <r>    2.5847    1.0000 </r>
       <r>    2.5847    1.0000 </r>
       <r>    3.0427    1.0000 </r>
       <r>    3.2147    1.0000 </r>
       <r>    3.2597    1.0000 </r>
       <r>    3.2597    1.0000 </r>
       <r>    3.5931    1.0000 </r>
       <r>    3.7250    1.0000 </r>
       <r>    3.7250    1.0000 </r>
       <r>    3.8639    1.0000 </r>
       <r>    4.0740    1.0000 </r>
       <r>    4.3535    1.0000 </r>
       <r>    4.4519    1.0000 </r>
       <r>    4.6563    1.0000 </r>
       <r>    4.7645    1.0000 </r>
       <r>    4.7645    1.0000 </r>
       <r>    4.9311    1.0000 </r>
       <r>    4.9311    1.0000 </r>
       <r>    5.0485    1.0000 </r>
       <r>    5.1472    1.0000 </r>
       <r>    6.6936    0.7364 </r>
       <r>    6.6936    0.7364 </r>
       <r>    9.8864   -0.0000 </r>
       <r>   12.4950    0.0000 </r>
       <r>   14.8197    0.0000 </r>
       <r>   16.6449    0.0000 </r>
       <r>   16.6449    0.0000 </r>
       <r>   17.5576    0.0000 </r>
       <r>   17.5576    0.0000 </r>
      </set>
      <set comment="kpoint 14">
       <r>    1.1308    1.0000 </r>
       <r>    1.9611    1.0000 </r>
       <r>    2.9196    1.0000 </r>
       <r>    3.0696    1.0000 </r>
       <r>    3.3497    1.0000 </r>
       <r>    3.3821    1.0000 </r>
       <r>    3.4415    1.0000 </r>
       <r>    3.4966    1.0000 </r>
       <r>    3.5016    1.0000 </r>
       <r>    3.6533    1.0000 </r>
       <r>    3.8021    1.0000 </r>
       <r>    3.9623    1.0000 </r>
       <r>    4.4692    1.0000 </r>
       <r>    4.5007    1.0000 </r>
       <r>    4.5725    1.0000 </r>
       <r>    4.6054    1.0000 </r>
       <r>    4.6155    1.0000 </r>
       <r>    4.7034    1.0000 </r>
       <r>    4.9423    1.0000 </r>
       <r>    4.9758    1.0000 </r>
       <r>    5.4362    1.0000 </r>
       <r>    5.8869    1.0000 </r>
       <r>    7.5122   -0.0000 </r>
       <r>    8.5548   -0.0000 </r>
       <r>   13.6863    0.0000 </r>
       <r>   15.0795    0.0000 </r>
       <r>   15.4776    0.0000 </r>
       <r>   16.3865    0.0000 </r>
       <r>   17.7061    0.0000 </r>
       <r>   18.4896    0.0000 </r>
      </set>
      <set comment="kpoint 15">
       <r>    1.8031    1.0000 </r>
       <r>    2.4495    1.0000 </r>
       <r>    2.4495    1.0000 </r>
       <r>    2.8322    1.0000 </r>
       <r>    3.4854    1.0000 </r>
       <r>    3.4854    1.0000 </r>
       <r>    3.5086    1.0000 </r>
       <r>    3.5479    1.0000 </r>
       <r>    3.5825    1.0000 </r>
       <r>    3.6849    1.0000 </r>
       <r>    3.6849    1.0000 </r>
       <r>    3.8609    1.0000 </r>
       <r>    4.4079    1.0000 </r>
       <r>    4.4752    1.0000 </r>
       <r>    4.4825    1.0000 </r>
       <r>    4.4825    1.0000 </r>
       <r>    4.5912    1.0000 </r>
       <r>    4.7445    1.0000 </r>
       <r>    4.7445    1.0000 </r>
       <r>    4.8329    1.0000 </r>
       <r>    5.8530    1.0000 </r>
       <r>    6.4900    1.0345 </r>
       <r>    6.4900    1.0345 </r>
       <r>    7.3444   -0.0001 </r>
       <r>   14.8205    0.0000 </r>
       <r>   16.1692    0.0000 </r>
       <r>   16.1692    0.0000 </r>
       <r>   16.2252    0.0000 </r>
       <r>   17.2274    0.0000 </r>
       <r>   17.2274    0.0000 </r>
      </set>
      <set comment="kpoint 16">
       <r>   -1.6381    1.0000 </r>
       <r>    2.4210    1.0000 </r>
       <r>    2.4210    1.0000 </r>
       <r>    2.4210    1.0000 </r>
       <r>    2.8206    1.0000 </r>
       <r>    2.8206    1.0000 </r>
       <r>    2.8206    1.0000 </r>
       <r>    3.8914    1.0000 </r>
       <r>    4.0407    1.0000 </r>
       <r>    4.0407    1.0000 </r>
       <r>    4.6943    1.0000 </r>
       <r>    4.6943    1.0000 </r>
       <r>    4.9018    1.0000 </r>
       <r>    4.9018    1.0000 </r>
       <r>    4.9018    1.0000 </r>
       <r>    5.0737    1.0000 </r>
       <r>    5.0737    1.0000 </r>
       <r>    5.0737    1.0000 </r>
       <r>    5.3076    1.0000 </r>
       <r>    5.3076    1.0000 </r>
       <r>    5.3076    1.0000 </r>
       <r>    8.1297   -0.0000 </r>
       <r>    8.1297   -0.0000 </r>
       <r>    8.1297   -0.0000 </r>
       <r>   14.7826    0.0000 </r>
       <r>   14.7826    0.0000 </r>
       <r>   14.7826    0.0000 </r>
       <r>   17.0247    0.0000 </r>
       <r>   17.0247    0.0000 </r>
       <r>   17.0247    0.0000 </r>
      </set>
      <set comment="kpoint 17">
       <r>   -1.2208    1.0000 </r>
       <r>    2.3644    1.0000 </r>
       <r>    2.5952    1.0000 </r>
       <r>    2.5952    1.0000 </r>
       <r>    2.9191    1.0000 </r>
       <r>    2.9259    1.0000 </r>
       <r>    2.9259    1.0000 </r>
       <r>    3.8038    1.0000 </r>
       <r>    4.1046    1.0000 </r>
       <r>    4.1088    1.0000 </r>
       <r>    4.4967    1.0000 </r>
       <r>    4.4967    1.0000 </r>
       <r>    4.6142    1.0000 </r>
       <r>    4.6497    1.0000 </r>
       <r>    4.7571    1.0000 </r>
       <r>    4.9402    1.0000 </r>
       <r>    4.9668    1.0000 </r>
       <r>    4.9668    1.0000 </r>
       <r>    5.2623    1.0000 </r>
       <r>    5.2869    1.0000 </r>
       <r>    5.2869    1.0000 </r>
       <r>    6.6871    0.7595 </r>
       <r>    8.8440   -0.0000 </r>
       <r>    8.8440   -0.0000 </r>
       <r>   15.0354    0.0000 </r>
       <r>   15.0354    0.0000 </r>
       <r>   15.2636    0.0000 </r>
       <r>   15.2636    0.0000 </r>
       <r>   17.2175    0.0000 </r>
       <r>   17.5408    0.0000 </r>
      </set>
      <set comment="kpoint 18">
       <r>   -0.5472    1.0000 </r>
       <r>    2.0523    1.0000 </r>
       <r>    2.8323    1.0000 </r>
       <r>    2.8323    1.0000 </r>
       <r>    3.0714    1.0000 </r>
       <r>    3.0945    1.0000 </r>
       <r>    3.0945    1.0000 </r>
       <r>    3.6515    1.0000 </r>
       <r>    4.0548    1.0000 </r>
       <r>    4.0548    1.0000 </r>
       <r>    4.1789    1.0000 </r>
       <r>    4.2222    1.0000 </r>
       <r>    4.2972    1.0000 </r>
       <r>    4.5588    1.0000 </r>
       <r>    4.7587    1.0000 </r>
       <r>    4.8171    1.0000 </r>
       <r>    4.8171    1.0000 </r>
       <r>    4.8512    1.0000 </r>
       <r>    5.1830    1.0000 </r>
       <r>    5.2684    1.0000 </r>
       <r>    5.2684    1.0000 </r>
       <r>    5.6155    1.0000 </r>
       <r>    9.7850   -0.0000 </r>
       <r>    9.7850   -0.0000 </r>
       <r>   13.6302    0.0000 </r>
       <r>   13.6302    0.0000 </r>
       <r>   15.5369    0.0000 </r>
       <r>   15.5369    0.0000 </r>
       <r>   18.3409    0.0000 </r>
       <r>   18.3861    0.0000 </r>
      </set>
      <set comment="kpoint 19">
       <r>    0.3336    1.0000 </r>
       <r>    1.2965    1.0000 </r>
       <r>    3.0417    1.0000 </r>
       <r>    3.0417    1.0000 </r>
       <r>    3.2599    1.0000 </r>
       <r>    3.2889    1.0000 </r>
       <r>    3.2889    1.0000 </r>
       <r>    3.4615    1.0000 </r>
       <r>    3.6863    1.0000 </r>
       <r>    3.6863    1.0000 </r>
       <r>    4.1139    1.0000 </r>
       <r>    4.1449    1.0000 </r>
       <r>    4.3766    1.0000 </r>
       <r>    4.5617    1.0000 </r>
       <r>    4.6841    1.0000 </r>
       <r>    4.6841    1.0000 </r>
       <r>    4.6923    1.0000 </r>
       <r>    4.9633    1.0000 </r>
       <r>    5.0249    1.0000 </r>
       <r>    5.0789    1.0000 </r>
       <r>    5.2604    1.0000 </r>
       <r>    5.2604    1.0000 </r>
       <r>   10.8504   -0.0000 </r>
       <r>   10.8504   -0.0000 </r>
       <r>   12.2422    0.0000 </r>
       <r>   12.2422    0.0000 </r>
       <r>   16.2533    0.0000 </r>
       <r>   16.2533    0.0000 </r>
       <r>   17.2189    0.0000 </r>
       <r>   17.2189    0.0000 </r>
      </set>
      <set comment="kpoint 20">
       <r>   -0.8152    1.0000 </r>
       <r>    2.5560    1.0000 </r>
       <r>    2.5560    1.0000 </r>
       <r>    2.7358    1.0000 </r>
       <r>    3.0123    1.0000 </r>
       <r>    3.0175    1.0000 </r>
       <r>    3.0175    1.0000 </r>
       <r>    3.7614    1.0000 </r>
       <r>    4.1212    1.0000 </r>
       <r>    4.1368    1.0000 </r>
       <r>    4.2613    1.0000 </r>
       <r>    4.2613    1.0000 </r>
       <r>    4.2903    1.0000 </r>
       <r>    4.6168    1.0000 </r>
       <r>    4.7925    1.0000 </r>
       <r>    4.8271    1.0000 </r>
       <r>    4.8484    1.0000 </r>
       <r>    4.8484    1.0000 </r>
       <r>    5.2443    1.0000 </r>
       <r>    5.2443    1.0000 </r>
       <r>    5.2451    1.0000 </r>
       <r>    7.3135   -0.0003 </r>
       <r>    7.3135   -0.0003 </r>
       <r>    9.4349   -0.0000 </r>
       <r>   13.3723    0.0000 </r>
       <r>   15.3495    0.0000 </r>
       <r>   15.7374    0.0000 </r>
       <r>   15.7374    0.0000 </r>
       <r>   17.5453    0.0000 </r>
       <r>   17.5453    0.0000 </r>
      </set>
      <set comment="kpoint 21">
       <r>   -0.1641    1.0000 </r>
       <r>    2.2777    1.0000 </r>
       <r>    2.8128    1.0000 </r>
       <r>    2.9220    1.0000 </r>
       <r>    3.1399    1.0000 </r>
       <r>    3.1609    1.0000 </r>
       <r>    3.1737    1.0000 </r>
       <r>    3.6561    1.0000 </r>
       <r>    3.8831    1.0000 </r>
       <r>    3.9983    1.0000 </r>
       <r>    4.0162    1.0000 </r>
       <r>    4.1250    1.0000 </r>
       <r>    4.2123    1.0000 </r>
       <r>    4.6071    1.0000 </r>
       <r>    4.6711    1.0000 </r>
       <r>    4.6984    1.0000 </r>
       <r>    4.7409    1.0000 </r>
       <r>    4.9233    1.0000 </r>
       <r>    5.1569    1.0000 </r>
       <r>    5.1955    1.0000 </r>
       <r>    5.1958    1.0000 </r>
       <r>    6.1129    1.0000 </r>
       <r>    8.1145   -0.0000 </r>
       <r>   10.2146   -0.0000 </r>
       <r>   11.8139   -0.0000 </r>
       <r>   14.1181    0.0000 </r>
       <r>   15.8594    0.0000 </r>
       <r>   16.5165    0.0000 </r>
       <r>   18.0925    0.0000 </r>
       <r>   18.8358    0.0000 </r>
      </set>
      <set comment="kpoint 22">
       <r>    0.6784    1.0000 </r>
       <r>    1.5823    1.0000 </r>
       <r>    3.0558    1.0000 </r>
       <r>    3.1168    1.0000 </r>
       <r>    3.2091    1.0000 </r>
       <r>    3.2829    1.0000 </r>
       <r>    3.3316    1.0000 </r>
       <r>    3.5044    1.0000 </r>
       <r>    3.6554    1.0000 </r>
       <r>    3.7458    1.0000 </r>
       <r>    3.9579    1.0000 </r>
       <r>    4.0479    1.0000 </r>
       <r>    4.3272    1.0000 </r>
       <r>    4.4851    1.0000 </r>
       <r>    4.6030    1.0000 </r>
       <r>    4.6249    1.0000 </r>
       <r>    4.7481    1.0000 </r>
       <r>    4.9889    1.0000 </r>
       <r>    5.1054    1.0000 </r>
       <r>    5.1661    1.0000 </r>
       <r>    5.1663    1.0000 </r>
       <r>    5.4183    1.0000 </r>
       <r>    9.0598   -0.0000 </r>
       <r>   10.1173   -0.0000 </r>
       <r>   11.5778   -0.0000 </r>
       <r>   12.7128    0.0000 </r>
       <r>   16.6137    0.0000 </r>
       <r>   17.5457    0.0000 </r>
       <r>   17.6175    0.0000 </r>
       <r>   18.7990    0.0000 </r>
      </set>
      <set comment="kpoint 23">
       <r>    0.4424    1.0000 </r>
       <r>    2.5712    1.0000 </r>
       <r>    2.5712    1.0000 </r>
       <r>    2.9676    1.0000 </r>
       <r>    3.2665    1.0000 </r>
       <r>    3.3124    1.0000 </r>
       <r>    3.3124    1.0000 </r>
       <r>    3.6327    1.0000 </r>
       <r>    3.7666    1.0000 </r>
       <r>    3.7666    1.0000 </r>
       <r>    3.8964    1.0000 </r>
       <r>    4.0746    1.0000 </r>
       <r>    4.2287    1.0000 </r>
       <r>    4.5678    1.0000 </r>
       <r>    4.5922    1.0000 </r>
       <r>    4.5922    1.0000 </r>
       <r>    4.6041    1.0000 </r>
       <r>    5.0816    1.0000 </r>
       <r>    5.0816    1.0000 </r>
       <r>    5.1106    1.0000 </r>
       <r>    5.1183    1.0000 </r>
       <r>    6.7558    0.4843 </r>
       <r>    6.7558    0.4843 </r>
       <r>    9.8154   -0.0000 </r>
       <r>   11.3623   -0.0000 </r>
       <r>   14.8799    0.0000 </r>
       <r>   14.8799    0.0000 </r>
       <r>   16.4157    0.0000 </r>
       <r>   18.5866    0.0000 </r>
       <r>   19.5500    0.0000 </r>
      </set>
      <set comment="kpoint 24">
       <r>    1.2052    1.0000 </r>
       <r>    1.9867    1.0000 </r>
       <r>    2.8194    1.0000 </r>
       <r>    2.9459    1.0000 </r>
       <r>    3.3962    1.0000 </r>
       <r>    3.4509    1.0000 </r>
       <r>    3.4556    1.0000 </r>
       <r>    3.5646    1.0000 </r>
       <r>    3.6577    1.0000 </r>
       <r>    3.7726    1.0000 </r>
       <r>    3.8225    1.0000 </r>
       <r>    3.9691    1.0000 </r>
       <r>    4.2903    1.0000 </r>
       <r>    4.4221    1.0000 </r>
       <r>    4.4822    1.0000 </r>
       <r>    4.5036    1.0000 </r>
       <r>    4.7058    1.0000 </r>
       <r>    4.9045    1.0000 </r>
       <r>    5.0340    1.0000 </r>
       <r>    5.0457    1.0000 </r>
       <r>    5.4040    1.0000 </r>
       <r>    5.8790    1.0000 </r>
       <r>    7.5579   -0.0000 </r>
       <r>    8.5815   -0.0000 </r>
       <r>   12.2683    0.0000 </r>
       <r>   13.4619    0.0000 </r>
       <r>   15.8894    0.0000 </r>
       <r>   17.1277    0.0000 </r>
       <r>   17.2225    0.0000 </r>
       <r>   18.2802    0.0000 </r>
      </set>
      <set comment="kpoint 25">
       <r>    1.8233    1.0000 </r>
       <r>    2.3965    1.0000 </r>
       <r>    2.3965    1.0000 </r>
       <r>    2.7160    1.0000 </r>
       <r>    3.5856    1.0000 </r>
       <r>    3.6132    1.0000 </r>
       <r>    3.6132    1.0000 </r>
       <r>    3.6159    1.0000 </r>
       <r>    3.7235    1.0000 </r>
       <r>    3.7235    1.0000 </r>
       <r>    3.7428    1.0000 </r>
       <r>    3.8788    1.0000 </r>
       <r>    4.2770    1.0000 </r>
       <r>    4.3605    1.0000 </r>
       <r>    4.3605    1.0000 </r>
       <r>    4.3743    1.0000 </r>
       <r>    4.7348    1.0000 </r>
       <r>    4.8707    1.0000 </r>
       <r>    4.8707    1.0000 </r>
       <r>    4.9282    1.0000 </r>
       <r>    5.8224    1.0000 </r>
       <r>    6.4852    1.0339 </r>
       <r>    6.4852    1.0339 </r>
       <r>    7.3553   -0.0001 </r>
       <r>   13.2474    0.0000 </r>
       <r>   14.4560    0.0000 </r>
       <r>   14.4560    0.0000 </r>
       <r>   15.6792    0.0000 </r>
       <r>   18.0856    0.0000 </r>
       <r>   19.1983    0.0000 </r>
      </set>
      <set comment="kpoint 26">
       <r>   -0.4264    1.0000 </r>
       <r>    2.6773    1.0000 </r>
       <r>    2.6773    1.0000 </r>
       <r>    2.6773    1.0000 </r>
       <r>    3.1148    1.0000 </r>
       <r>    3.1148    1.0000 </r>
       <r>    3.1148    1.0000 </r>
       <r>    3.7549    1.0000 </r>
       <r>    4.1135    1.0000 </r>
       <r>    4.1135    1.0000 </r>
       <r>    4.1135    1.0000 </r>
       <r>    4.1203    1.0000 </r>
       <r>    4.1203    1.0000 </r>
       <r>    4.6660    1.0000 </r>
       <r>    4.6660    1.0000 </r>
       <r>    4.6660    1.0000 </r>
       <r>    4.7443    1.0000 </r>
       <r>    4.7443    1.0000 </r>
       <r>    5.2720    1.0000 </r>
       <r>    5.2720    1.0000 </r>
       <r>    5.2720    1.0000 </r>
       <r>    7.7881   -0.0000 </r>
       <r>    7.7881   -0.0000 </r>
       <r>    7.7881   -0.0000 </r>
       <r>   13.8684    0.0000 </r>
       <r>   13.8684    0.0000 </r>
       <r>   13.8684    0.0000 </r>
       <r>   17.8767    0.0000 </r>
       <r>   17.8767    0.0000 </r>
       <r>   17.8767    0.0000 </r>
      </set>
      <set comment="kpoint 27">
       <r>    0.1914    1.0000 </r>
       <r>    2.4010    1.0000 </r>
       <r>    2.8109    1.0000 </r>
       <r>    2.8109    1.0000 </r>
       <r>    3.2626    1.0000 </r>
       <r>    3.2626    1.0000 </r>
       <r>    3.2786    1.0000 </r>
       <r>    3.7050    1.0000 </r>
       <r>    3.9278    1.0000 </r>
       <r>    3.9278    1.0000 </r>
       <r>    3.9459    1.0000 </r>
       <r>    4.1047    1.0000 </r>
       <r>    4.1401    1.0000 </r>
       <r>    4.4889    1.0000 </r>
       <r>    4.5516    1.0000 </r>
       <r>    4.5516    1.0000 </r>
       <r>    4.7600    1.0000 </r>
       <r>    4.8985    1.0000 </r>
       <r>    5.2302    1.0000 </r>
       <r>    5.2302    1.0000 </r>
       <r>    5.2490    1.0000 </r>
       <r>    6.4272    1.0219 </r>
       <r>    8.4521   -0.0000 </r>
       <r>    8.4521   -0.0000 </r>
       <r>   12.2798    0.0000 </r>
       <r>   12.2798    0.0000 </r>
       <r>   14.6348    0.0000 </r>
       <r>   18.3533    0.0000 </r>
       <r>   18.4409    0.0000 </r>
       <r>   18.4409    0.0000 </r>
      </set>
      <set comment="kpoint 28">
       <r>    0.9744    1.0000 </r>
       <r>    1.7863    1.0000 </r>
       <r>    2.9059    1.0000 </r>
       <r>    2.9059    1.0000 </r>
       <r>    3.3540    1.0000 </r>
       <r>    3.3540    1.0000 </r>
       <r>    3.4562    1.0000 </r>
       <r>    3.6030    1.0000 </r>
       <r>    3.8428    1.0000 </r>
       <r>    3.8428    1.0000 </r>
       <r>    3.9243    1.0000 </r>
       <r>    4.0196    1.0000 </r>
       <r>    4.2100    1.0000 </r>
       <r>    4.3299    1.0000 </r>
       <r>    4.4713    1.0000 </r>
       <r>    4.4713    1.0000 </r>
       <r>    4.9851    1.0000 </r>
       <r>    5.0484    1.0000 </r>
       <r>    5.1711    1.0000 </r>
       <r>    5.1842    1.0000 </r>
       <r>    5.1842    1.0000 </r>
       <r>    5.5089    1.0000 </r>
       <r>    9.1481   -0.0000 </r>
       <r>    9.1481   -0.0000 </r>
       <r>   11.1187   -0.0000 </r>
       <r>   11.1187   -0.0000 </r>
       <r>   15.6484    0.0000 </r>
       <r>   16.8904    0.0000 </r>
       <r>   19.2397    0.0000 </r>
       <r>   19.2397    0.0000 </r>
      </set>
      <set comment="kpoint 29">
       <r>    0.7415    1.0000 </r>
       <r>    2.5295    1.0000 </r>
       <r>    2.5295    1.0000 </r>
       <r>    2.7667    1.0000 </r>
       <r>    3.4141    1.0000 </r>
       <r>    3.4611    1.0000 </r>
       <r>    3.4611    1.0000 </r>
       <r>    3.7626    1.0000 </r>
       <r>    3.8802    1.0000 </r>
       <r>    3.8802    1.0000 </r>
       <r>    3.9706    1.0000 </r>
       <r>    4.0705    1.0000 </r>
       <r>    4.1095    1.0000 </r>
       <r>    4.3859    1.0000 </r>
       <r>    4.3859    1.0000 </r>
       <r>    4.4001    1.0000 </r>
       <r>    4.8022    1.0000 </r>
       <r>    5.0432    1.0000 </r>
       <r>    5.2018    1.0000 </r>
       <r>    5.2157    1.0000 </r>
       <r>    5.2157    1.0000 </r>
       <r>    6.9500   -0.0240 </r>
       <r>    6.9500   -0.0240 </r>
       <r>    8.7828   -0.0000 </r>
       <r>   10.9543   -0.0000 </r>
       <r>   13.0161    0.0000 </r>
       <r>   13.0161    0.0000 </r>
       <r>   16.6697    0.0000 </r>
       <r>   19.0275    0.0000 </r>
       <r>   21.3355    0.0000 </r>
      </set>
      <set comment="kpoint 30">
       <r>    1.4042    1.0000 </r>
       <r>    2.0447    1.0000 </r>
       <r>    2.6278    1.0000 </r>
       <r>    2.7032    1.0000 </r>
       <r>    3.5304    1.0000 </r>
       <r>    3.5625    1.0000 </r>
       <r>    3.6711    1.0000 </r>
       <r>    3.7764    1.0000 </r>
       <r>    3.8893    1.0000 </r>
       <r>    3.9313    1.0000 </r>
       <r>    3.9808    1.0000 </r>
       <r>    3.9964    1.0000 </r>
       <r>    4.1416    1.0000 </r>
       <r>    4.2402    1.0000 </r>
       <r>    4.3161    1.0000 </r>
       <r>    4.3215    1.0000 </r>
       <r>    4.9331    1.0000 </r>
       <r>    5.1212    1.0000 </r>
       <r>    5.1517    1.0000 </r>
       <r>    5.1547    1.0000 </r>
       <r>    5.3105    1.0000 </r>
       <r>    5.8812    1.0000 </r>
       <r>    7.6507   -0.0000 </r>
       <r>    8.4475   -0.0000 </r>
       <r>   10.8264   -0.0000 </r>
       <r>   11.7060   -0.0000 </r>
       <r>   14.0000    0.0000 </r>
       <r>   15.2188    0.0000 </r>
       <r>   19.8566    0.0000 </r>
       <r>   20.9031    0.0000 </r>
      </set>
      <set comment="kpoint 31">
       <r>    1.8714    1.0000 </r>
       <r>    2.2874    1.0000 </r>
       <r>    2.2874    1.0000 </r>
       <r>    2.5001    1.0000 </r>
       <r>    3.6918    1.0000 </r>
       <r>    3.7751    1.0000 </r>
       <r>    3.7751    1.0000 </r>
       <r>    3.9192    1.0000 </r>
       <r>    3.9575    1.0000 </r>
       <r>    3.9889    1.0000 </r>
       <r>    3.9889    1.0000 </r>
       <r>    4.0802    1.0000 </r>
       <r>    4.1176    1.0000 </r>
       <r>    4.1926    1.0000 </r>
       <r>    4.1926    1.0000 </r>
       <r>    4.2075    1.0000 </r>
       <r>    4.9295    1.0000 </r>
       <r>    5.0510    1.0000 </r>
       <r>    5.0510    1.0000 </r>
       <r>    5.0771    1.0000 </r>
       <r>    5.7261    1.0000 </r>
       <r>    6.4646    1.0303 </r>
       <r>    6.4646    1.0303 </r>
       <r>    7.3341   -0.0002 </r>
       <r>   11.5324   -0.0000 </r>
       <r>   12.6218    0.0000 </r>
       <r>   12.6218    0.0000 </r>
       <r>   13.7954    0.0000 </r>
       <r>   20.7195    0.0000 </r>
       <r>   21.8139    0.0000 </r>
      </set>
      <set comment="kpoint 32">
       <r>    1.1799    1.0000 </r>
       <r>    2.4773    1.0000 </r>
       <r>    2.4773    1.0000 </r>
       <r>    2.4773    1.0000 </r>
       <r>    3.6232    1.0000 </r>
       <r>    3.6232    1.0000 </r>
       <r>    3.6232    1.0000 </r>
       <r>    3.9890    1.0000 </r>
       <r>    4.0464    1.0000 </r>
       <r>    4.0464    1.0000 </r>
       <r>    4.0580    1.0000 </r>
       <r>    4.0580    1.0000 </r>
       <r>    4.0580    1.0000 </r>
       <r>    4.2373    1.0000 </r>
       <r>    4.2373    1.0000 </r>
       <r>    4.2373    1.0000 </r>
       <r>    4.9863    1.0000 </r>
       <r>    4.9863    1.0000 </r>
       <r>    5.2460    1.0000 </r>
       <r>    5.2460    1.0000 </r>
       <r>    5.2460    1.0000 </r>
       <r>    7.2657   -0.0009 </r>
       <r>    7.2657   -0.0009 </r>
       <r>    7.2657   -0.0009 </r>
       <r>   11.5133   -0.0000 </r>
       <r>   11.5133   -0.0000 </r>
       <r>   11.5133   -0.0000 </r>
       <r>   14.9961    0.0000 </r>
       <r>   21.9211    0.0000 </r>
       <r>   21.9211    0.0000 </r>
      </set>
      <set comment="kpoint 33">
       <r>    1.6659    1.0000 </r>
       <r>    2.1105    1.0000 </r>
       <r>    2.4431    1.0000 </r>
       <r>    2.4431    1.0000 </r>
       <r>    3.7047    1.0000 </r>
       <r>    3.7047    1.0000 </r>
       <r>    3.8335    1.0000 </r>
       <r>    3.9776    1.0000 </r>
       <r>    4.0477    1.0000 </r>
       <r>    4.1141    1.0000 </r>
       <r>    4.1453    1.0000 </r>
       <r>    4.1593    1.0000 </r>
       <r>    4.1593    1.0000 </r>
       <r>    4.1717    1.0000 </r>
       <r>    4.2408    1.0000 </r>
       <r>    4.2408    1.0000 </r>
       <r>    5.1327    1.0000 </r>
       <r>    5.2089    1.0000 </r>
       <r>    5.2094    1.0000 </r>
       <r>    5.2094    1.0000 </r>
       <r>    5.2231    1.0000 </r>
       <r>    6.0083    1.0000 </r>
       <r>    7.5811   -0.0000 </r>
       <r>    7.5811   -0.0000 </r>
       <r>   10.5761   -0.0000 </r>
       <r>   10.5761   -0.0000 </r>
       <r>   12.4120    0.0000 </r>
       <r>   13.5761    0.0000 </r>
       <r>   22.7097    0.0000 </r>
       <r>   22.7097    0.0000 </r>
      </set>
      <set comment="kpoint 34">
       <r>    1.9323    1.0000 </r>
       <r>    2.1878    1.0000 </r>
       <r>    2.1878    1.0000 </r>
       <r>    2.2950    1.0000 </r>
       <r>    3.8148    1.0000 </r>
       <r>    3.8584    1.0000 </r>
       <r>    3.8584    1.0000 </r>
       <r>    3.9553    1.0000 </r>
       <r>    4.0057    1.0000 </r>
       <r>    4.0510    1.0000 </r>
       <r>    4.0510    1.0000 </r>
       <r>    4.0661    1.0000 </r>
       <r>    4.4728    1.0000 </r>
       <r>    4.4728    1.0000 </r>
       <r>    4.4865    1.0000 </r>
       <r>    4.5494    1.0000 </r>
       <r>    5.0924    1.0000 </r>
       <r>    5.1856    1.0000 </r>
       <r>    5.1856    1.0000 </r>
       <r>    5.1874    1.0000 </r>
       <r>    5.5539    1.0000 </r>
       <r>    6.4117    1.0185 </r>
       <r>    6.4117    1.0185 </r>
       <r>    7.0629   -0.0252 </r>
       <r>   10.4705   -0.0000 </r>
       <r>   11.1925   -0.0000 </r>
       <r>   11.1925   -0.0000 </r>
       <r>   12.2250    0.0000 </r>
       <r>   23.5444    0.0000 </r>
       <r>   24.5514    0.0000 </r>
      </set>
      <set comment="kpoint 35">
       <r>    2.0135    1.0000 </r>
       <r>    2.1313    1.0000 </r>
       <r>    2.1313    1.0000 </r>
       <r>    2.1313    1.0000 </r>
       <r>    3.9106    1.0000 </r>
       <r>    3.9106    1.0000 </r>
       <r>    3.9106    1.0000 </r>
       <r>    3.9575    1.0000 </r>
       <r>    3.9575    1.0000 </r>
       <r>    3.9786    1.0000 </r>
       <r>    3.9786    1.0000 </r>
       <r>    3.9786    1.0000 </r>
       <r>    4.8968    1.0000 </r>
       <r>    4.8968    1.0000 </r>
       <r>    4.8968    1.0000 </r>
       <r>    5.1977    1.0000 </r>
       <r>    5.1977    1.0000 </r>
       <r>    5.2307    1.0000 </r>
       <r>    5.2307    1.0000 </r>
       <r>    5.2307    1.0000 </r>
       <r>    5.4602    1.0000 </r>
       <r>    6.3323    1.0057 </r>
       <r>    6.3323    1.0057 </r>
       <r>    6.3323    1.0057 </r>
       <r>   10.3707   -0.0000 </r>
       <r>   10.3707   -0.0000 </r>
       <r>   10.3707   -0.0000 </r>
       <r>   11.0429   -0.0000 </r>
       <r>   26.3126    0.0000 </r>
       <r>   26.3126    0.0000 </r>
      </set>
     </set>
    </set>
   </array>
  </eigenvalues>
  <separator name="orbital magnetization" >
   <v name="MAGDIPOLOUT">      0.00000000      0.00000000      0.00000000</v>
  </separator>
  <dos>
   <i name="efermi">      6.75210421 </i>
   <total>
    <array>
     <dimension dim="1">gridpoints</dimension>
     <dimension dim="2">spin</dimension>
     <field>energy</field>
     <field>total</field>
     <field>integrated</field>
     <set>
      <set comment="spin 1">
       <r>    -4.0644     0.0000     0.0000 </r>
       <r>    -3.9564     0.0000     0.0000 </r>
       <r>    -3.8485     0.0000     0.0000 </r>
       <r>    -3.7406    -0.0000    -0.0000 </r>
       <r>    -3.6327    -0.0000    -0.0000 </r>
       <r>    -3.5247    -0.0000    -0.0000 </r>
       <r>    -3.4168    -0.0000    -0.0000 </r>
       <r>    -3.3089    -0.0000    -0.0000 </r>
       <r>    -3.2010    -0.0000    -0.0000 </r>
       <r>    -3.0931    -0.0000    -0.0000 </r>
       <r>    -2.9851    -0.0000    -0.0000 </r>
       <r>    -2.8772    -0.0000    -0.0000 </r>
       <r>    -2.7693    -0.0000    -0.0000 </r>
       <r>    -2.6614    -0.0000    -0.0000 </r>
       <r>    -2.5534    -0.0000    -0.0000 </r>
       <r>    -2.4455    -0.0003    -0.0000 </r>
       <r>    -2.3376    -0.0015    -0.0002 </r>
       <r>    -2.2297    -0.0030    -0.0005 </r>
       <r>    -2.1217     0.0020    -0.0003 </r>
       <r>    -2.0138     0.0307     0.0030 </r>
       <r>    -1.9059     0.0952     0.0133 </r>
       <r>    -1.7980     0.1683     0.0314 </r>
       <r>    -1.6900     0.1896     0.0519 </r>
       <r>    -1.5821     0.1573     0.0689 </r>
       <r>    -1.4742     0.1792     0.0882 </r>
       <r>    -1.3663     0.3224     0.1230 </r>
       <r>    -1.2584     0.4368     0.1702 </r>
       <r>    -1.1504     0.3434     0.2072 </r>
       <r>    -1.0425     0.1689     0.2254 </r>
       <r>    -0.9346     0.1942     0.2464 </r>
       <r>    -0.8267     0.3985     0.2894 </r>
       <r>    -0.7187     0.5380     0.3475 </r>
       <r>    -0.6108     0.5298     0.4047 </r>
       <r>    -0.5029     0.4265     0.4507 </r>
       <r>    -0.3950     0.3329     0.4866 </r>
       <r>    -0.2870     0.4493     0.5351 </r>
       <r>    -0.1791     0.6641     0.6068 </r>
       <r>    -0.0712     0.5528     0.6664 </r>
       <r>     0.0367     0.2676     0.6953 </r>
       <r>     0.1446     0.3673     0.7349 </r>
       <r>     0.2526     0.7202     0.8127 </r>
       <r>     0.3605     0.8251     0.9017 </r>
       <r>     0.4684     0.6940     0.9766 </r>
       <r>     0.5763     0.7058     1.0528 </r>
       <r>     0.6843     0.8912     1.1490 </r>
       <r>     0.7922     0.7721     1.2323 </r>
       <r>     0.9001     0.3896     1.2743 </r>
       <r>     1.0080     0.3561     1.3128 </r>
       <r>     1.1160     0.8281     1.4022 </r>
       <r>     1.2239     1.3253     1.5452 </r>
       <r>     1.3318     1.3205     1.6877 </r>
       <r>     1.4397     1.0995     1.8064 </r>
       <r>     1.5476     1.0436     1.9190 </r>
       <r>     1.6556     0.9892     2.0258 </r>
       <r>     1.7635     1.0203     2.1359 </r>
       <r>     1.8714     1.5404     2.3021 </r>
       <r>     1.9793     2.3187     2.5523 </r>
       <r>     2.0873     2.6452     2.8378 </r>
       <r>     2.1952     2.7641     3.1361 </r>
       <r>     2.3031     3.4967     3.5135 </r>
       <r>     2.4110     4.5914     4.0090 </r>
       <r>     2.5190     5.3540     4.5868 </r>
       <r>     2.6269     5.4834     5.1786 </r>
       <r>     2.7348     5.9330     5.8189 </r>
       <r>     2.8427     7.6672     6.6464 </r>
       <r>     2.9507     9.3597     7.6565 </r>
       <r>     3.0586     9.9766     8.7333 </r>
       <r>     3.1665     9.7484     9.7853 </r>
       <r>     3.2744     9.2539    10.7840 </r>
       <r>     3.3823     9.1400    11.7705 </r>
       <r>     3.4903     9.5663    12.8029 </r>
       <r>     3.5982    10.9717    13.9870 </r>
       <r>     3.7061    13.0132    15.3914 </r>
       <r>     3.8140    14.2160    16.9256 </r>
       <r>     3.9220    15.6021    18.6095 </r>
       <r>     4.0299    18.1389    20.5671 </r>
       <r>     4.1378    18.8823    22.6049 </r>
       <r>     4.2457    16.0997    24.3424 </r>
       <r>     4.3537    12.6594    25.7087 </r>
       <r>     4.4616    12.1679    27.0219 </r>
       <r>     4.5695    14.2999    28.5652 </r>
       <r>     4.6774    15.8797    30.2790 </r>
       <r>     4.7853    15.4164    31.9428 </r>
       <r>     4.8933    14.4020    33.4971 </r>
       <r>     5.0012    15.2175    35.1394 </r>
       <r>     5.1091    18.5017    37.1362 </r>
       <r>     5.2170    20.6799    39.3680 </r>
       <r>     5.3250    16.4762    41.1462 </r>
       <r>     5.4329     8.3335    42.0456 </r>
       <r>     5.5408     2.6617    42.3328 </r>
       <r>     5.6487     0.6793    42.4061 </r>
       <r>     5.7567     0.7654    42.4887 </r>
       <r>     5.8646     1.6608    42.6680 </r>
       <r>     5.9725     2.0517    42.8894 </r>
       <r>     6.0804     1.5146    43.0529 </r>
       <r>     6.1883     0.7736    43.1363 </r>
       <r>     6.2963     0.7465    43.2169 </r>
       <r>     6.4042     1.7741    43.4084 </r>
       <r>     6.5121     2.4038    43.6678 </r>
       <r>     6.6200     1.7475    43.8564 </r>
       <r>     6.7280     1.1126    43.9765 </r>
       <r>     6.8359     0.9178    44.0755 </r>
       <r>     6.9438     0.7868    44.1604 </r>
       <r>     7.0517     0.7482    44.2412 </r>
       <r>     7.1597     0.8034    44.3279 </r>
       <r>     7.2676     1.1436    44.4513 </r>
       <r>     7.3755     1.5035    44.6136 </r>
       <r>     7.4834     1.6134    44.7877 </r>
       <r>     7.5914     1.7863    44.9805 </r>
       <r>     7.6993     1.6060    45.1538 </r>
       <r>     7.8072     0.9897    45.2606 </r>
       <r>     7.9151     0.6093    45.3264 </r>
       <r>     8.0230     0.6822    45.4000 </r>
       <r>     8.1310     0.8636    45.4932 </r>
       <r>     8.2389     0.6519    45.5635 </r>
       <r>     8.3468     0.5482    45.6227 </r>
       <r>     8.4547     1.1844    45.7505 </r>
       <r>     8.5627     1.7407    45.9384 </r>
       <r>     8.6706     1.5019    46.1005 </r>
       <r>     8.7785     1.0622    46.2151 </r>
       <r>     8.8864     0.9756    46.3204 </r>
       <r>     8.9944     1.1317    46.4425 </r>
       <r>     9.1023     1.2618    46.5787 </r>
       <r>     9.2102     0.9557    46.6819 </r>
       <r>     9.3181     0.4030    46.7254 </r>
       <r>     9.4260     0.2339    46.7506 </r>
       <r>     9.5340     0.3850    46.7921 </r>
       <r>     9.6419     0.5827    46.8550 </r>
       <r>     9.7498     0.9386    46.9563 </r>
       <r>     9.8577     1.1419    47.0796 </r>
       <r>     9.9657     0.8156    47.1676 </r>
       <r>    10.0736     0.7407    47.2475 </r>
       <r>    10.1815     1.1231    47.3687 </r>
       <r>    10.2894     1.0746    47.4847 </r>
       <r>    10.3974     0.7551    47.5662 </r>
       <r>    10.5053     0.7834    47.6508 </r>
       <r>    10.6132     0.9260    47.7507 </r>
       <r>    10.7211     1.0758    47.8668 </r>
       <r>    10.8290     1.4564    48.0240 </r>
       <r>    10.9370     1.5760    48.1941 </r>
       <r>    11.0449     1.2677    48.3309 </r>
       <r>    11.1528     1.1024    48.4498 </r>
       <r>    11.2607     0.9074    48.5478 </r>
       <r>    11.3687     0.6614    48.6192 </r>
       <r>    11.4766     1.0448    48.7319 </r>
       <r>    11.5845     1.6997    48.9153 </r>
       <r>    11.6924     1.6700    49.0956 </r>
       <r>    11.8004     1.1712    49.2220 </r>
       <r>    11.9083     0.6998    49.2975 </r>
       <r>    12.0162     0.4333    49.3443 </r>
       <r>    12.1241     0.7685    49.4272 </r>
       <r>    12.2321     1.7652    49.6177 </r>
       <r>    12.3400     2.1343    49.8480 </r>
       <r>    12.4479     1.2945    49.9877 </r>
       <r>    12.5558     0.7100    50.0644 </r>
       <r>    12.6637     0.9285    50.1646 </r>
       <r>    12.7717     1.0373    50.2765 </r>
       <r>    12.8796     0.7208    50.3543 </r>
       <r>    12.9875     0.5453    50.4132 </r>
       <r>    13.0954     0.5665    50.4743 </r>
       <r>    13.2034     0.5017    50.5284 </r>
       <r>    13.3113     0.6057    50.5938 </r>
       <r>    13.4192     1.0953    50.7120 </r>
       <r>    13.5271     1.6665    50.8919 </r>
       <r>    13.6351     1.9719    51.1047 </r>
       <r>    13.7430     1.8617    51.3056 </r>
       <r>    13.8509     1.3859    51.4552 </r>
       <r>    13.9588     1.1196    51.5760 </r>
       <r>    14.0667     1.3206    51.7185 </r>
       <r>    14.1747     1.3362    51.8627 </r>
       <r>    14.2826     0.9461    51.9648 </r>
       <r>    14.3905     0.7564    52.0465 </r>
       <r>    14.4984     0.8887    52.1424 </r>
       <r>    14.6064     1.0310    52.2537 </r>
       <r>    14.7143     1.1838    52.3814 </r>
       <r>    14.8222     1.3852    52.5309 </r>
       <r>    14.9301     1.6699    52.7111 </r>
       <r>    15.0381     1.8859    52.9147 </r>
       <r>    15.1460     1.8565    53.1150 </r>
       <r>    15.2539     1.8456    53.3142 </r>
       <r>    15.3618     1.8991    53.5192 </r>
       <r>    15.4697     1.7359    53.7065 </r>
       <r>    15.5777     1.4547    53.8635 </r>
       <r>    15.6856     1.4755    54.0227 </r>
       <r>    15.7935     1.8807    54.2257 </r>
       <r>    15.9014     1.8740    54.4280 </r>
       <r>    16.0094     1.1006    54.5468 </r>
       <r>    16.1173     0.6561    54.6176 </r>
       <r>    16.2252     0.9928    54.7247 </r>
       <r>    16.3331     1.3102    54.8661 </r>
       <r>    16.4411     1.4459    55.0222 </r>
       <r>    16.5490     1.6185    55.1968 </r>
       <r>    16.6569     1.5248    55.3614 </r>
       <r>    16.7648     1.0837    55.4784 </r>
       <r>    16.8728     0.8812    55.5735 </r>
       <r>    16.9807     1.2089    55.7039 </r>
       <r>    17.0886     1.9522    55.9146 </r>
       <r>    17.1965     2.5204    56.1866 </r>
       <r>    17.3044     1.9988    56.4023 </r>
       <r>    17.4124     1.2914    56.5417 </r>
       <r>    17.5203     1.9341    56.7505 </r>
       <r>    17.6282     2.6240    57.0336 </r>
       <r>    17.7361     1.8514    57.2335 </r>
       <r>    17.8441     0.7740    57.3170 </r>
       <r>    17.9520     0.5437    57.3757 </r>
       <r>    18.0599     0.8632    57.4688 </r>
       <r>    18.1678     1.1889    57.5971 </r>
       <r>    18.2758     1.6327    57.7733 </r>
       <r>    18.3837     2.1284    58.0030 </r>
       <r>    18.4916     1.9420    58.2126 </r>
       <r>    18.5995     1.2638    58.3490 </r>
       <r>    18.7074     1.1285    58.4708 </r>
       <r>    18.8154     1.4564    58.6280 </r>
       <r>    18.9233     1.2203    58.7597 </r>
       <r>    19.0312     0.6110    58.8256 </r>
       <r>    19.1391     0.5242    58.8822 </r>
       <r>    19.2471     0.8074    58.9693 </r>
       <r>    19.3550     0.8128    59.0571 </r>
       <r>    19.4629     0.5760    59.1192 </r>
       <r>    19.5708     0.3781    59.1600 </r>
       <r>    19.6788     0.2379    59.1857 </r>
       <r>    19.7867     0.3223    59.2205 </r>
       <r>    19.8946     0.5125    59.2758 </r>
       <r>    20.0025     0.3711    59.3159 </r>
       <r>    20.1104     0.0779    59.3243 </r>
       <r>    20.2184    -0.0265    59.3214 </r>
       <r>    20.3263    -0.0194    59.3193 </r>
       <r>    20.4342    -0.0184    59.3173 </r>
       <r>    20.5421    -0.0016    59.3171 </r>
       <r>    20.6501     0.1171    59.3298 </r>
       <r>    20.7580     0.3466    59.3672 </r>
       <r>    20.8659     0.5719    59.4289 </r>
       <r>    20.9738     0.5616    59.4895 </r>
       <r>    21.0818     0.2556    59.5171 </r>
       <r>    21.1897     0.0575    59.5233 </r>
       <r>    21.2976     0.1624    59.5408 </r>
       <r>    21.4055     0.2515    59.5680 </r>
       <r>    21.5134     0.1254    59.5815 </r>
       <r>    21.6214     0.0085    59.5824 </r>
       <r>    21.7293     0.1092    59.5942 </r>
       <r>    21.8372     0.3337    59.6302 </r>
       <r>    21.9451     0.3826    59.6715 </r>
       <r>    22.0531     0.1958    59.6926 </r>
       <r>    22.1610     0.0251    59.6954 </r>
       <r>    22.2689    -0.0204    59.6932 </r>
       <r>    22.3768    -0.0271    59.6902 </r>
       <r>    22.4848    -0.0178    59.6883 </r>
       <r>    22.5927     0.1469    59.7042 </r>
       <r>    22.7006     0.4573    59.7535 </r>
       <r>    22.8085     0.4946    59.8069 </r>
       <r>    22.9165     0.1970    59.8281 </r>
       <r>    23.0244    -0.0053    59.8276 </r>
       <r>    23.1323    -0.0265    59.8247 </r>
       <r>    23.2402    -0.0183    59.8227 </r>
       <r>    23.3481     0.0016    59.8229 </r>
       <r>    23.4561     0.1139    59.8352 </r>
       <r>    23.5640     0.2555    59.8628 </r>
       <r>    23.6719     0.2158    59.8861 </r>
       <r>    23.7798     0.0603    59.8926 </r>
       <r>    23.8878    -0.0105    59.8914 </r>
       <r>    23.9957    -0.0091    59.8905 </r>
       <r>    24.1036    -0.0037    59.8901 </r>
       <r>    24.2115    -0.0094    59.8890 </r>
       <r>    24.3195    -0.0099    59.8880 </r>
       <r>    24.4274     0.0647    59.8950 </r>
       <r>    24.5353     0.2203    59.9187 </r>
       <r>    24.6432     0.2530    59.9460 </r>
       <r>    24.7511     0.1087    59.9578 </r>
       <r>    24.8591     0.0005    59.9578 </r>
       <r>    24.9670    -0.0120    59.9565 </r>
       <r>    25.0749    -0.0033    59.9561 </r>
       <r>    25.1828    -0.0004    59.9561 </r>
       <r>    25.2908    -0.0000    59.9561 </r>
       <r>    25.3987    -0.0000    59.9561 </r>
       <r>    25.5066    -0.0000    59.9561 </r>
       <r>    25.6145    -0.0000    59.9561 </r>
       <r>    25.7225    -0.0000    59.9561 </r>
       <r>    25.8304    -0.0006    59.9560 </r>
       <r>    25.9383    -0.0041    59.9556 </r>
       <r>    26.0462    -0.0090    59.9546 </r>
       <r>    26.1541     0.0187    59.9566 </r>
       <r>    26.2621     0.1145    59.9690 </r>
       <r>    26.3700     0.1784    59.9882 </r>
       <r>    26.4779     0.1076    59.9998 </r>
       <r>    26.5858     0.0148    60.0014 </r>
       <r>    26.6938    -0.0090    60.0005 </r>
       <r>    26.8017    -0.0038    60.0001 </r>
       <r>    26.9096    -0.0006    60.0000 </r>
       <r>    27.0175    -0.0000    60.0000 </r>
       <r>    27.1255    -0.0000    60.0000 </r>
       <r>    27.2334    -0.0000    60.0000 </r>
       <r>    27.3413    -0.0000    60.0000 </r>
       <r>    27.4492    -0.0000    60.0000 </r>
       <r>    27.5572    -0.0000    60.0000 </r>
       <r>    27.6651     0.0000    60.0000 </r>
       <r>    27.7730     0.0000    60.0000 </r>
       <r>    27.8809     0.0000    60.0000 </r>
       <r>    27.9888     0.0000    60.0000 </r>
       <r>    28.0968     0.0000    60.0000 </r>
       <r>    28.2047     0.0000    60.0000 </r>
       <r>    28.3126     0.0000    60.0000 </r>
      </set>
     </set>
    </array>
   </total>
  </dos>
 </calculation>
 <structure name="finalpos" >
  <crystal>
   <varray name="basis" >
    <v>       3.69460076       0.00000000       0.00000000 </v>
    <v>       0.00000000       3.69460076       0.00000000 </v>
    <v>       0.00000000       0.00000000       3.69460076 </v>
   </varray>
   <i name="volume">     50.43157652 </i>
   <varray name="rec_basis" >
    <v>       0.27066524       0.00000000       0.00000000 </v>
    <v>       0.00000000       0.27066524       0.00000000 </v>
    <v>       0.00000000       0.00000000       0.27066524 </v>
   </varray>
  </crystal>
  <varray name="positions" >
   <v>       0.00000000       0.00000000       0.00000000 </v>
   <v>       0.50000000       0.50000000       0.00000000 </v>
   <v>       0.50000000       0.00000000       0.50000000 </v>
   <v>       0.00000000       0.50000000       0.50000000 </v>
  </varray>
 </structure>
</modeling>
