unknown system                          
   1.00000000000000     
     2.306700    0.000000    0.000000
    -1.153350    1.997661    0.000000
     0.000000    0.000000    4.059000
   Fe
     2
Direct
  0.000000  0.000000  0.000000
  0.333333  0.666667  0.500000
 
   20   20   36
  156.93      148.86      127.12      97.805      67.801      42.401      24.403      14.177      10.032      8.9194    
  8.5955      8.9195      10.032      14.177      24.403      42.401      67.801      97.806      127.12      148.86    
  148.87      148.86      133.99      108.64      79.358      52.221      31.189      17.780      11.276      9.2047    
  8.5877      8.5874      9.2044      11.276      17.780      31.188      52.220      79.361      108.64      134.00    
  127.13      133.97      127.12      108.64      83.626      57.965      36.295      21.133      12.768      9.5396    
  8.6060      8.2998      8.6053      9.5396      12.769      21.132      36.292      57.962      83.629      108.64    
  97.802      108.57      108.57      97.806      79.358      57.965      38.193      23.155      13.999      9.9182    
  8.6386      8.0911      8.0908      8.6384      9.9189      14.000      23.155      38.190      57.960      79.353    
  67.791      79.260      83.495      79.268      67.801      52.221      36.295      23.156      14.476      10.180    
  8.6689      7.9672      7.7216      7.9672      8.6690      10.181      14.479      23.158      36.295      52.215    
  42.400      52.143      57.828      57.830      52.148      42.401      31.189      21.133      13.999      10.180    
  8.6817      7.9129      7.5111      7.5113      7.9128      8.6806      10.180      14.002      21.139      31.194    
  24.410      31.167      36.223      38.097      36.220      31.161      24.403      17.780      12.768      9.9182    
  8.6690      7.9130      7.4442      7.2904      7.4447      7.9121      8.6660      9.9152      12.769      17.785    
  14.177      17.800      21.146      23.151      23.148      21.139      17.795      14.177      11.276      9.5396    
  8.6387      7.9672      7.5110      7.2903      7.2910      7.5122      7.9669      8.6354      9.5339      11.271    
  10.024      11.309      12.830      14.073      14.551      14.071      12.830      11.314      10.032      9.2047    
  8.6060      8.0911      7.7216      7.5113      7.4447      7.5122      7.7241      8.0941      8.6059      9.1996    
  8.9192      9.2434      9.6169      10.027      10.306      10.307      10.031      9.6226      9.2482      8.9194    
  8.5877      8.2998      8.0908      7.9671      7.9129      7.9121      7.9669      8.0941      8.3060      8.5926    
  8.6026      8.6377      8.6945      8.7617      8.8185      8.8426      8.8215      8.7647      8.6940      8.6326    
  8.5954      8.5874      8.6054      8.6384      8.6690      8.6807      8.6659      8.6354      8.6060      8.5926    
  8.9191      8.6377      8.3965      8.2276      8.1352      8.1002      8.1009      8.1354      8.2244      8.3904    
  8.6329      8.9194      9.2044      9.5396      9.9188      10.181      10.180      9.9152      9.5339      9.1996    
  10.024      9.2434      8.6946      8.2276      7.8985      7.7161      7.6595      7.7153      7.8960      8.2246    
  8.6945      9.2485      10.032      11.276      12.769      14.000      14.479      14.002      12.769      11.271    
  14.177      11.309      9.6170      8.7617      8.1352      7.7161      7.5159      7.5153      7.7150      8.1354    
  8.7649      9.6225      11.314      14.177      17.780      21.132      23.155      23.158      21.139      17.785    
  24.410      17.800      12.830      10.027      8.8184      8.1002      7.6596      7.5153      7.6590      8.1010    
  8.8215      10.030      12.829      17.795      24.403      31.188      36.292      38.190      36.295      31.194    
  42.400      31.167      21.146      14.073      10.306      8.8427      8.1009      7.7152      7.7150      8.1010    
  8.8437      10.307      14.070      21.140      31.162      42.401      52.220      57.962      57.960      52.215    
  67.791      52.143      36.223      23.151      14.551      10.307      8.8214      8.1354      7.8960      8.1355    
  8.8215      10.307      14.548      23.148      36.223      52.149      67.801      79.361      83.629      79.353    
  97.802      79.260      57.828      38.097      23.148      14.071      10.031      8.7647      8.2244      8.2246    
  8.7649      10.030      14.070      23.148      38.100      57.832      79.265      97.806      108.64      108.64    
  127.13      108.57      83.495      57.830      36.220      21.139      12.830      9.6226      8.6940      8.3904    
  8.6945      9.6225      12.829      21.140      36.223      57.832      83.492      108.56      127.12      134.00    
  148.87      133.97      108.57      79.268      52.148      31.161      17.795      11.314      9.2482      8.6326    
  8.6329      9.2485      11.314      17.795      31.162      52.149      79.265      108.56      133.96      148.86    
  149.16      141.50      120.84      92.959      64.409      40.268      23.238      13.653      9.8299      8.7869    
  8.4699      8.7870      9.8300      13.653      23.238      40.268      64.409      92.959      120.84      141.50    
  141.51      141.50      127.37      103.26      75.396      49.582      29.633      17.002      10.958      9.0567    
  8.4553      8.4550      9.0564      10.958      17.002      29.631      49.581      75.399      103.27      127.38    
  120.85      127.35      120.84      103.26      79.454      55.035      34.457      20.137      12.322      9.3554    
  8.4685      8.1703      8.4679      9.3553      12.323      20.136      34.454      55.033      79.457      103.26    
  92.956      103.20      103.20      92.959      75.396      55.035      36.252      22.033      13.455      9.6907    
  8.4978      7.9653      7.9650      8.4975      9.6913      13.456      22.032      36.249      55.030      75.391    
  64.399      75.321      79.354      75.329      64.409      49.582      34.457      22.033      13.896      9.9238    
  8.5260      7.8441      7.6069      7.8441      8.5261      9.9246      13.898      22.035      34.457      49.577    
  40.267      49.531      54.941      54.944      49.536      40.268      29.633      20.137      13.455      9.9238    
  8.5377      7.7912      7.4036      7.4038      7.7912      8.5367      9.9235      13.458      20.143      29.637    
  23.244      29.636      34.431      36.210      34.428      29.630      23.238      17.003      12.322      9.6906    
  8.5261      7.7913      7.3391      7.1913      7.3396      7.7905      8.5233      9.6879      12.323      17.007    
  13.653      17.044      20.192      22.083      22.080      20.186      17.040      13.653      10.958      9.3553    
  8.4978      7.8441      7.4035      7.1913      7.1919      7.4046      7.8439      8.4947      9.3500      10.953    
  9.8227      11.009      12.421      13.579      14.026      13.577      12.421      11.014      9.8300      9.0567    
  8.4685      7.9653      7.6068      7.4038      7.3397      7.4046      7.6091      7.9680      8.4685      9.0519    
  8.7867      9.1118      9.4645      9.8436      10.101      10.102      9.8469      9.4698      9.1163      8.7869    
  8.4553      8.1703      7.9650      7.8441      7.7912      7.7905      7.8438      7.9680      8.1761      8.4599    
  8.4766      8.5200      8.5856      8.6603      8.7220      8.7473      8.7248      8.6631      8.5851      8.5152    
  8.4699      8.4550      8.4679      8.4975      8.5261      8.5367      8.5232      8.4947      8.4685      8.4599    
  8.7866      8.5200      8.2942      8.1384      8.0551      8.0245      8.0251      8.0553      8.1354      8.2884    
  8.5155      8.7869      9.0564      9.3553      9.6912      9.9246      9.9236      9.6879      9.3501      9.0519    
  9.8227      9.1118      8.5856      8.1384      7.8251      7.6523      7.5990      7.6516      7.8229      8.1356    
  8.5856      9.1166      9.8300      10.958      12.323      13.456      13.898      13.458      12.323      10.953    
  13.653      11.009      9.4645      8.6603      8.0550      7.6523      7.4606      7.4600      7.6514      8.0553    
  8.6633      9.4697      11.014      13.653      17.002      20.136      22.033      22.036      20.143      17.007    
  23.244      17.044      12.421      9.8436      8.7220      8.0245      7.5990      7.4600      7.5984      8.0252    
  8.7248      9.8463      12.420      17.040      23.238      29.632      34.454      36.249      34.457      29.637    
  40.267      29.636      20.192      13.579      10.101      8.7473      8.0252      7.6516      7.6513      8.0252    
  8.7483      10.101      13.576      20.186      29.631      40.268      49.581      55.033      55.030      49.577    
  64.399      49.531      34.431      22.083      14.026      10.102      8.7248      8.0553      7.8229      8.0553    
  8.7248      10.101      14.023      22.081      34.431      49.537      64.409      75.399      79.457      75.391    
  92.956      75.321      54.941      36.210      22.080      13.577      9.8469      8.6631      8.1354      8.1357    
  8.6633      9.8463      13.576      22.081      36.213      54.946      75.326      92.960      103.27      103.26    
  120.85      103.20      79.354      54.944      34.428      20.186      12.421      9.4698      8.5851      8.2884    
  8.5856      9.4697      12.420      20.186      34.431      54.946      79.351      103.20      120.84      127.38    
  141.51      127.35      103.20      75.329      49.536      29.630      17.040      11.014      9.1163      8.5152    
  8.5155      9.1166      11.014      17.040      29.631      49.537      75.326      103.20      127.34      141.50    
  128.16      121.58      103.82      79.809      55.212      34.520      20.139      12.291      9.3084      8.4239    
  8.1282      8.4239      9.3085      12.291      20.139      34.520      55.212      79.809      103.82      121.58    
  121.58      121.58      109.43      88.667      64.646      42.446      25.464      14.958      10.138      8.6544    
  8.0932      8.0930      8.6541      10.138      14.958      25.464      42.446      64.648      88.674      109.44    
  103.83      109.43      103.82      88.667      68.133      47.102      29.515      17.499      11.166      8.8712    
  8.0901      7.8157      8.0895      8.8711      11.167      17.498      29.513      47.101      68.135      88.673    
  79.806      88.653      88.654      79.809      64.646      47.102      31.028      19.049      12.038      9.0995    
  8.1074      7.6192      7.6189      8.1072      9.0999      12.038      19.049      31.026      47.098      64.642    
  55.204      64.634      68.119      64.641      55.212      42.446      29.515      19.049      12.380      9.2600    
  8.1283      7.5040      7.2903      7.5041      8.1284      9.2605      12.381      19.051      29.515      42.442    
  34.519      42.469      47.128      47.130      42.473      34.520      25.464      17.499      12.038      9.2599    
  8.1374      7.4539      7.1061      7.1063      7.4540      8.1366      9.2597      12.040      17.503      25.468    
  20.144      25.537      29.618      31.137      29.615      25.533      20.139      14.958      11.166      9.0995    
  8.1283      7.4539      7.0480      6.9166      7.0485      7.4534      8.1261      9.0973      11.167      14.962    
  12.291      15.061      17.672      19.253      19.251      17.666      15.057      12.291      10.138      8.8711    
  8.1075      7.5041      7.1060      6.9166      6.9171      7.1068      7.5038      8.1050      8.8668      10.134    
  9.3024      10.243      11.368      12.302      12.664      12.300      11.368      10.247      9.3084      8.6544    
  8.0901      7.6192      7.2903      7.1063      7.0485      7.1068      7.2920      7.6214      8.0901      8.6504    
  8.4237      8.7566      9.0715      9.3785      9.5827      9.5834      9.3811      9.0757      8.7603      8.4239    
  8.0932      7.8157      7.6190      7.5041      7.4540      7.4534      7.5038      7.6214      7.8205      8.0970    
  8.1337      8.2007      8.2904      8.3857      8.4607      8.4903      8.4629      8.3879      8.2900      8.1968    
  8.1282      8.0930      8.0896      8.1072      8.1283      8.1366      8.1261      8.1050      8.0901      8.0970    
  8.4236      8.2007      8.0193      7.9011      7.8437      7.8257      7.8263      7.8439      7.8987      8.0146    
  8.1970      8.4239      8.6541      8.8711      9.0999      9.2605      9.2597      9.0973      8.8669      8.6504    
  9.3024      8.7566      8.2905      7.9011      7.6338      7.4889      7.4448      7.4885      7.6321      7.8989    
  8.2905      8.7605      9.3085      10.138      11.167      12.038      12.381      12.040      11.167      10.134    
  12.291      10.243      9.0715      8.3857      7.8436      7.4889      7.3218      7.3214      7.4882      7.8439    
  8.3881      9.0757      10.246      12.291      14.958      17.498      19.049      19.051      17.503      14.962    
  20.145      15.061      11.368      9.3784      8.4607      7.8257      7.4449      7.3214      7.4443      7.8262    
  8.4629      9.3806      11.367      15.057      20.139      25.464      29.513      31.026      29.515      25.468    
  34.519      25.537      17.672      12.302      9.5827      8.4903      7.8263      7.4885      7.4882      7.8262    
  8.4911      9.5830      12.300      17.667      25.534      34.520      42.446      47.101      47.098      42.442    
  55.204      42.469      29.618      19.253      12.664      9.5835      8.4629      7.8439      7.6321      7.8439    
  8.4630      9.5830      12.663      19.251      29.618      42.474      55.212      64.648      68.135      64.642    
  79.806      64.634      47.128      31.137      19.251      12.300      9.3810      8.3879      7.8987      7.8990    
  8.3881      9.3806      12.300      19.251      31.139      47.132      64.638      79.809      88.674      88.673    
  103.83      88.653      68.119      47.130      29.615      17.666      11.368      9.0757      8.2900      8.0146    
  8.2904      9.0757      11.367      17.667      29.618      47.132      68.117      88.647      103.82      109.44    
  121.58      109.43      88.654      64.641      42.473      25.533      15.057      10.247      8.7603      8.1967    
  8.1970      8.7606      10.246      15.057      25.534      42.474      64.638      88.647      109.42      121.58    
  99.594      94.471      80.619      61.867      42.722      26.828      16.118      10.606      8.6518      7.9167    
  7.6569      7.9168      8.6519      10.606      16.118      26.828      42.722      61.867      80.619      94.471    
  94.474      94.471      84.988      68.757      50.005      32.822      19.968      12.369      9.1344      8.0862    
  7.5903      7.5900      8.0860      9.1346      12.369      19.968      32.821      50.007      68.762      84.994    
  80.623      85.005      80.619      68.757      52.704      36.368      22.946      14.105      9.7410      8.2331    
  7.5588      7.3222      7.5583      8.2330      9.7415      14.105      22.945      36.367      52.705      68.762    
  61.866      68.799      68.800      61.867      50.005      36.368      24.066      15.185      10.274      8.3505    
  7.5530      7.1340      7.1338      7.5527      8.3507      10.274      15.185      24.065      36.366      50.003    
  42.717      50.082      52.811      50.086      42.722      32.822      22.946      15.185      10.487      8.4287    
  7.5584      7.0231      6.8441      7.0232      7.5585      8.4289      10.488      15.186      22.946      32.819    
  26.828      32.946      36.560      36.561      32.949      26.828      19.968      14.106      10.274      8.4287    
  7.5620      6.9742      6.6837      6.6840      6.9744      7.5616      8.4285      10.275      14.109      19.971    
  16.122      20.137      23.225      24.383      23.223      20.134      16.118      12.369      9.7410      8.3505    
  7.5585      6.9742      6.6334      6.5248      6.6339      6.9739      7.5570      8.3490      9.7415      12.372    
  10.606      12.556      14.442      15.601      15.599      14.438      12.553      10.606      9.1344      8.2331    
  7.5531      7.0231      6.6837      6.5248      6.5250      6.6842      7.0229      7.5514      8.2301      9.1317    
  8.6475      9.3144      10.088      10.736      10.989      10.734      10.088      9.3173      8.6518      8.0862    
  7.5588      7.1340      6.8441      6.6840      6.6339      6.6842      6.8451      7.1354      7.5588      8.0834    
  7.9165      8.2572      8.5659      8.8122      8.9622      8.9626      8.8139      8.5687      8.2598      7.9167    
  7.5902      7.3222      7.1338      7.0232      6.9745      6.9740      7.0229      7.1354      7.3256      7.5929    
  7.6608      7.7611      7.8827      8.0039      8.0952      8.1300      8.0967      8.0053      7.8823      7.7583    
  7.6569      7.5900      7.5583      7.5527      7.5585      7.5616      7.5570      7.5513      7.5588      7.5929    
  7.9165      7.7611      7.6452      7.5810      7.5600      7.5597      7.5601      7.5603      7.5793      7.6419    
  7.7585      7.9167      8.0860      8.2330      8.3506      8.4289      8.4285      8.3490      8.2301      8.0834    
  8.6474      8.2571      7.8828      7.5810      7.3814      7.2774      7.2467      7.2773      7.3804      7.5795    
  7.8827      8.2600      8.6518      9.1347      9.7415      10.274      10.488      10.275      9.7415      9.1317    
  10.606      9.3144      8.5659      8.0039      7.5600      7.2774      7.1469      7.1466      7.2770      7.5602    
  8.0055      8.5688      9.3170      10.606      12.369      14.105      15.185      15.186      14.109      12.372    
  16.122      12.556      10.088      8.8122      8.0952      7.5597      7.2468      7.1466      7.2463      7.5599    
  8.0967      8.8136      10.088      12.553      16.118      19.968      22.945      24.065      22.946      19.971    
  26.828      20.137      14.442      10.736      8.9622      8.1300      7.5602      7.2773      7.2770      7.5599    
  8.1305      8.9624      10.734      14.438      20.135      26.828      32.821      36.367      36.366      32.819    
  42.717      32.946      23.225      15.601      10.989      8.9626      8.0967      7.5602      7.3804      7.5602    
  8.0967      8.9624      10.988      15.600      23.225      32.949      42.722      50.007      52.705      50.003    
  61.866      50.082      36.560      24.383      15.599      10.734      8.8138      8.0053      7.5793      7.5795    
  8.0055      8.8136      10.734      15.600      24.385      36.562      50.085      61.867      68.762      68.762    
  80.623      68.799      52.811      36.561      23.223      14.438      10.088      8.5688      7.8823      7.6418    
  7.8827      8.5688      10.088      14.438      23.225      36.562      52.809      68.795      80.619      84.994    
  94.474      85.005      68.800      50.086      32.949      20.134      12.554      9.3173      8.2598      7.7583    
  7.7585      8.2600      9.3170      12.553      20.135      32.949      50.085      68.795      85.000      94.471    
  69.950      66.324      56.523      43.303      29.966      19.205      12.349      9.1329      7.9857      7.3670    
  7.1546      7.3671      7.9857      9.1329      12.349      19.205      29.966      43.303      56.523      66.324    
  66.325      66.324      59.599      48.115      34.954      23.139      14.671      10.036      8.2347      7.4592    
  7.0511      7.0509      7.4590      8.2350      10.036      14.671      23.139      34.955      48.118      59.603    
  56.525      59.638      56.523      48.115      36.812      25.500      16.521      10.974      8.4898      7.5421    
  6.9823      6.7927      6.9818      7.5419      8.4902      10.975      16.520      25.499      36.813      48.118    
  43.302      48.213      48.214      43.303      34.954      25.500      17.227      11.577      8.7179      7.6001    
  6.9431      6.6086      6.6085      6.9428      7.6000      8.7180      11.577      17.226      25.498      34.952    
  29.963      35.118      37.039      35.120      29.966      23.139      16.521      11.577      8.8117      7.6285    
  6.9250      6.4965      6.3571      6.4966      6.9250      7.6285      8.8120      11.578      16.521      23.137    
  19.205      23.364      25.855      25.856      23.365      19.205      14.671      10.975      8.7178      7.6285    
  6.9200      6.4450      6.2182      6.2184      6.4454      6.9198      7.6283      8.7188      10.977      14.672    
  12.351      14.935      16.974      17.749      16.974      14.933      12.349      10.036      8.4898      7.6000    
  6.9250      6.4450      6.1745      6.0896      6.1749      6.4450      6.9242      7.5993      8.4902      10.038    
  9.1327      10.308      11.474      12.205      12.204      11.472      10.307      9.1329      8.2347      7.5421    
  6.9431      6.4965      6.2181      6.0896      6.0897      6.2183      6.4963      6.9422      7.5404      8.2332    
  7.9831      8.4930      8.9865      9.3823      9.5361      9.3815      8.9865      8.4948      7.9857      7.4592    
  6.9822      6.6086      6.3570      6.2184      6.1749      6.2183      6.3574      6.6094      6.9822      7.4575    
  7.3669      7.7037      8.0163      8.2562      8.3858      8.3860      8.2570      8.0179      7.7052      7.3671    
  7.0511      6.7928      6.6085      6.4966      6.4454      6.4450      6.4963      6.6094      6.7947      7.0526    
  7.1569      7.2909      7.4408      7.5825      7.6856      7.7238      7.6863      7.5831      7.4404      7.2892    
  7.1546      7.0509      6.9818      6.9428      6.9250      6.9198      6.9242      6.9422      6.9823      7.0527    
  7.3669      7.2909      7.2469      7.2387      7.2538      7.2704      7.2707      7.2541      7.2377      7.2449    
  7.2894      7.3671      7.4590      7.5420      7.6000      7.6285      7.6283      7.5993      7.5404      7.4575    
  7.9830      7.7037      7.4408      7.2387      7.1128      7.0521      7.0353      7.0522      7.1125      7.2379    
  7.4408      7.7054      7.9857      8.2350      8.4902      8.7180      8.8121      8.7188      8.4902      8.2332    
  9.1327      8.4930      8.0164      7.5825      7.2538      7.0521      6.9615      6.9614      7.0519      7.2540    
  7.5834      8.0180      8.4945      9.1329      10.036      10.975      11.577      11.578      10.977      10.038    
  12.351      10.308      8.9865      8.2562      7.6855      7.2704      7.0354      6.9614      7.0349      7.2704    
  7.6863      8.2570      8.9861      10.306      12.349      14.671      16.520      17.226      16.521      14.672    
  19.205      14.935      11.474      9.3823      8.3858      7.7238      7.2707      7.0522      7.0519      7.2704    
  7.7240      8.3860      9.3814      11.472      14.933      19.205      23.139      25.499      25.498      23.137    
  29.963      23.364      16.974      12.205      9.5362      8.3860      7.6863      7.2541      7.1125      7.2540    
  7.6863      8.3860      9.5358      12.204      16.974      23.365      29.966      34.955      36.813      34.952    
  43.302      35.118      25.855      17.749      12.204      9.3815      8.2569      7.5831      7.2378      7.2379    
  7.5834      8.2569      9.3814      12.204      17.750      25.857      35.120      43.303      48.118      48.118    
  56.525      48.213      37.039      25.856      16.974      11.472      8.9865      8.0179      7.4405      7.2449    
  7.4408      8.0180      8.9861      11.472      16.974      25.857      37.039      48.211      56.523      59.603    
  66.325      59.638      48.214      35.120      23.365      14.933      10.307      8.4948      7.7052      7.2892    
  7.2894      7.7054      8.4945      10.306      14.933      23.365      35.120      48.211      59.634      66.324    
  44.316      42.011      35.812      27.558      19.460      13.265      9.6613      8.1218      7.3465      6.8615    
  6.7009      6.8615      7.3466      8.1218      9.6612      13.265      19.460      27.558      35.812      42.011    
  42.012      42.011      37.738      30.505      22.387      15.391      10.732      8.4467      7.4895      6.8720    
  6.5618      6.5616      6.8719      7.4897      8.4472      10.732      15.391      22.387      30.506      37.739    
  35.813      37.791      35.812      30.505      23.490      16.700      11.630      8.7918      7.5860      6.8832    
  6.4528      6.3122      6.4525      6.8830      7.5863      8.7920      11.630      16.700      23.490      30.506    
  27.558      30.644      30.644      27.558      22.387      16.700      11.981      9.0242      7.6409      6.8887    
  6.3758      6.1272      6.1271      6.3756      6.8886      7.6409      9.0240      11.981      16.699      22.386    
  19.459      22.615      23.804      22.616      19.460      15.391      11.630      9.0242      7.6611      6.8898    
  6.3302      6.0083      5.9063      6.0084      6.3302      6.8897      7.6610      9.0244      11.630      15.390    
  13.265      15.689      17.175      17.175      15.689      13.265      10.732      8.7918      7.6409      6.8898    
  6.3150      5.9508      5.7821      5.7823      5.9512      6.3151      6.8897      7.6412      8.7928      10.733    
  9.6622      11.067      12.212      12.654      12.212      11.066      9.6612      8.4467      7.5860      6.8887    
  6.3302      5.9509      5.7425      5.6778      5.7427      5.9510      6.3300      6.8885      7.5863      8.4476    
  8.1216      8.7850      9.4162      9.8132      9.8128      9.4155      8.7846      8.1218      7.4895      6.8832    
  6.3758      6.0083      5.7821      5.6777      5.6777      5.7821      6.0082      6.3755      6.8825      7.4888    
  7.3453      7.8135      8.2056      8.4695      8.5652      8.4691      8.2056      7.8143      7.3466      6.8720    
  6.4528      6.1272      5.9062      5.7823      5.7428      5.7821      5.9062      6.1274      6.4528      6.8712    
  6.8614      7.1815      7.4810      7.7137      7.8408      7.8408      7.7138      7.4815      7.1821      6.8615    
  6.5617      6.3122      6.1271      6.0084      5.9512      5.9510      6.0081      6.1274      6.3130      6.5624    
  6.7019      6.8640      7.0332      7.1857      7.2933      7.3323      7.2935      7.1858      7.0329      6.8632    
  6.7009      6.5616      6.4525      6.3756      6.3302      6.3151      6.3299      6.3755      6.4528      6.5624    
  6.8614      6.8640      6.8866      6.9270      6.9715      7.0010      7.0012      6.9717      6.9266      6.8857    
  6.8633      6.8615      6.8719      6.8830      6.8886      6.8897      6.8897      6.8885      6.8825      6.8713    
  7.3453      7.1814      7.0332      6.9270      6.8686      6.8457      6.8410      6.8460      6.8686      6.9267    
  7.0332      7.1822      7.3466      7.4897      7.5863      7.6409      7.6611      7.6413      7.5863      7.4888    
  8.1216      7.8135      7.4810      7.1857      6.9715      6.8457      6.7915      6.7916      6.8458      6.9716    
  7.1861      7.4816      7.8141      8.1218      8.4472      8.7920      9.0240      9.0244      8.7927      8.4476    
  9.6622      8.7850      8.2055      7.7137      7.2933      7.0011      6.8410      6.7915      6.8407      7.0009    
  7.2935      7.7139      8.2053      8.7841      9.6612      10.732      11.630      11.981      11.630      10.733    
  13.265      11.067      9.4162      8.4695      7.8408      7.3324      7.0013      6.8460      6.8458      7.0009    
  7.3323      7.8409      8.4691      9.4152      11.066      13.265      15.391      16.700      16.699      15.390    
  19.459      15.689      12.212      9.8132      8.5652      7.8408      7.2935      6.9717      6.8686      6.9716    
  7.2935      7.8409      8.5653      9.8131      12.212      15.689      19.460      22.387      23.490      22.386    
  27.558      22.614      17.175      12.654      9.8129      8.4691      7.7138      7.1858      6.9266      6.9267    
  7.1861      7.7139      8.4691      9.8131      12.655      17.176      22.615      27.558      30.506      30.506    
  35.813      30.644      23.804      17.175      12.212      9.4154      8.2055      7.4815      7.0329      6.8857    
  7.0332      7.4816      8.2053      9.4152      12.212      17.176      23.804      30.643      35.812      37.739    
  42.012      37.791      30.644      22.615      15.689      11.066      8.7846      7.8144      7.1821      6.8632    
  6.8633      7.1822      7.8141      8.7841      11.066      15.689      22.615      30.643      37.790      42.011    
  25.564      24.299      20.938      16.588      12.539      9.6999      8.2053      7.4018      6.8088      6.4594    
  6.3471      6.4594      6.8088      7.4018      8.2053      9.6999      12.539      16.588      20.938      24.299    
  24.299      24.299      21.960      18.080      13.898      10.539      8.5215      7.5308      6.8500      6.3932    
  6.1743      6.1742      6.3931      6.8501      7.5312      8.5219      10.539      13.898      18.080      21.960    
  20.938      22.019      20.938      18.080      14.421      11.081      8.8011      7.6066      6.8728      6.3364    