    2    2    1    1
  0.9351944E+01  0.2306700E-09  0.2306700E-09  0.4059000E-09  0.5000000E-15
  1.000000000000000E-004
  CAR 
 unknown system                          
     16     96     40
 
  0.0000000E+00  0.0000000E+00  0.0000000E+00  0.7513148E-03
    1       -1.482005   1.000000
    2        2.418248   1.000000
    3        5.434946   1.000000
    4        6.128667   1.000000
    5        6.128733   1.000000
    6        6.481403   1.000000
    7        6.481481   1.000000
    8        7.148330   1.000001
    9        7.548320   1.014742
   10        7.548339   1.014746
   11        8.756081  -0.000000
   12        8.756100  -0.000000
   13       16.052784   0.000000
   14       32.070831   0.000000
   15       32.341549   0.000000
   16       35.278947   0.000000
   17       38.230874   0.000000
   18       38.230942   0.000000
   19       38.962310   0.000000
   20       38.962484   0.000000
   21       39.829068   0.000000
   22       41.542480   0.000000
   23       41.542499   0.000000
   24       42.608520   0.000000
   25       45.587981   0.000000
   26       45.587990   0.000000
   27       46.668075   0.000000
   28       49.864015   0.000000
   29       49.864431   0.000000
   30       51.801280   0.000000
   31       51.801449   0.000000
   32       54.542312   0.000000
   33       62.308152   0.000000
   34       63.566282   0.000000
   35       63.714671   0.000000
   36       63.715549   0.000000
   37       64.933719   0.000000
   38       66.665364   0.000000
   39       66.666429   0.000000
   40       68.676160   0.000000
 
  0.9090909E-01  0.7819538E-17  0.0000000E+00  0.4507889E-02
    1       -1.128369   1.000000
    2        2.685192   1.000000
    3        5.442865   1.000000
    4        6.064990   1.000000
    5        6.215933   1.000000
    6        6.346032   1.000000
    7        6.354956   1.000000
    8        6.683771   1.000000
    9        7.380847   1.000637
   10        7.421132   1.001588
   11        8.794784  -0.000000
   12        9.965780  -0.000000
   13       16.074111   0.000000
   14       30.977819   0.000000
   15       32.705084   0.000000
   16       33.765890   0.000000
   17       35.303500   0.000000
   18       37.348006   0.000000
   19       37.453820   0.000000
   20       39.689425   0.000000
   21       41.003306   0.000000
   22       42.063384   0.000000
   23       42.233222   0.000000
   24       42.739422   0.000000
   25       46.763288   0.000000
   26       47.076995   0.000000
   27       47.250184   0.000000
   28       47.576141   0.000000
   29       50.955462   0.000000
   30       53.286642   0.000000
   31       54.286283   0.000000
   32       56.368180   0.000000
   33       61.079089   0.000000
   34       62.780760   0.000000
   35       63.073119   0.000000
   36       63.367177   0.000000
   37       63.769967   0.000000
   38       67.374813   0.000000
   39       68.659729   0.000000
   40       68.906544   0.000000
 
  0.1818182E+00  0.2395890E-18  0.0000000E+00  0.4507889E-02
    1       -0.134317   1.000000
    2        3.305008   1.000000
    3        5.029515   1.000000
    4        5.231254   1.000000
    5        5.866764   1.000000
    6        6.503536   1.000000
    7        6.949178   1.000000
    8        6.980876   1.000000
    9        7.121541   1.000000
   10        7.240476   1.000013
   11        8.858136  -0.000000
   12       11.926486  -0.000000
   13       16.160727   0.000000
   14       27.320773   0.000000
   15       32.310144   0.000000
   16       32.499156   0.000000
   17       32.782823   0.000000
   18       33.742746   0.000000
   19       38.199640   0.000000
   20       39.164931   0.000000
   21       39.791278   0.000000
   22       40.180340   0.000000
   23       43.217705   0.000000
   24       44.324775   0.000000
   25       47.075745   0.000000
   26       47.991764   0.000000
   27       49.460261   0.000000
   28       51.805810   0.000000
   29       54.131790   0.000000
   30       56.268721   0.000000
   31       56.988466   0.000000
   32       59.394085   0.000000
   33       59.622418   0.000000
   34       60.724514   0.000000
   35       61.126498   0.000000
   36       62.365746   0.000000
   37       64.779855   0.000000
   38       68.253062   0.000000
   39       68.613800   0.000000
   40       69.423653   0.000000
 
  0.2727273E+00  0.2993989E-16  0.0000000E+00  0.4507889E-02
    1        1.251163   1.000000
    2        3.568556   1.000000
    3        4.099449   1.000000
    4        5.192839   1.000000
    5        5.681384   1.000000
    6        6.477355   1.000000
    7        6.778841   1.000000
    8        7.349452   1.000293
    9        7.807332   0.868398
   10        8.020152   0.095256
   11        8.892592  -0.000000
   12       14.125773   0.000000
   13       16.358992   0.000000
   14       23.251781   0.000000
   15       29.086406   0.000000
   16       29.746531   0.000000
   17       30.910741   0.000000
   18       33.632151   0.000000
   19       36.479034   0.000000
   20       39.513318   0.000000
   21       39.573986   0.000000
   22       40.082667   0.000000
   23       40.771993   0.000000
   24       44.467876   0.000000
   25       50.639050   0.000000
   26       52.144352   0.000000
   27       53.066891   0.000000
   28       54.475466   0.000000
   29       55.546229   0.000000
   30       56.695691   0.000000
   31       58.275626   0.000000
   32       60.006779   0.000000
   33       60.643053   0.000000
   34       61.066818   0.000000
   35       62.055145   0.000000
   36       64.421640   0.000000
   37       65.113101   0.000000
   38       68.461723   0.000000
   39       68.886905   0.000000
   40       69.261490   0.000000
 
  0.3636364E+00  0.3188461E-16  0.0000000E+00  0.4507889E-02
    1        2.424468   1.000000
    2        3.263362   1.000000
    3        3.475556   1.000000
    4        5.410541   1.000000
    5        6.035608   1.000000
    6        6.131068   1.000000
    7        6.497311   1.000000
    8        8.675011  -0.000000
    9        8.726536  -0.000000
   10        8.809846  -0.000000
   11        8.900566  -0.000000
   12       16.188928   0.000000
   13       16.460502   0.000000
   14       20.314275   0.000000
   15       25.748478   0.000000
   16       27.781404   0.000000
   17       28.112150   0.000000
   18       32.758327   0.000000
   19       35.361450   0.000000
   20       38.632695   0.000000
   21       39.125990   0.000000
   22       41.033937   0.000000
   23       41.641744   0.000000
   24       44.663169   0.000000
   25       52.252258   0.000000
   26       53.565297   0.000000
   27       54.155265   0.000000
   28       57.361707   0.000000
   29       57.595946   0.000000
   30       57.920818   0.000000
   31       59.986479   0.000000
   32       61.163642   0.000000
   33       61.893672   0.000000
   34       61.898822   0.000000
   35       63.697740   0.000000
   36       65.262679   0.000000
   37       68.192321   0.000000
   38       68.646239   0.000000
   39       68.795784   0.000000
   40       69.352645   0.000000
 
  0.4545455E+00  0.4618542E-16  0.0000000E+00  0.4507889E-02
    1        2.792933   1.000000
    2        3.050934   1.000000
    3        3.163814   1.000000
    4        5.779307   1.000000
    5        6.020531   1.000000
    6        6.340315   1.000000
    7        6.395869   1.000000
    8        8.896142  -0.000000
    9        9.214248  -0.000000
   10        9.341836  -0.000000
   11       10.559984  -0.000000
   12       14.236198   0.000000
   13       18.655190   0.000000
   14       20.284113   0.000000
   15       23.053192   0.000000
   16       25.387973   0.000000
   17       26.675947   0.000000
   18       32.106659   0.000000
   19       34.996482   0.000000
   20       37.428270   0.000000
   21       38.945737   0.000000
   22       41.963073   0.000000
   23       43.924417   0.000000
   24       44.505877   0.000000
   25       48.880418   0.000000
   26       54.314970   0.000000
   27       55.406024   0.000000
   28       59.326495   0.000000
   29       59.423120   0.000000
   30       60.455643   0.000000
   31       61.840872   0.000000
   32       62.223192   0.000000
   33       62.406809   0.000000
   34       64.470613   0.000000
   35       65.044938   0.000000
   36       66.822274   0.000000
   37       67.726601   0.000000
   38       67.738609   0.000000
   39       69.657698   0.000000
   40       70.186228   0.000000
 
  0.9090909E-01  0.9090909E-01  0.0000000E+00  0.4507889E-02
    1       -0.451250   1.000000
    2        3.150699   1.000000
    3        5.269252   1.000000
    4        5.342916   1.000000
    5        6.112068   1.000000
    6        6.149657   1.000000
    7        6.787254   1.000000
    8        6.938267   1.000000
    9        7.116590   1.000000
   10        7.381708   1.000650
   11        8.808743  -0.000000
   12       11.381285  -0.000000
   13       16.131485   0.000000
   14       29.027894   0.000000
   15       30.534490   0.000000
   16       33.222353   0.000000
   17       34.438620   0.000000
   18       36.175295   0.000000
   19       36.412482   0.000000
   20       38.191035   0.000000
   21       39.318174   0.000000
   22       43.868687   0.000000
   23       44.046485   0.000000
   24       45.047791   0.000000
   25       45.679157   0.000000
   26       46.119029   0.000000
   27       46.325520   0.000000
   28       52.282884   0.000000
   29       54.564188   0.000000
   30       55.185893   0.000000
   31       55.201502   0.000000
   32       58.774652   0.000000
   33       59.797382   0.000000
   34       61.276490   0.000000
   35       62.086743   0.000000
   36       62.417709   0.000000
   37       63.832239   0.000000
   38       68.489703   0.000000
   39       68.490399   0.000000
   40       70.048909   0.000000
 
  0.1818182E+00  0.9090909E-01  0.0000000E+00  0.9015778E-02
    1        0.769514   1.000000
    2        3.729338   1.000000
    3        4.438764   1.000000
    4        4.931689   1.000000
    5        5.785670   1.000000
    6        6.450061   1.000000
    7        6.640619   1.000000
    8        7.097710   1.000000
    9        7.577723   1.021002
   10        7.924577   0.424752
   11        8.807941  -0.000000
   12       13.358037  -0.000000
   13       16.324113   0.000000
   14       25.329578   0.000000
   15       28.048824   0.000000
   16       30.915460   0.000000
   17       33.136027   0.000000
   18       33.844538   0.000000
   19       37.117685   0.000000
   20       37.363227   0.000000
   21       38.506605   0.000000
   22       43.258381   0.000000
   23       43.277661   0.000000
   24       44.677212   0.000000
   25       47.709308   0.000000
   26       48.523814   0.000000
   27       50.611066   0.000000
   28       54.937496   0.000000
   29       56.935484   0.000000
   30       57.169016   0.000000
   31       57.779900   0.000000
   32       59.759868   0.000000
   33       60.154405   0.000000
   34       61.016246   0.000000
   35       61.795455   0.000000
   36       62.210109   0.000000
   37       64.508093   0.000000
   38       68.291496   0.000000
   39       69.049185   0.000000
   40       70.241511   0.000000
 
  0.2727273E+00  0.9090909E-01  0.0000000E+00  0.9015778E-02
    1        2.153680   1.000000
    2        3.628115   1.000000
    3        3.752816   1.000000
    4        5.040261   1.000000
    5        5.870850   1.000000
    6        6.052987   1.000000
    7        6.686055   1.000000
    8        7.504740   1.007742
    9        8.446591  -0.000454
   10        8.798191  -0.000000
   11        8.978440  -0.000000
   12       15.598182   0.000000
   13       16.630836   0.000000
   14       21.570814   0.000000
   15       26.258588   0.000000
   16       27.496456   0.000000
   17       30.525692   0.000000
   18       31.988202   0.000000
   19       36.439663   0.000000
   20       37.653138   0.000000
   21       38.802608   0.000000
   22       42.664113   0.000000
   23       42.820208   0.000000
   24       45.768300   0.000000
   25       49.790675   0.000000
   26       52.401068   0.000000
   27       53.891647   0.000000
   28       54.379076   0.000000
   29       55.999374   0.000000
   30       58.448675   0.000000
   31       59.278146   0.000000
   32       61.203956   0.000000
   33       61.899964   0.000000
   34       62.158288   0.000000
   35       63.178351   0.000000
   36       64.774157   0.000000
   37       67.505106   0.000000
   38       68.000187   0.000000
   39       68.506892   0.000000
   40       70.317702   0.000000
 
  0.3636364E+00  0.9090909E-01  0.0000000E+00  0.9015778E-02
    1        2.937529   1.000000
    2        3.301433   1.000000
    3        3.337678   1.000000
    4        5.520556   1.000000
    5        5.814674   1.000000
    6        6.281901   1.000000
    7        6.329510   1.000000
    8        8.530645  -0.000047
    9        8.781801  -0.000000
   10        9.050377  -0.000000
   11       10.308155  -0.000000
   12       15.714971   0.000000
   13       17.940885   0.000000
   14       20.082587   0.000000
   15       24.446573   0.000000
   16       24.843610   0.000000
   17       27.244217   0.000000
   18       31.056314   0.000000
   19       35.465219   0.000000
   20       37.133002   0.000000
   21       40.039877   0.000000
   22       42.991099   0.000000
   23       43.876993   0.000000
   24       45.300245   0.000000
   25       50.859680   0.000000
   26       52.546806   0.000000
   27       54.418362   0.000000
   28       56.153804   0.000000
   29       57.937715   0.000000
   30       59.619306   0.000000
   31       60.524913   0.000000
   32       61.897411   0.000000
   33       62.469993   0.000000
   34       64.816372   0.000000
   35       65.867074   0.000000
   36       66.443693   0.000000
   37       66.608950   0.000000
   38       68.905422   0.000000
   39       69.542691   0.000000
   40       70.478905   0.000000
 
  0.4545455E+00  0.9090909E-01  0.0000000E+00  0.4507889E-02
    1        3.001218   1.000000
    2        3.199489   1.000000
    3        3.243859   1.000000
    4        5.741063   1.000000
    5        5.946790   1.000000
    6        6.182305   1.000000
    7        6.402971   1.000000
    8        8.772836  -0.000000
    9        9.113465  -0.000000
   10        9.140445  -0.000000
   11       11.609612  -0.000000
   12       13.950808   0.000000
   13       19.523333   0.000000
   14       20.730548   0.000000
   15       22.622916   0.000000
   16       23.983830   0.000000
   17       25.743541   0.000000
   18       30.710755   0.000000
   19       35.049176   0.000000
   20       36.978424   0.000000
   21       40.251656   0.000000
   22       43.842765   0.000000
   23       44.175640   0.000000
   24       45.510779   0.000000
   25       48.633483   0.000000
   26       54.042596   0.000000
   27       54.530762   0.000000
   28       56.932228   0.000000
   29       59.564990   0.000000
   30       59.649037   0.000000
   31       62.538433   0.000000
   32       62.585955   0.000000
   33       62.683733   0.000000
   34       63.387330   0.000000
   35       65.810231   0.000000
   36       68.428510   0.000000
   37       68.437957   0.000000
   38       68.488974   0.000000
   39       68.676149   0.000000
   40       71.574013   0.000000
 
  0.1818182E+00  0.1818182E+00  0.0000000E+00  0.4507889E-02
    1        2.080266   1.000000
    2        3.916431   1.000000
    3        4.205087   1.000000
    4        4.432086   1.000000
    5        5.861032   1.000000
    6        5.953917   1.000000
    7        6.845205   1.000000
    8        6.912830   1.000000
    9        8.420570  -0.000845
   10        8.687366  -0.000000
   11        9.053911  -0.000000
   12       15.325907   0.000000
   13       16.802005   0.000000
   14       23.255043   0.000000
   15       24.162339   0.000000
   16       28.964293   0.000000
   17       30.625010   0.000000
   18       32.944590   0.000000
   19       33.672491   0.000000
   20       38.327198   0.000000
   21       40.117813   0.000000
   22       44.306919   0.000000
   23       44.626831   0.000000
   24       46.729377   0.000000
   25       47.575204   0.000000
   26       49.701181   0.000000
   27       50.964165   0.000000
   28       55.825683   0.000000
   29       56.891183   0.000000
   30       57.970037   0.000000
   31       58.154069   0.000000
   32       61.504459   0.000000
   33       61.515917   0.000000
   34       63.655356   0.000000
   35       64.185312   0.000000
   36       64.654809   0.000000
   37       64.931493   0.000000
   38       67.920523   0.000000
   39       68.413162   0.000000
   40       71.350467   0.000000
 
  0.2727273E+00  0.1818182E+00  0.0000000E+00  0.9015778E-02
    1        3.290196   1.000000
    2        3.571934   1.000000
    3        3.876988   1.000000
    4        4.693553   1.000000
    5        5.671997   1.000000
    6        6.172330   1.000000
    7        6.399857   1.000000
    8        7.548672   1.014810
    9        8.582205  -0.000010
   10        8.979095  -0.000000
   11       10.465876  -0.000000
   12       17.293517   0.000000
   13       17.600961   0.000000
   14       20.343409   0.000000
   15       22.444840   0.000000
   16       26.349740   0.000000
   17       28.921453   0.000000
   18       29.394241   0.000000
   19       32.336143   0.000000
   20       40.522621   0.000000
   21       40.635324   0.000000
   22       44.215444   0.000000
   23       46.312673   0.000000
   24       47.747056   0.000000
   25       48.825443   0.000000
   26       50.749304   0.000000
   27       52.185757   0.000000
   28       53.688268   0.000000
   29       56.878368   0.000000
   30       57.970047   0.000000
   31       60.017203   0.000000
   32       61.808672   0.000000
   33       62.853910   0.000000
   34       64.404380   0.000000
   35       66.147747   0.000000
   36       66.455803   0.000000
   37       67.942310   0.000000
   38       68.699187   0.000000
   39       70.046309   0.000000
   40       71.602078   0.000000
 
  0.3636364E+00  0.1818182E+00  0.0000000E+00  0.9015778E-02
    1        3.410093   1.000000
    2        3.555918   1.000000
    3        3.735663   1.000000
    4        5.266947   1.000000
    5        5.660655   1.000000
    6        5.967119   1.000000
    7        6.469768   1.000000
    8        8.337607  -0.004703
    9        8.523258  -0.000058
   10        8.990891  -0.000000
   11       12.182445  -0.000000
   12       15.436977   0.000000
   13       19.918205   0.000000
   14       20.624264   0.000000
   15       21.586766   0.000000
   16       23.660509   0.000000
   17       26.385780   0.000000
   18       28.253717   0.000000
   19       31.669321   0.000000
   20       40.604166   0.000000
   21       42.501607   0.000000
   22       44.511407   0.000000
   23       46.009889   0.000000
   24       47.041005   0.000000
   25       50.991303   0.000000
   26       51.307739   0.000000
   27       53.115071   0.000000
   28       53.815190   0.000000
   29       57.738051   0.000000
   30       58.684773   0.000000
   31       59.374629   0.000000
   32       62.089418   0.000000
   33       62.815288   0.000000
   34       62.880830   0.000000
   35       67.217719   0.000000
   36       67.889202   0.000000
   37       69.477794   0.000000
   38       69.745288   0.000000
   39       70.316080   0.000000
   40       70.634181   0.000000
 
  0.2727273E+00  0.2727273E+00  0.0000000E+00  0.4507889E-02
    1        3.556586   1.000000
    2        4.023180   1.000000
    3        4.379361   1.000000
    4        4.388258   1.000000
    5        5.499138   1.000000
    6        5.962744   1.000000
    7        6.513994   1.000000
    8        7.843336   0.753836
    9        8.392819  -0.001571
   10        8.952778  -0.000000
   11       12.333399  -0.000000
   12       17.627256   0.000000
   13       18.208154   0.000000
   14       19.959160   0.000000
   15       21.437101   0.000000
   16       25.609257   0.000000
   17       25.889888   0.000000
   18       28.142373   0.000000
   19       29.038078   0.000000
   20       42.187895   0.000000
   21       43.159061   0.000000
   22       46.955614   0.000000
   23       47.997114   0.000000
   24       48.470012   0.000000
   25       48.716110   0.000000
   26       49.220525   0.000000
   27       51.991960   0.000000
   28       54.520214   0.000000
   29       54.799509   0.000000
   30       58.373945   0.000000
   31       58.988113   0.000000
   32       61.652121   0.000000
   33       62.781610   0.000000
   34       62.963760   0.000000
   35       67.155269   0.000000
   36       68.136848   0.000000
   37       68.253815   0.000000
   38       69.641265   0.000000
   39       70.581740   0.000000
   40       71.867897   0.000000
 
  0.3636364E+00  0.2727273E+00  0.0000000E+00  0.4507889E-02
    1        3.582908   1.000000
    2        4.146993   1.000000
    3        4.236775   1.000000
    4        4.778299   1.000000
    5        5.576754   1.000000
    6        5.628528   1.000000
    7        6.675699   1.000000
    8        8.261013  -0.015551
    9        8.320835  -0.006322
   10        8.603634  -0.000005
   11       14.162776   0.000000
   12       15.608338   0.000000
   13       17.824734   0.000000
   14       22.014212   0.000000
   15       22.409845   0.000000
   16       23.487881   0.000000
   17       25.494428   0.000000
   18       26.438615   0.000000
   19       28.414256   0.000000
   20       42.571128   0.000000
   21       45.541721   0.000000
   22       46.755193   0.000000
   23       47.155856   0.000000
   24       47.995946   0.000000
   25       49.552555   0.000000
   26       50.404196   0.000000
   27       53.723375   0.000000
   28       53.883446   0.000000
   29       54.237929   0.000000
   30       57.643528   0.000000
   31       58.873109   0.000000
   32       59.550357   0.000000
   33       62.467302   0.000000
   34       62.664405   0.000000
   35       67.144576   0.000000
   36       68.357921   0.000000
   37       69.999292   0.000000
   38       70.380020   0.000000
   39       70.625434   0.000000
   40       70.889782   0.000000
 
  0.0000000E+00  0.0000000E+00  0.9090909E-01  0.1502630E-02
    1       -1.396316   1.000000
    2        2.393315   1.000000
    3        5.410562   1.000000
    4        6.118986   1.000000
    5        6.119051   1.000000
    6        6.462062   1.000000
    7        6.462140   1.000000
    8        6.918550   1.000000
    9        7.591049   1.024069
   10        7.591069   1.024073
   11        8.745936  -0.000000
   12        8.745956  -0.000000
   13       16.438506   0.000000
   14       31.421789   0.000000
   15       32.461361   0.000000
   16       35.098079   0.000000
   17       38.273612   0.000000
   18       38.273671   0.000000
   19       38.968676   0.000000
   20       38.968845   0.000000
   21       40.263817   0.000000
   22       41.485323   0.000000
   23       41.485340   0.000000
   24       42.886232   0.000000
   25       45.264783   0.000000
   26       45.264800   0.000000
   27       46.919714   0.000000
   28       50.113517   0.000000
   29       50.113914   0.000000
   30       52.196069   0.000000
   31       52.196229   0.000000
   32       54.359446   0.000000
   33       61.325759   0.000000
   34       63.530890   0.000000
   35       63.531738   0.000000
   36       63.732051   0.000000
   37       65.437988   0.000000
   38       65.438616   0.000000
   39       66.019130   0.000000
   40       67.727361   0.000000
 
  0.9090909E-01  0.7819538E-17  0.9090909E-01  0.9015778E-02
    1       -1.044838   1.000000
    2        2.664783   1.000000
    3        5.431893   1.000000
    4        6.024894   1.000000
    5        6.033448   1.000000
    6        6.332532   1.000000
    7        6.408250   1.000000
    8        6.662328   1.000000
    9        7.432690   1.002028
   10        7.472072   1.004392
   11        8.781097  -0.000000
   12        9.805005  -0.000000
   13       16.494996   0.000000
   14       30.905820   0.000000
   15       32.199416   0.000000
   16       33.744372   0.000000
   17       35.372695   0.000000
   18       36.668902   0.000000
   19       38.100976   0.000000
   20       39.930209   0.000000
   21       40.731118   0.000000
   22       42.147127   0.000000
   23       42.336473   0.000000
   24       42.987872   0.000000
   25       46.421591   0.000000
   26       46.756321   0.000000
   27       47.913043   0.000000
   28       48.064229   0.000000
   29       50.842524   0.000000
   30       53.539064   0.000000
   31       54.569994   0.000000
   32       56.250024   0.000000
   33       59.916048   0.000000
   34       62.414451   0.000000
   35       63.269918   0.000000
   36       63.412592   0.000000
   37       64.611649   0.000000
   38       66.364031   0.000000
   39       67.612375   0.000000
   40       67.799471   0.000000
 
  0.1818182E+00  0.2395890E-18  0.9090909E-01  0.9015778E-02
    1       -0.059720   1.000000
    2        3.299018   1.000000
    3        4.939775   1.000000
    4        5.250286   1.000000
    5        5.829617   1.000000
    6        6.417404   1.000000
    7        6.886719   1.000000
    8        7.108815   1.000000
    9        7.153388   1.000001
   10        7.288092   1.000055
   11        8.836471  -0.000000
   12       11.565873  -0.000000
   13       16.706260   0.000000
   14       27.375196   0.000000
   15       31.838392   0.000000
   16       32.400608   0.000000
   17       33.209859   0.000000
   18       33.237248   0.000000
   19       37.834187   0.000000
   20       39.255939   0.000000
   21       39.701082   0.000000
   22       40.460984   0.000000
   23       43.535111   0.000000
   24       44.860148   0.000000
   25       47.332332   0.000000
   26       47.932432   0.000000
   27       49.250422   0.000000
   28       51.859787   0.000000
   29       53.849831   0.000000
   30       56.435270   0.000000
   31       57.283407   0.000000
   32       58.251544   0.000000
   33       59.214242   0.000000
   34       60.708140   0.000000
   35       61.695964   0.000000
   36       62.706879   0.000000
   37       64.689388   0.000000
   38       67.387030   0.000000
   39       68.054237   0.000000
   40       69.624803   0.000000
 
  0.2727273E+00  0.2993989E-16  0.9090909E-01  0.9015778E-02
    1        1.299671   1.000000
    2        3.572344   1.000000
    3        4.074214   1.000000
    4        5.196377   1.000000
    5        5.634611   1.000000
    6        6.504049   1.000000
    7        6.802714   1.000000
    8        7.391536   1.000819
    9        7.818713   0.835394
   10        8.003163   0.139814
   11        8.868782  -0.000000
   12       13.414329   0.000000
   13       17.202936   0.000000
   14       23.319233   0.000000
   15       28.685550   0.000000
   16       29.860972   0.000000
   17       31.201277   0.000000
   18       33.445646   0.000000
   19       36.321960   0.000000
   20       38.577206   0.000000
   21       38.642913   0.000000
   22       41.099126   0.000000
   23       41.736021   0.000000
   24       45.203803   0.000000
   25       50.749565   0.000000
   26       51.894840   0.000000
   27       52.706980   0.000000
   28       52.930653   0.000000
   29       56.742055   0.000000
   30       57.029519   0.000000
   31       58.559920   0.000000
   32       60.154024   0.000000
   33       60.407497   0.000000
   34       60.429458   0.000000
   35       62.604700   0.000000
   36       63.959147   0.000000
   37       65.439549   0.000000
   38       68.027512   0.000000
   39       68.029030   0.000000
   40       69.620834   0.000000
 
  0.3636364E+00  0.3188461E-16  0.9090909E-01  0.9015778E-02
    1        2.402376   1.000000
    2        3.221916   1.000000
    3        3.587854   1.000000
    4        5.162284   1.000000
    5        6.131020   1.000000
    6        6.352103   1.000000
    7        6.536298   1.000000
    8        8.675865  -0.000000
    9        8.684059  -0.000000
   10        8.725464  -0.000000
   11        8.931084  -0.000000
   12       14.874814   0.000000
   13       17.780708   0.000000
   14       20.431767   0.000000
   15       25.366518   0.000000
   16       27.910156   0.000000
   17       28.510363   0.000000
   18       32.733133   0.000000
   19       35.318489   0.000000
   20       37.340220   0.000000
   21       39.574634   0.000000
   22       40.467658   0.000000
   23       42.475904   0.000000
   24       45.532728   0.000000
   25       50.853527   0.000000
   26       53.981399   0.000000
   27       54.883758   0.000000
   28       56.339278   0.000000
   29       57.226434   0.000000
   30       58.965401   0.000000
   31       59.974631   0.000000
   32       61.028625   0.000000
   33       61.850795   0.000000
   34       62.300098   0.000000
   35       63.694650   0.000000
   36       65.223536   0.000000
   37       67.375370   0.000000
   38       68.105739   0.000000
   39       69.340668   0.000000
   40       69.657019   0.000000
 
  0.4545455E+00  0.4618542E-16  0.9090909E-01  0.9015778E-02
    1        2.725677   1.000000
    2        2.889977   1.000000
    3        3.456003   1.000000
    4        5.238570   1.000000
    5        6.342757   1.000000
    6        6.384193   1.000000
    7        6.710560   1.000000
    8        8.827704  -0.000000
    9        9.221166  -0.000000
   10        9.343199  -0.000000
   11       10.459953  -0.000000
   12       14.031237   0.000000
   13       18.545181   0.000000
   14       20.314677   0.000000
   15       23.177636   0.000000
   16       25.758587   0.000000
   17       26.813880   0.000000
   18       32.121524   0.000000
   19       34.974333   0.000000
   20       36.459655   0.000000
   21       39.975189   0.000000