 vasp.6.2.0 18Jan21 (build Mar 17 2021 09:06:54) complex                        
  
 executed on             LinuxIFC date 2021.09.09  12:02:49
 serial version


--------------------------------------------------------------------------------------------------------


 INCAR:
   ENCUT = 280.000000
   SIGMA = 0.200000
   EDIFF = 1.00e-06
   GGA = PE
   PREC = normal
   IBRION = 1
   ICHARG = 1
   ISIF = 2
   ISMEAR = 1
   KPAR = 1
   NBANDS = 40
   NSW = 0
   NCORE = 1
   LCHARG = .TRUE.

 POTCAR:    PAW_PBE Fe 06Sep2000                  
 POTCAR:    PAW_PBE Fe 06Sep2000                  
   SHA256 =  cd5a22d9368cc8b5cc476bea79732366149640da08ac9009b0e1b7fc627eea28 Fe/POTCAR             
   COPYR  = (c) Copyright 06Sep2000 Georg Kresse                                                    
   COPYR  = This file is part of the software VASP. Any use, copying, and all other rights are regul
   COPYR  = If you do not have a valid VASP license, you may not use, copy or distribute this file. 
   VRHFIN =Fe:  d7 s1                                                                               
   LEXCH  = PE                                                                                      
   EATOM  =   594.3153 eV,   43.6809 Ry                                                             
                                                                                                    
   TITEL  = PAW_PBE Fe 06Sep2000                                                                    
   LULTRA =        F    use ultrasoft PP ?                                                          
   IUNSCR =        1    unscreen: 0-lin 1-nonlin 2-no                                               
   RPACOR =    2.000    partial core radius                                                         
   POMASS =   55.847; ZVAL   =    8.000    mass and valenz                                          
   RCORE  =    2.300    outmost cutoff radius                                                       
   RWIGS  =    2.460; RWIGS  =    1.302    wigner-seitz radius (au A)                               
   ENMAX  =  267.882; ENMIN  =  200.911 eV                                                          
   RCLOC  =    1.701    cutoff for local pot                                                        
   LCOR   =        T    correct aug charges                                                         
   LPAW   =        T    paw PP                                                                      
   EAUG   =  511.368                                                                                
   DEXC   =    0.000                                                                                
   RMAX   =    2.356    core radius for proj-oper                                                   
   RAUG   =    1.300    factor for augmentation sphere                                              
   RDEP   =    2.442    radius for radial grids                                                     
   RDEPT  =    1.890    core radius for aug-charge                                                  
                                                                                                    
   Atomic configuration                                                                             
    9 entries                                                                                       
     n  l   j            E        occ.                                                              
     1  0  0.50     -6993.8440   2.0000                                                             
     2  0  0.50      -814.6047   2.0000                                                             
     2  1  1.50      -693.3689   6.0000                                                             
     3  0  0.50       -89.4732   2.0000                                                             
     3  1  1.50       -55.6373   6.0000                                                             
     3  2  2.50        -3.8151   7.0000                                                             
     4  0  0.50        -4.2551   1.0000                                                             
     4  1  1.50        -3.4015   0.0000                                                             
     4  3  2.50        -1.3606   0.0000                                                             
   Description                                                                                      
     l       E           TYP  RCUT    TYP  RCUT                                                     
     2     -3.8151135     23  2.300                                                                 
     2     -5.1756961     23  2.300                                                                 
     0     -4.2550963     23  2.300                                                                 
     0      7.2035603     23  2.300                                                                 
     1     -2.7211652     23  2.300                                                                 
     1     18.4316424     23  2.300                                                                 
  local pseudopotential read in
  partial core-charges read in
  partial kinetic energy density read in
  atomic valenz-charges read in
  non local Contribution for L=           2  read in
    real space projection operators read in
  non local Contribution for L=           2  read in
    real space projection operators read in
  non local Contribution for L=           0  read in
    real space projection operators read in
  non local Contribution for L=           0  read in
    real space projection operators read in
  non local Contribution for L=           1  read in
    real space projection operators read in
  non local Contribution for L=           1  read in
    real space projection operators read in
    PAW grid and wavefunctions read in
 
   number of l-projection  operators is LMAX  =           6
   number of lm-projection operators is LMMAX =          18
 
  PAW_PBE Fe 06Sep2000                  :
 energy of atom  1       EATOM= -594.3153
 kinetic energy error for atom=    0.0278 (will be added to EATOM!!)
 
 
 POSCAR: Fe
  positions in cartesian coordinates
  No initial velocities read in
 exchange correlation table for  LEXCH =        8
   RHO(1)=    0.500       N(1)  =     2000
   RHO(2)=  100.500       N(2)  =     4000
 


--------------------------------------------------------------------------------------------------------


 ion  position               nearest neighbor table
   1  0.000  0.000  0.000-   2 2.43   2 2.43   2 2.43   2 2.43   2 2.43   2 2.43
   2  0.333  0.667  0.500-   1 2.43   1 2.43   1 2.43   1 2.43   1 2.43   1 2.43
 
  LATTYP: Found a hexagonal cell.
 ALAT       =     2.3067000000
 C/A-ratio  =     1.7596566524
  
  Lattice vectors:
  
 A1 = (   2.3067000000,   0.0000000000,   0.0000000000)
 A2 = (  -1.1533500000,   1.9976607989,   0.0000000000)
 A3 = (   0.0000000000,   0.0000000000,   4.0590000000)


Analysis of symmetry for initial positions (statically):
=====================================================================
 Subroutine PRICEL returns:
 Original cell was already a primitive cell.
 

 Routine SETGRP: Setting up the symmetry group for a 
 hexagonal supercell.


 Subroutine GETGRP returns: Found 24 space group operations
 (whereof 12 operations were pure point group operations)
 out of a pool of 24 trial point group operations.


The static configuration has the point symmetry D_3h.
 The point group associated with its full space group is D_6h.


Analysis of symmetry for dynamics (positions and initial velocities):
=====================================================================
 Subroutine PRICEL returns:
 Original cell was already a primitive cell.
 

 Routine SETGRP: Setting up the symmetry group for a 
 hexagonal supercell.


 Subroutine GETGRP returns: Found 24 space group operations
 (whereof 12 operations were pure point group operations)
 out of a pool of 24 trial point group operations.


The dynamic configuration has the point symmetry D_3h.
 The point group associated with its full space group is D_6h.


 Subroutine INISYM returns: Found 24 space group operations
 (whereof 12 operations are pure point group operations),
 and found     1 'primitive' translations


----------------------------------------------------------------------------------------

                                     Primitive cell                                     

  volume of cell :      18.7039

  direct lattice vectors                    reciprocal lattice vectors
     2.306700000  0.000000000  0.000000000     0.433519747  0.250292743  0.000000000
    -1.153350000  1.997660799  0.000000000     0.000000000  0.500585485  0.000000000
     0.000000000  0.000000000  4.059000000     0.000000000  0.000000000  0.246366100

  length of vectors
     2.306700000  2.306700000  4.059000000     0.500585485  0.500585485  0.246366100

  position of ions in fractional coordinates (direct lattice)
     0.000000000  0.000000000  0.000000000
     0.333333333  0.666666667  0.500000000

  ion indices of the primitive-cell ions
   primitive index   ion index
                 1           1
                 2           2

----------------------------------------------------------------------------------------

 
 
 KPOINTS: KPOINTS created by Atomic Simulation Env

Automatic generation of k-mesh.
 Grid dimensions read from file:
 generate k-points for:   11   11   11

 Generating k-lattice:

  Cartesian coordinates                     Fractional coordinates (reciprocal lattice)
     0.039410886  0.022753886  0.000000000     0.090909091 -0.000000000  0.000000000
     0.000000000  0.045507771  0.000000000     0.000000000  0.090909091  0.000000000
     0.000000000  0.000000000  0.022396918     0.000000000  0.000000000  0.090909091

  Length of vectors
     0.045507771  0.045507771  0.022396918

  Shift w.r.t. Gamma in fractional coordinates (k-lattice)
     0.000000000  0.000000000  0.000000000

 
 Subroutine IBZKPT returns following result:
 ===========================================
 
 Found     96 irreducible k-points:
 
 Following reciprocal coordinates:
            Coordinates               Weight
  0.000000  0.000000  0.000000      1.000000
  0.090909  0.000000  0.000000      6.000000
  0.181818  0.000000  0.000000      6.000000
  0.272727  0.000000  0.000000      6.000000
  0.363636  0.000000  0.000000      6.000000
  0.454545  0.000000  0.000000      6.000000
  0.090909  0.090909  0.000000      6.000000
  0.181818  0.090909  0.000000     12.000000
  0.272727  0.090909  0.000000     12.000000
  0.363636  0.090909  0.000000     12.000000
  0.454545  0.090909  0.000000      6.000000
  0.181818  0.181818  0.000000      6.000000
  0.272727  0.181818  0.000000     12.000000
  0.363636  0.181818  0.000000     12.000000
  0.272727  0.272727  0.000000      6.000000
  0.363636  0.272727  0.000000      6.000000
  0.000000  0.000000  0.090909      2.000000
  0.090909  0.000000  0.090909     12.000000
  0.181818  0.000000  0.090909     12.000000
  0.272727  0.000000  0.090909     12.000000
  0.363636  0.000000  0.090909     12.000000
  0.454545  0.000000  0.090909     12.000000
  0.090909  0.090909  0.090909     12.000000
  0.181818  0.090909  0.090909     24.000000
  0.272727  0.090909  0.090909     24.000000
  0.363636  0.090909  0.090909     24.000000
  0.454545  0.090909  0.090909     12.000000
  0.181818  0.181818  0.090909     12.000000
  0.272727  0.181818  0.090909     24.000000
  0.363636  0.181818  0.090909     24.000000
  0.272727  0.272727  0.090909     12.000000
  0.363636  0.272727  0.090909     12.000000
  0.000000  0.000000  0.181818      2.000000
  0.090909  0.000000  0.181818     12.000000
  0.181818  0.000000  0.181818     12.000000
  0.272727  0.000000  0.181818     12.000000
  0.363636  0.000000  0.181818     12.000000
  0.454545  0.000000  0.181818     12.000000
  0.090909  0.090909  0.181818     12.000000
  0.181818  0.090909  0.181818     24.000000
  0.272727  0.090909  0.181818     24.000000
  0.363636  0.090909  0.181818     24.000000
  0.454545  0.090909  0.181818     12.000000
  0.181818  0.181818  0.181818     12.000000
  0.272727  0.181818  0.181818     24.000000
  0.363636  0.181818  0.181818     24.000000
  0.272727  0.272727  0.181818     12.000000
  0.363636  0.272727  0.181818     12.000000
  0.000000  0.000000  0.272727      2.000000
  0.090909  0.000000  0.272727     12.000000
  0.181818  0.000000  0.272727     12.000000
  0.272727  0.000000  0.272727     12.000000
  0.363636  0.000000  0.272727     12.000000
  0.454545  0.000000  0.272727     12.000000
  0.090909  0.090909  0.272727     12.000000
  0.181818  0.090909  0.272727     24.000000
  0.272727  0.090909  0.272727     24.000000
  0.363636  0.090909  0.272727     24.000000
  0.454545  0.090909  0.272727     12.000000
  0.181818  0.181818  0.272727     12.000000
  0.272727  0.181818  0.272727     24.000000
  0.363636  0.181818  0.272727     24.000000
  0.272727  0.272727  0.272727     12.000000
  0.363636  0.272727  0.272727     12.000000
  0.000000  0.000000  0.363636      2.000000
  0.090909  0.000000  0.363636     12.000000
  0.181818  0.000000  0.363636     12.000000
  0.272727  0.000000  0.363636     12.000000
  0.363636  0.000000  0.363636     12.000000
  0.454545  0.000000  0.363636     12.000000
  0.090909  0.090909  0.363636     12.000000
  0.181818  0.090909  0.363636     24.000000
  0.272727  0.090909  0.363636     24.000000
  0.363636  0.090909  0.363636     24.000000
  0.454545  0.090909  0.363636     12.000000
  0.181818  0.181818  0.363636     12.000000
  0.272727  0.181818  0.363636     24.000000
  0.363636  0.181818  0.363636     24.000000
  0.272727  0.272727  0.363636     12.000000
  0.363636  0.272727  0.363636     12.000000
  0.000000  0.000000  0.454545      2.000000
  0.090909  0.000000  0.454545     12.000000
  0.181818  0.000000  0.454545     12.000000
  0.272727  0.000000  0.454545     12.000000
  0.363636  0.000000  0.454545     12.000000
  0.454545  0.000000  0.454545     12.000000
  0.090909  0.090909  0.454545     12.000000
  0.181818  0.090909  0.454545     24.000000
  0.272727  0.090909  0.454545     24.000000
  0.363636  0.090909  0.454545     24.000000
  0.454545  0.090909  0.454545     12.000000
  0.181818  0.181818  0.454545     12.000000
  0.272727  0.181818  0.454545     24.000000
  0.363636  0.181818  0.454545     24.000000
  0.272727  0.272727  0.454545     12.000000
  0.363636  0.272727  0.454545     12.000000
 
 Following cartesian coordinates:
            Coordinates               Weight
  0.000000  0.000000  0.000000      1.000000
  0.039411  0.022754  0.000000      6.000000
  0.078822  0.045508  0.000000      6.000000
  0.118233  0.068262  0.000000      6.000000
  0.157644  0.091016  0.000000      6.000000
  0.197054  0.113769  0.000000      6.000000
  0.039411  0.068262  0.000000      6.000000
  0.078822  0.091016  0.000000     12.000000
  0.118233  0.113769  0.000000     12.000000
  0.157644  0.136523  0.000000     12.000000
  0.197054  0.159277  0.000000      6.000000
  0.078822  0.136523  0.000000      6.000000
  0.118233  0.159277  0.000000     12.000000
  0.157644  0.182031  0.000000     12.000000
  0.118233  0.204785  0.000000      6.000000
  0.157644  0.227539  0.000000      6.000000
  0.000000  0.000000  0.022397      2.000000
  0.039411  0.022754  0.022397     12.000000
  0.078822  0.045508  0.022397     12.000000
  0.118233  0.068262  0.022397     12.000000
  0.157644  0.091016  0.022397     12.000000
  0.197054  0.113769  0.022397     12.000000
  0.039411  0.068262  0.022397     12.000000
  0.078822  0.091016  0.022397     24.000000
  0.118233  0.113769  0.022397     24.000000
  0.157644  0.136523  0.022397     24.000000
  0.197054  0.159277  0.022397     12.000000
  0.078822  0.136523  0.022397     12.000000
  0.118233  0.159277  0.022397     24.000000
  0.157644  0.182031  0.022397     24.000000
  0.118233  0.204785  0.022397     12.000000
  0.157644  0.227539  0.022397     12.000000
  0.000000  0.000000  0.044794      2.000000
  0.039411  0.022754  0.044794     12.000000
  0.078822  0.045508  0.044794     12.000000
  0.118233  0.068262  0.044794     12.000000
  0.157644  0.091016  0.044794     12.000000
  0.197054  0.113769  0.044794     12.000000
  0.039411  0.068262  0.044794     12.000000
  0.078822  0.091016  0.044794     24.000000
  0.118233  0.113769  0.044794     24.000000
  0.157644  0.136523  0.044794     24.000000
  0.197054  0.159277  0.044794     12.000000
  0.078822  0.136523  0.044794     12.000000
  0.118233  0.159277  0.044794     24.000000
  0.157644  0.182031  0.044794     24.000000
  0.118233  0.204785  0.044794     12.000000
  0.157644  0.227539  0.044794     12.000000
  0.000000  0.000000  0.067191      2.000000
  0.039411  0.022754  0.067191     12.000000
  0.078822  0.045508  0.067191     12.000000
  0.118233  0.068262  0.067191     12.000000
  0.157644  0.091016  0.067191     12.000000
  0.197054  0.113769  0.067191     12.000000
  0.039411  0.068262  0.067191     12.000000
  0.078822  0.091016  0.067191     24.000000
  0.118233  0.113769  0.067191     24.000000
  0.157644  0.136523  0.067191     24.000000
  0.197054  0.159277  0.067191     12.000000
  0.078822  0.136523  0.067191     12.000000
  0.118233  0.159277  0.067191     24.000000
  0.157644  0.182031  0.067191     24.000000
  0.118233  0.204785  0.067191     12.000000
  0.157644  0.227539  0.067191     12.000000
  0.000000  0.000000  0.089588      2.000000
  0.039411  0.022754  0.089588     12.000000
  0.078822  0.045508  0.089588     12.000000
  0.118233  0.068262  0.089588     12.000000
  0.157644  0.091016  0.089588     12.000000
  0.197054  0.113769  0.089588     12.000000
  0.039411  0.068262  0.089588     12.000000
  0.078822  0.091016  0.089588     24.000000
  0.118233  0.113769  0.089588     24.000000
  0.157644  0.136523  0.089588     24.000000
  0.197054  0.159277  0.089588     12.000000
  0.078822  0.136523  0.089588     12.000000
  0.118233  0.159277  0.089588     24.000000
  0.157644  0.182031  0.089588     24.000000
  0.118233  0.204785  0.089588     12.000000
  0.157644  0.227539  0.089588     12.000000
  0.000000  0.000000  0.111985      2.000000
  0.039411  0.022754  0.111985     12.000000
  0.078822  0.045508  0.111985     12.000000
  0.118233  0.068262  0.111985     12.000000
  0.157644  0.091016  0.111985     12.000000
  0.197054  0.113769  0.111985     12.000000
  0.039411  0.068262  0.111985     12.000000
  0.078822  0.091016  0.111985     24.000000
  0.118233  0.113769  0.111985     24.000000
  0.157644  0.136523  0.111985     24.000000
  0.197054  0.159277  0.111985     12.000000
  0.078822  0.136523  0.111985     12.000000
  0.118233  0.159277  0.111985     24.000000
  0.157644  0.182031  0.111985     24.000000
  0.118233  0.204785  0.111985     12.000000
  0.157644  0.227539  0.111985     12.000000
 


--------------------------------------------------------------------------------------------------------




 Dimension of arrays:
   k-points           NKPTS =     96   k-points in BZ     NKDIM =     96   number of bands    NBANDS=     40
   number of dos      NEDOS =    301   number of ions     NIONS =      2
   non local maximal  LDIM  =      6   non local SUM 2l+1 LMDIM =     18
   total plane-waves  NPLWV =   1800
   max r-space proj   IRMAX =      1   max aug-charges    IRDMAX=   3627
   dimension x,y,z NGX =    10 NGY =   10 NGZ =   18
   dimension x,y,z NGXF=    20 NGYF=   20 NGZF=   36
   support grid    NGXF=    20 NGYF=   20 NGZF=   36
   ions per type =               2
   NGX,Y,Z   is equivalent  to a cutoff of   7.21,  7.21,  7.37 a.u.
   NGXF,Y,Z  is equivalent  to a cutoff of  14.41, 14.41, 14.74 a.u.

 SYSTEM =  unknown system                          
 POSCAR =  Fe                                      

 Startparameter for this run:
   NWRITE =      2    write-flag & timer
   PREC   = normal    normal or accurate (medium, high low for compatibility)
   ISTART =      0    job   : 0-new  1-cont  2-samecut
   ICHARG =      1    charge: 1-file 2-atom 10-const
   ISPIN  =      1    spin polarized calculation?
   LNONCOLLINEAR =      F non collinear calculations
   LSORBIT =      F    spin-orbit coupling
   INIWAV =      1    electr: 0-lowe 1-rand  2-diag
   LASPH  =      F    aspherical Exc in radial PAW
   METAGGA=      F    non-selfconsistent MetaGGA calc.

 Electronic Relaxation 1
   ENCUT  =  280.0 eV  20.58 Ry    4.54 a.u.   3.15  3.15  5.54*2*pi/ulx,y,z
   ENINI  =  280.0     initial cutoff
   ENAUG  =  511.4 eV  augmentation charge cutoff
   NELM   =     60;   NELMIN=  2; NELMDL= -5     # of ELM steps 
   EDIFF  = 0.1E-05   stopping-criterion for ELM
   LREAL  =      F    real-space projection
   NLSPLINE    = F    spline interpolate recip. space projectors
   LCOMPAT=      F    compatible to vasp.4.4
   GGA_COMPAT  = T    GGA compatible to vasp.4.4-vasp.4.6
   LMAXPAW     = -100 max onsite density
   LMAXMIX     =    2 max onsite mixed and CHGCAR
   VOSKOWN=      0    Vosko Wilk Nusair interpolation
   ROPT   =    0.00000
 Ionic relaxation
   EDIFFG = 0.1E-04   stopping-criterion for IOM
   NSW    =      0    number of steps for IOM
   NBLOCK =      1;   KBLOCK =      1    inner block; outer block 
   IBRION =     -1    ionic relax: 0-MD 1-quasi-New 2-CG
   NFREE  =      0    steps in history (QN), initial steepest desc. (CG)
   ISIF   =      2    stress and relaxation
   IWAVPR =      0    prediction:  0-non 1-charg 2-wave 3-comb
   ISYM   =      2    0-nonsym 1-usesym 2-fastsym
   LCORR  =      T    Harris-Foulkes like correction to forces

   POTIM  = 0.5000    time-step for ionic-motion
   TEIN   =    0.0    initial temperature
   TEBEG  =    0.0;   TEEND  =   0.0 temperature during run
   SMASS  =  -3.00    Nose mass-parameter (am)
   estimated Nose-frequenzy (Omega)   =  0.10E-29 period in steps = 0.13E+47 mass=  -0.122E-27a.u.
   SCALEE = 1.0000    scale energy and forces
   NPACO  =    256;   APACO  = 16.0  distance and # of slots for P.C.
   PSTRESS=    0.0 pullay stress

  Mass of Ions in am
   POMASS =  55.85
  Ionic Valenz
   ZVAL   =   8.00
  Atomic Wigner-Seitz radii
   RWIGS  =  -1.00
  virtual crystal weights 
   VCA    =   1.00
   NELECT =      16.0000    total number of electrons
   NUPDOWN=      -1.0000    fix difference up-down

 DOS related values:
   EMIN   =  10.00;   EMAX   =-10.00  energy-range for DOS
   EFERMI =   0.00
   ISMEAR =     1;   SIGMA  =   0.20  broadening in eV -4-tet -1-fermi 0-gaus

 Electronic relaxation 2 (details)
   IALGO  =     38    algorithm
   LDIAG  =      T    sub-space diagonalisation (order eigenvalues)
   LSUBROT=      F    optimize rotation matrix (better conditioning)
   TURBO    =      0    0=normal 1=particle mesh
   IRESTART =      0    0=no restart 2=restart with 2 vectors
   NREBOOT  =      0    no. of reboots
   NMIN     =      0    reboot dimension
   EREF     =   0.00    reference energy to select bands
   IMIX   =      4    mixing-type and parameters
     AMIX     =   0.40;   BMIX     =  1.00
     AMIX_MAG =   1.60;   BMIX_MAG =  1.00
     AMIN     =   0.10
     WC   =   100.;   INIMIX=   1;  MIXPRE=   1;  MAXMIX= -45

 Intra band minimization:
   WEIMIN = 0.0000     energy-eigenvalue tresh-hold
   EBREAK =  0.62E-08  absolut break condition
   DEPER  =   0.30     relativ break condition  

   TIME   =   0.40     timestep for ELM

  volume/ion in A,a.u.               =       9.35        63.11
  Fermi-wavevector in a.u.,A,eV,Ry     =   1.554071  2.936768 32.859929  2.415137
  Thomas-Fermi vector in A             =   2.658210
 
 Write flags
   LWAVE        =      T    write WAVECAR
   LDOWNSAMPLE  =      F    k-point downsampling of WAVECAR
   LCHARG       =      T    write CHGCAR
   LVTOT        =      F    write LOCPOT, total local potential
   LVHAR        =      F    write LOCPOT, Hartree potential only
   LELF         =      F    write electronic localiz. function (ELF)
   LORBIT       =      0    0 simple, 1 ext, 2 COOP (PROOUT), +10 PAW based schemes


 Dipole corrections
   LMONO  =      F    monopole corrections only (constant potential shift)
   LDIPOL =      F    correct potential (dipole corrections)
   IDIPOL =      0    1-x, 2-y, 3-z, 4-all directions 
   EPSILON=  1.0000000 bulk dielectric constant

 Exchange correlation treatment:
   GGA     =    PE    GGA type
   LEXCH   =     8    internal setting for exchange type
   VOSKOWN=      0    Vosko Wilk Nusair interpolation
   LHFCALC =     F    Hartree Fock is set to
   LHFONE  =     F    Hartree Fock one center treatment
   AEXX    =    0.0000 exact exchange contribution

 Linear response parameters
   LEPSILON=     F    determine dielectric tensor
   LRPA    =     F    only Hartree local field effects (RPA)
   LNABLA  =     F    use nabla operator in PAW spheres
   LVEL    =     F    velocity operator in full k-point grid
   LINTERFAST=   F  fast interpolation
   KINTER  =     0    interpolate to denser k-point grid
   CSHIFT  =0.1000    complex shift for real part using Kramers Kronig
   OMEGAMAX=  -1.0    maximum frequency
   DEG_THRESHOLD= 0.2000000E-02 threshold for treating states as degnerate
   RTIME   =   -0.100 relaxation time in fs
  (WPLASMAI=    0.000 imaginary part of plasma frequency in eV, 0.658/RTIME)
   DFIELD  = 0.0000000 0.0000000 0.0000000 field for delta impulse in time
 
 Orbital magnetization related:
   ORBITALMAG=     F  switch on orbital magnetization
   LCHIMAG   =     F  perturbation theory with respect to B field
   DQ        =  0.001000  dq finite difference perturbation B field
   LLRAUG    =     F  two centre corrections for induced B field



--------------------------------------------------------------------------------------------------------


 Static calculation
 charge density and potential will be updated during run
 non-spin polarized calculation
 Variant of blocked Davidson
 Davidson routine will perform the subspace rotation
 perform sub-space diagonalisation
    after iterative eigenvector-optimisation
 modified Broyden-mixing scheme, WC =      100.0
 initial mixing is a Kerker type mixing with AMIX =  0.4000 and BMIX =      1.0000
 Hartree-type preconditioning will be used
 using additional bands           32
 reciprocal scheme for non local part
 use partial core corrections
 calculate Harris-corrections to forces 
   (improved forces if not selfconsistent)
 use gradient corrections 
 use of overlap-Matrix (Vanderbilt PP)
 Methfessel and Paxton  Order N= 1 SIGMA  =   0.20


--------------------------------------------------------------------------------------------------------


  energy-cutoff  :      280.00
  volume of cell :       18.70
      direct lattice vectors                 reciprocal lattice vectors
     2.306700000  0.000000000  0.000000000     0.433519747  0.250292743  0.000000000
    -1.153350000  1.997660799  0.000000000     0.000000000  0.500585485  0.000000000
     0.000000000  0.000000000  4.059000000     0.000000000  0.000000000  0.246366100

  length of vectors
     2.306700000  2.306700000  4.059000000     0.500585485  0.500585485  0.246366100


 
 k-points in units of 2pi/SCALE and weight: KPOINTS created by Atomic Simulation Env
   0.00000000  0.00000000  0.00000000       0.001
   0.03941089  0.02275389  0.00000000       0.005
   0.07882177  0.04550777  0.00000000       0.005
   0.11823266  0.06826166  0.00000000       0.005
   0.15764354  0.09101554  0.00000000       0.005
   0.19705443  0.11376943  0.00000000       0.005
   0.03941089  0.06826166  0.00000000       0.005
   0.07882177  0.09101554  0.00000000       0.009
   0.11823266  0.11376943  0.00000000       0.009
   0.15764354  0.13652331  0.00000000       0.009
   0.19705443  0.15927720  0.00000000       0.005
   0.07882177  0.13652331  0.00000000       0.005
   0.11823266  0.15927720  0.00000000       0.009
   0.15764354  0.18203109  0.00000000       0.009
   0.11823266  0.20478497  0.00000000       0.005
   0.15764354  0.22753886  0.00000000       0.005
   0.00000000  0.00000000  0.02239692       0.002
   0.03941089  0.02275389  0.02239692       0.009
   0.07882177  0.04550777  0.02239692       0.009
   0.11823266  0.06826166  0.02239692       0.009
   0.15764354  0.09101554  0.02239692       0.009
   0.19705443  0.11376943  0.02239692       0.009
   0.03941089  0.06826166  0.02239692       0.009
   0.07882177  0.09101554  0.02239692       0.018
   0.11823266  0.11376943  0.02239692       0.018
   0.15764354  0.13652331  0.02239692       0.018
   0.19705443  0.15927720  0.02239692       0.009
   0.07882177  0.13652331  0.02239692       0.009
   0.11823266  0.15927720  0.02239692       0.018
   0.15764354  0.18203109  0.02239692       0.018
   0.11823266  0.20478497  0.02239692       0.009
   0.15764354  0.22753886  0.02239692       0.009
   0.00000000  0.00000000  0.04479384       0.002
   0.03941089  0.02275389  0.04479384       0.009
   0.07882177  0.04550777  0.04479384       0.009
   0.11823266  0.06826166  0.04479384       0.009
   0.15764354  0.09101554  0.04479384       0.009
   0.19705443  0.11376943  0.04479384       0.009
   0.03941089  0.06826166  0.04479384       0.009
   0.07882177  0.09101554  0.04479384       0.018
   0.11823266  0.11376943  0.04479384       0.018
   0.15764354  0.13652331  0.04479384       0.018
   0.19705443  0.15927720  0.04479384       0.009
   0.07882177  0.13652331  0.04479384       0.009
   0.11823266  0.15927720  0.04479384       0.018
   0.15764354  0.18203109  0.04479384       0.018
   0.11823266  0.20478497  0.04479384       0.009
   0.15764354  0.22753886  0.04479384       0.009
   0.00000000  0.00000000  0.06719075       0.002
   0.03941089  0.02275389  0.06719075       0.009
   0.07882177  0.04550777  0.06719075       0.009
   0.11823266  0.06826166  0.06719075       0.009
   0.15764354  0.09101554  0.06719075       0.009
   0.19705443  0.11376943  0.06719075       0.009
   0.03941089  0.06826166  0.06719075       0.009
   0.07882177  0.09101554  0.06719075       0.018
   0.11823266  0.11376943  0.06719075       0.018
   0.15764354  0.13652331  0.06719075       0.018
   0.19705443  0.15927720  0.06719075       0.009
   0.07882177  0.13652331  0.06719075       0.009
   0.11823266  0.15927720  0.06719075       0.018
   0.15764354  0.18203109  0.06719075       0.018
   0.11823266  0.20478497  0.06719075       0.009
   0.15764354  0.22753886  0.06719075       0.009
   0.00000000  0.00000000  0.08958767       0.002
   0.03941089  0.02275389  0.08958767       0.009
   0.07882177  0.04550777  0.08958767       0.009
   0.11823266  0.06826166  0.08958767       0.009
   0.15764354  0.09101554  0.08958767       0.009
   0.19705443  0.11376943  0.08958767       0.009
   0.03941089  0.06826166  0.08958767       0.009
   0.07882177  0.09101554  0.08958767       0.018
   0.11823266  0.11376943  0.08958767       0.018
   0.15764354  0.13652331  0.08958767       0.018
   0.19705443  0.15927720  0.08958767       0.009
   0.07882177  0.13652331  0.08958767       0.009
   0.11823266  0.15927720  0.08958767       0.018
   0.15764354  0.18203109  0.08958767       0.018
   0.11823266  0.20478497  0.08958767       0.009
   0.15764354  0.22753886  0.08958767       0.009
   0.00000000  0.00000000  0.11198459       0.002
   0.03941089  0.02275389  0.11198459       0.009
   0.07882177  0.04550777  0.11198459       0.009
   0.11823266  0.06826166  0.11198459       0.009
   0.15764354  0.09101554  0.11198459       0.009
   0.19705443  0.11376943  0.11198459       0.009
   0.03941089  0.06826166  0.11198459       0.009
   0.07882177  0.09101554  0.11198459       0.018
   0.11823266  0.11376943  0.11198459       0.018
   0.15764354  0.13652331  0.11198459       0.018
   0.19705443  0.15927720  0.11198459       0.009
   0.07882177  0.13652331  0.11198459       0.009
   0.11823266  0.15927720  0.11198459       0.018
   0.15764354  0.18203109  0.11198459       0.018
   0.11823266  0.20478497  0.11198459       0.009
   0.15764354  0.22753886  0.11198459       0.009
 
 k-points in reciprocal lattice and weights: KPOINTS created by Atomic Simulation Env
   0.00000000  0.00000000  0.00000000       0.001
   0.09090909  0.00000000  0.00000000       0.005
   0.18181818  0.00000000  0.00000000       0.005
   0.27272727  0.00000000  0.00000000       0.005
   0.36363636  0.00000000  0.00000000       0.005
   0.45454545  0.00000000  0.00000000       0.005
   0.09090909  0.09090909  0.00000000       0.005
   0.18181818  0.09090909  0.00000000       0.009
   0.27272727  0.09090909  0.00000000       0.009
   0.36363636  0.09090909  0.00000000       0.009
   0.45454545  0.09090909  0.00000000       0.005
   0.18181818  0.18181818  0.00000000       0.005
   0.27272727  0.18181818  0.00000000       0.009
   0.36363636  0.18181818  0.00000000       0.009
   0.27272727  0.27272727  0.00000000       0.005
   0.36363636  0.27272727  0.00000000       0.005
   0.00000000  0.00000000  0.09090909       0.002
   0.09090909  0.00000000  0.09090909       0.009
   0.18181818  0.00000000  0.09090909       0.009
   0.27272727  0.00000000  0.09090909       0.009
   0.36363636  0.00000000  0.09090909       0.009
   0.45454545  0.00000000  0.09090909       0.009
   0.09090909  0.09090909  0.09090909       0.009
   0.18181818  0.09090909  0.09090909       0.018
   0.27272727  0.09090909  0.09090909       0.018
   0.36363636  0.09090909  0.09090909       0.018
   0.45454545  0.09090909  0.09090909       0.009
   0.18181818  0.18181818  0.09090909       0.009
   0.27272727  0.18181818  0.09090909       0.018
   0.36363636  0.18181818  0.09090909       0.018
   0.27272727  0.27272727  0.09090909       0.009
   0.36363636  0.27272727  0.09090909       0.009
   0.00000000  0.00000000  0.18181818       0.002
   0.09090909  0.00000000  0.18181818       0.009
   0.18181818  0.00000000  0.18181818       0.009
   0.27272727  0.00000000  0.18181818       0.009
   0.36363636  0.00000000  0.18181818       0.009
   0.45454545  0.00000000  0.18181818       0.009
   0.09090909  0.09090909  0.18181818       0.009
   0.18181818  0.09090909  0.18181818       0.018
   0.27272727  0.09090909  0.18181818       0.018
   0.36363636  0.09090909  0.18181818       0.018
   0.45454545  0.09090909  0.18181818       0.009
   0.18181818  0.18181818  0.18181818       0.009
   0.27272727  0.18181818  0.18181818       0.018
   0.36363636  0.18181818  0.18181818       0.018
   0.27272727  0.27272727  0.18181818       0.009
   0.36363636  0.27272727  0.18181818       0.009
   0.00000000  0.00000000  0.27272727       0.002
   0.09090909  0.00000000  0.27272727       0.009
   0.18181818  0.00000000  0.27272727       0.009
   0.27272727  0.00000000  0.27272727       0.009
   0.36363636  0.00000000  0.27272727       0.009
   0.45454545  0.00000000  0.27272727       0.009
   0.09090909  0.09090909  0.27272727       0.009
   0.18181818  0.09090909  0.27272727       0.018
   0.27272727  0.09090909  0.27272727       0.018
   0.36363636  0.09090909  0.27272727       0.018
   0.45454545  0.09090909  0.27272727       0.009
   0.18181818  0.18181818  0.27272727       0.009
   0.27272727  0.18181818  0.27272727       0.018
   0.36363636  0.18181818  0.27272727       0.018
   0.27272727  0.27272727  0.27272727       0.009
   0.36363636  0.27272727  0.27272727       0.009
   0.00000000  0.00000000  0.36363636       0.002
   0.09090909  0.00000000  0.36363636       0.009
   0.18181818  0.00000000  0.36363636       0.009
   0.27272727  0.00000000  0.36363636       0.009
   0.36363636  0.00000000  0.36363636       0.009
   0.45454545  0.00000000  0.36363636       0.009
   0.09090909  0.09090909  0.36363636       0.009
   0.18181818  0.09090909  0.36363636       0.018
   0.27272727  0.09090909  0.36363636       0.018
   0.36363636  0.09090909  0.36363636       0.018
   0.45454545  0.09090909  0.36363636       0.009
   0.18181818  0.18181818  0.36363636       0.009
   0.27272727  0.18181818  0.36363636       0.018
   0.36363636  0.18181818  0.36363636       0.018
   0.27272727  0.27272727  0.36363636       0.009
   0.36363636  0.27272727  0.36363636       0.009
   0.00000000  0.00000000  0.45454545       0.002
   0.09090909  0.00000000  0.45454545       0.009
   0.18181818  0.00000000  0.45454545       0.009
   0.27272727  0.00000000  0.45454545       0.009
   0.36363636  0.00000000  0.45454545       0.009
   0.45454545  0.00000000  0.45454545       0.009
   0.09090909  0.09090909  0.45454545       0.009
   0.18181818  0.09090909  0.45454545       0.018
   0.27272727  0.09090909  0.45454545       0.018
   0.36363636  0.09090909  0.45454545       0.018
   0.45454545  0.09090909  0.45454545       0.009
   0.18181818  0.18181818  0.45454545       0.009
   0.27272727  0.18181818  0.45454545       0.018
   0.36363636  0.18181818  0.45454545       0.018
   0.27272727  0.27272727  0.45454545       0.009
   0.36363636  0.27272727  0.45454545       0.009
 
 position of ions in fractional coordinates (direct lattice) 
   0.00000000  0.00000000  0.00000000
   0.33333333  0.66666667  0.50000000
 
 position of ions in cartesian coordinates  (Angst):
   0.00000000  0.00000000  0.00000000
   0.00000000  1.33177387  2.02950000
 


--------------------------------------------------------------------------------------------------------


 k-point   1 :   0.0000 0.0000 0.0000  plane waves:     209
 k-point   2 :   0.0909 0.0000 0.0000  plane waves:     199
 k-point   3 :   0.1818 0.0000 0.0000  plane waves:     197
 k-point   4 :   0.2727 0.0000 0.0000  plane waves:     201
 k-point   5 :   0.3636 0.0000 0.0000  plane waves:     196
 k-point   6 :   0.4545 0.0000 0.0000  plane waves:     200
 k-point   7 :   0.0909 0.0909 0.0000  plane waves:     199
 k-point   8 :   0.1818 0.0909 0.0000  plane waves:     198
 k-point   9 :   0.2727 0.0909 0.0000  plane waves:     197
 k-point  10 :   0.3636 0.0909 0.0000  plane waves:     199
 k-point  11 :   0.4545 0.0909 0.0000  plane waves:     206
 k-point  12 :   0.1818 0.1818 0.0000  plane waves:     193
 k-point  13 :   0.2727 0.1818 0.0000  plane waves:     199
 k-point  14 :   0.3636 0.1818 0.0000  plane waves:     201
 k-point  15 :   0.2727 0.2727 0.0000  plane waves:     203
 k-point  16 :   0.3636 0.2727 0.0000  plane waves:     203
 k-point  17 :   0.0000 0.0000 0.0909  plane waves:     209
 k-point  18 :   0.0909 0.0000 0.0909  plane waves:     199
 k-point  19 :   0.1818 0.0000 0.0909  plane waves:     202
 k-point  20 :   0.2727 0.0000 0.0909  plane waves:     196
 k-point  21 :   0.3636 0.0000 0.0909  plane waves:     198
 k-point  22 :   0.4545 0.0000 0.0909  plane waves:     199
 k-point  23 :   0.0909 0.0909 0.0909  plane waves:     198
 k-point  24 :   0.1818 0.0909 0.0909  plane waves:     199
 k-point  25 :   0.2727 0.0909 0.0909  plane waves:     197
 k-point  26 :   0.3636 0.0909 0.0909  plane waves:     201
 k-point  27 :   0.4545 0.0909 0.0909  plane waves:     203
 k-point  28 :   0.1818 0.1818 0.0909  plane waves:     193
 k-point  29 :   0.2727 0.1818 0.0909  plane waves:     198
 k-point  30 :   0.3636 0.1818 0.0909  plane waves:     202
 k-point  31 :   0.2727 0.2727 0.0909  plane waves:     200
 k-point  32 :   0.3636 0.2727 0.0909  plane waves:     202
 k-point  33 :   0.0000 0.0000 0.1818  plane waves:     203
 k-point  34 :   0.0909 0.0000 0.1818  plane waves:     197
 k-point  35 :   0.1818 0.0000 0.1818  plane waves:     199
 k-point  36 :   0.2727 0.0000 0.1818  plane waves:     199
 k-point  37 :   0.3636 0.0000 0.1818  plane waves:     198
 k-point  38 :   0.4545 0.0000 0.1818  plane waves:     199
 k-point  39 :   0.0909 0.0909 0.1818  plane waves:     194
 k-point  40 :   0.1818 0.0909 0.1818  plane waves:     198
 k-point  41 :   0.2727 0.0909 0.1818  plane waves:     198
 k-point  42 :   0.3636 0.0909 0.1818  plane waves:     200
 k-point  43 :   0.4545 0.0909 0.1818  plane waves:     202
 k-point  44 :   0.1818 0.1818 0.1818  plane waves:     197
 k-point  45 :   0.2727 0.1818 0.1818  plane waves:     200
 k-point  46 :   0.3636 0.1818 0.1818  plane waves:     204
 k-point  47 :   0.2727 0.2727 0.1818  plane waves:     200
 k-point  48 :   0.3636 0.2727 0.1818  plane waves:     202
 k-point  49 :   0.0000 0.0000 0.2727  plane waves:     209
 k-point  50 :   0.0909 0.0000 0.2727  plane waves:     194
 k-point  51 :   0.1818 0.0000 0.2727  plane waves:     195
 k-point  52 :   0.2727 0.0000 0.2727  plane waves:     195
 k-point  53 :   0.3636 0.0000 0.2727  plane waves:     194
 k-point  54 :   0.4545 0.0000 0.2727  plane waves:     197
 k-point  55 :   0.0909 0.0909 0.2727  plane waves:     194
 k-point  56 :   0.1818 0.0909 0.2727  plane waves:     196
 k-point  57 :   0.2727 0.0909 0.2727  plane waves:     200
 k-point  58 :   0.3636 0.0909 0.2727  plane waves:     200
 k-point  59 :   0.4545 0.0909 0.2727  plane waves:     201
 k-point  60 :   0.1818 0.1818 0.2727  plane waves:     196
 k-point  61 :   0.2727 0.1818 0.2727  plane waves:     205
 k-point  62 :   0.3636 0.1818 0.2727  plane waves:     202
 k-point  63 :   0.2727 0.2727 0.2727  plane waves:     203
 k-point  64 :   0.3636 0.2727 0.2727  plane waves:     203
 k-point  65 :   0.0000 0.0000 0.3636  plane waves:     191
 k-point  66 :   0.0909 0.0000 0.3636  plane waves:     196
 k-point  67 :   0.1818 0.0000 0.3636  plane waves:     191
 k-point  68 :   0.2727 0.0000 0.3636  plane waves:     195
 k-point  69 :   0.3636 0.0000 0.3636  plane waves:     202
 k-point  70 :   0.4545 0.0000 0.3636  plane waves:     200
 k-point  71 :   0.0909 0.0909 0.3636  plane waves:     196
 k-point  72 :   0.1818 0.0909 0.3636  plane waves:     193
 k-point  73 :   0.2727 0.0909 0.3636  plane waves:     197
 k-point  74 :   0.3636 0.0909 0.3636  plane waves:     199
 k-point  75 :   0.4545 0.0909 0.3636  plane waves:     198
 k-point  76 :   0.1818 0.1818 0.3636  plane waves:     197
 k-point  77 :   0.2727 0.1818 0.3636  plane waves:     203
 k-point  78 :   0.3636 0.1818 0.3636  plane waves:     204
 k-point  79 :   0.2727 0.2727 0.3636  plane waves:     207
 k-point  80 :   0.3636 0.2727 0.3636  plane waves:     205
 k-point  81 :   0.0000 0.0000 0.4545  plane waves:     191
 k-point  82 :   0.0909 0.0000 0.4545  plane waves:     193
 k-point  83 :   0.1818 0.0000 0.4545  plane waves:     191
 k-point  84 :   0.2727 0.0000 0.4545  plane waves:     197
 k-point  85 :   0.3636 0.0000 0.4545  plane waves:     199
 k-point  86 :   0.4545 0.0000 0.4545  plane waves:     197
 k-point  87 :   0.0909 0.0909 0.4545  plane waves:     192
 k-point  88 :   0.1818 0.0909 0.4545  plane waves:     194
 k-point  89 :   0.2727 0.0909 0.4545  plane waves:     198
 k-point  90 :   0.3636 0.0909 0.4545  plane waves:     201
 k-point  91 :   0.4545 0.0909 0.4545  plane waves:     198
 k-point  92 :   0.1818 0.1818 0.4545  plane waves:     195
 k-point  93 :   0.2727 0.1818 0.4545  plane waves:     201
 k-point  94 :   0.3636 0.1818 0.4545  plane waves:     199
 k-point  95 :   0.2727 0.2727 0.4545  plane waves:     206
 k-point  96 :   0.3636 0.2727 0.4545  plane waves:     204

 maximum number of plane-waves:       209
 maximum index in each direction: 
   IXMAX=    3   IYMAX=    3   IZMAX=    5
   IXMIN=   -3   IYMIN=   -3   IZMIN=   -5


 total amount of memory used by VASP MPI-rank0    48790. kBytes
=======================================================================

   base      :      30000. kBytes
   nonl-proj :       2895. kBytes
   grid      :        812. kBytes
   one-center:         31. kBytes
   wavefun   :      15052. kBytes
 
     INWAV:  cpu time    0.0000: real time    0.0000
 Broyden mixing: mesh for mixing (old mesh)
   NGX =  7   NGY =  7   NGZ = 11
  (NGX  = 20   NGY  = 20   NGZ  = 36)
  gives a total of    539 points

 initial charge density was supplied:
 charge density of overlapping atoms calculated
 number of electron      16.0000000 magnetization 
 keeping initial charge density in first step


--------------------------------------------------------------------------------------------------------


 Maximum index for augmentation-charges         3312 (set IRDMAX)


--------------------------------------------------------------------------------------------------------


 First call to EWALD:  gamma=   0.668
 Maximum number of real-space cells 3x 3x 2
 Maximum number of reciprocal cells 2x 2x 4

    FEWALD:  cpu time    0.0009: real time    0.0009


--------------------------------------- Iteration      1(   1)  ---------------------------------------


    POTLOK:  cpu time    0.0035: real time    0.0035
    SETDIJ:  cpu time    0.0021: real time    0.0021
     EDDAV:  cpu time    0.8382: real time    0.8575
       DOS:  cpu time    0.0054: real time    0.0054
    --------------------------------------------
      LOOP:  cpu time    0.8493: real time    0.8685

 eigenvalue-minimisations  :  9472
 total energy-change (2. order) : 0.5972749E+02  (-0.2493807E+03)
 number of electron      16.0000000 magnetization 
 augmentation part       16.0000000 magnetization 

 Free energy of the ion-electron system (eV)
  ---------------------------------------------------
  alpha Z        PSCENC =       147.80621581
  Ewald energy   TEWEN  =     -1262.31678013
  -Hartree energ DENC   =      -194.85452610
  -exchange      EXHF   =         0.00000000
  -V(xc)+E(xc)   XCENC  =         9.05466416
  PAW double counting   =      1109.69170683    -1125.09647265
  entropy T*S    EENTRO =        -0.00117657
  eigenvalues    EBANDS =       186.86894793
  atomic energy  EATOM  =      1188.57490811
  Solvation  Ediel_sol  =         0.00000000
  ---------------------------------------------------
  free energy    TOTEN  =        59.72748739 eV

  energy without entropy =       59.72866396  energy(sigma->0) =       59.72787958


--------------------------------------------------------------------------------------------------------




--------------------------------------- Iteration      1(   2)  ---------------------------------------


     EDDAV:  cpu time    0.7119: real time    0.7120
       DOS:  cpu time    0.0059: real time    0.0059
    --------------------------------------------
      LOOP:  cpu time    0.7178: real time    0.7178

 eigenvalue-minimisations  :  7832
 total energy-change (2. order) :-0.7438955E+02  (-0.6358860E+02)
 number of electron      16.0000000 magnetization 
 augmentation part       16.0000000 magnetization 

 Free energy of the ion-electron system (eV)
  ---------------------------------------------------
  alpha Z        PSCENC =       147.80621581
  Ewald energy   TEWEN  =     -1262.31678013
  -Hartree energ DENC   =      -194.85452610
  -exchange      EXHF   =         0.00000000
  -V(xc)+E(xc)   XCENC  =         9.05466416
  PAW double counting   =      1109.69170683    -1125.09647265
  entropy T*S    EENTRO =         0.00051954
  eigenvalues    EBANDS =       112.47770016
  atomic energy  EATOM  =      1188.57490811
  Solvation  Ediel_sol  =         0.00000000
  ---------------------------------------------------
  free energy    TOTEN  =       -14.66206427 eV

  energy without entropy =      -14.66258381  energy(sigma->0) =      -14.66223745


--------------------------------------------------------------------------------------------------------




--------------------------------------- Iteration      1(   3)  ---------------------------------------


     EDDAV:  cpu time    0.7839: real time    0.7839
       DOS:  cpu time    0.0065: real time    0.0065
    --------------------------------------------
      LOOP:  cpu time    0.7903: real time    0.7904

 eigenvalue-minimisations  :  9584
 total energy-change (2. order) :-0.4154213E+01  (-0.3983583E+01)
 number of electron      16.0000000 magnetization 
 augmentation part       16.0000000 magnetization 

 Free energy of the ion-electron system (eV)
  ---------------------------------------------------
  alpha Z        PSCENC =       147.80621581
  Ewald energy   TEWEN  =     -1262.31678013
  -Hartree energ DENC   =      -194.85452610
  -exchange      EXHF   =         0.00000000
  -V(xc)+E(xc)   XCENC  =         9.05466416
  PAW double counting   =      1109.69170683    -1125.09647265
  entropy T*S    EENTRO =         0.00056506
  eigenvalues    EBANDS =       108.32344165
  atomic energy  EATOM  =      1188.57490811
  Solvation  Ediel_sol  =         0.00000000
  ---------------------------------------------------
  free energy    TOTEN  =       -18.81627725 eV

  energy without entropy =      -18.81684231  energy(sigma->0) =      -18.81646560


--------------------------------------------------------------------------------------------------------




--------------------------------------- Iteration      1(   4)  ---------------------------------------


     EDDAV:  cpu time    0.7379: real time    0.7379
       DOS:  cpu time    0.0066: real time    0.0066
    --------------------------------------------
      LOOP:  cpu time    0.7444: real time    0.7445

 eigenvalue-minimisations  :  9032
 total energy-change (2. order) :-0.1575384E-01  (-0.1574447E-01)
 number of electron      16.0000000 magnetization 
 augmentation part       16.0000000 magnetization 

 Free energy of the ion-electron system (eV)
  ---------------------------------------------------
  alpha Z        PSCENC =       147.80621581
  Ewald energy   TEWEN  =     -1262.31678013
  -Hartree energ DENC   =      -194.85452610
  -exchange      EXHF   =         0.00000000
  -V(xc)+E(xc)   XCENC  =         9.05466416
  PAW double counting   =      1109.69170683    -1125.09647265
  entropy T*S    EENTRO =         0.00057594
  eigenvalues    EBANDS =       108.30767693
  atomic energy  EATOM  =      1188.57490811
  Solvation  Ediel_sol  =         0.00000000
  ---------------------------------------------------
  free energy    TOTEN  =       -18.83203109 eV

  energy without entropy =      -18.83260703  energy(sigma->0) =      -18.83222307


--------------------------------------------------------------------------------------------------------




--------------------------------------- Iteration      1(   5)  ---------------------------------------


     EDDAV:  cpu time    0.7480: real time    0.7480
       DOS:  cpu time    0.0065: real time    0.0065
    CHARGE:  cpu time    0.0194: real time    0.0194
    MIXING:  cpu time    0.0002: real time    0.0002
    --------------------------------------------
      LOOP:  cpu time    0.7740: real time    0.7740

 eigenvalue-minimisations  :  9184
 total energy-change (2. order) :-0.1164732E-04  (-0.1164860E-04)
 number of electron      15.9999993 magnetization 
 augmentation part        7.1482322 magnetization 

 Broyden mixing:
  rms(total) = 0.18619E+01    rms(broyden)= 0.18619E+01
  rms(prec ) = 0.29609E+01
  weight for this iteration     100.00

 Free energy of the ion-electron system (eV)
  ---------------------------------------------------
  alpha Z        PSCENC =       147.80621581
  Ewald energy   TEWEN  =     -1262.31678013
  -Hartree energ DENC   =      -194.85452610
  -exchange      EXHF   =         0.00000000
  -V(xc)+E(xc)   XCENC  =         9.05466416
  PAW double counting   =      1109.69170683    -1125.09647265
  entropy T*S    EENTRO =         0.00057596
  eigenvalues    EBANDS =       108.30766526
  atomic energy  EATOM  =      1188.57490811
  Solvation  Ediel_sol  =         0.00000000
  ---------------------------------------------------
  free energy    TOTEN  =       -18.83204274 eV

  energy without entropy =      -18.83261870  energy(sigma->0) =      -18.83223473


--------------------------------------------------------------------------------------------------------




--------------------------------------- Iteration      1(   6)  ---------------------------------------


    POTLOK:  cpu time    0.0033: real time    0.0033
    SETDIJ:  cpu time    0.0021: real time    0.0021
     EDDAV:  cpu time    0.8998: real time    0.8998
       DOS:  cpu time    0.0066: real time    0.0066
    CHARGE:  cpu time    0.0199: real time    0.0199
    MIXING:  cpu time    0.0002: real time    0.0002
    --------------------------------------------
      LOOP:  cpu time    0.9319: real time    0.9319

 eigenvalue-minimisations  : 11272
 total energy-change (2. order) : 0.2724507E+01  (-0.1508441E+00)
 number of electron      15.9999992 magnetization 
 augmentation part        8.3773259 magnetization 

 Broyden mixing:
  rms(total) = 0.15975E+00    rms(broyden)= 0.15964E+00
  rms(prec ) = 0.24361E+00
  weight for this iteration     100.00

 eigenvalues of (default mixing * dielectric matrix)
  average eigenvalue GAMMA=   0.9901
  0.9901

 Free energy of the ion-electron system (eV)
  ---------------------------------------------------
  alpha Z        PSCENC =       147.80621581
  Ewald energy   TEWEN  =     -1262.31678013
  -Hartree energ DENC   =      -162.99565773
  -exchange      EXHF   =         0.00000000
  -V(xc)+E(xc)   XCENC  =         7.49130467
  PAW double counting   =      1308.01471612    -1319.82759353
  entropy T*S    EENTRO =         0.00159197
  eigenvalues    EBANDS =        77.14375849
  atomic energy  EATOM  =      1188.57490811
  Solvation  Ediel_sol  =         0.00000000
  ---------------------------------------------------
  free energy    TOTEN  =       -16.10753621 eV

  energy without entropy =      -16.10912818  energy(sigma->0) =      -16.10806687


--------------------------------------------------------------------------------------------------------




--------------------------------------- Iteration      1(   7)  ---------------------------------------


    POTLOK:  cpu time    0.0033: real time    0.0033
    SETDIJ:  cpu time    0.0021: real time    0.0021
     EDDAV:  cpu time    0.8021: real time    0.8021
       DOS:  cpu time    0.0066: real time    0.0066
    CHARGE:  cpu time    0.0195: real time    0.0195
    MIXING:  cpu time    0.0002: real time    0.0002
    --------------------------------------------
      LOOP:  cpu time    0.8338: real time    0.8339

 eigenvalue-minimisations  :  9904
 total energy-change (2. order) : 0.1350506E+00  (-0.7631395E-02)
 number of electron      15.9999992 magnetization 
 augmentation part        8.1761457 magnetization 

 Broyden mixing:
  rms(total) = 0.13208E+00    rms(broyden)= 0.13208E+00
  rms(prec ) = 0.20973E+00
  weight for this iteration     100.00

 eigenvalues of (default mixing * dielectric matrix)
  average eigenvalue GAMMA=   1.0929
  0.7975  1.3884

 Free energy of the ion-electron system (eV)
  ---------------------------------------------------
  alpha Z        PSCENC =       147.80621581
  Ewald energy   TEWEN  =     -1262.31678013
  -Hartree energ DENC   =      -165.13426979
  -exchange      EXHF   =         0.00000000
  -V(xc)+E(xc)   XCENC  =         7.62480495
  PAW double counting   =      1406.25567731    -1421.48885506
  entropy T*S    EENTRO =         0.00149258
  eigenvalues    EBANDS =        82.70432064
  atomic energy  EATOM  =      1188.57490811
  Solvation  Ediel_sol  =         0.00000000
  ---------------------------------------------------
  free energy    TOTEN  =       -15.97248559 eV

  energy without entropy =      -15.97397816  energy(sigma->0) =      -15.97298311


--------------------------------------------------------------------------------------------------------




--------------------------------------- Iteration      1(   8)  ---------------------------------------


    POTLOK:  cpu time    0.0034: real time    0.0034
    SETDIJ:  cpu time    0.0022: real time    0.0022
     EDDAV:  cpu time    0.8351: real time    0.8351
       DOS:  cpu time    0.0065: real time    0.0065
    CHARGE:  cpu time    0.0195: real time    0.0195
    MIXING:  cpu time    0.0002: real time    0.0002
    --------------------------------------------
      LOOP:  cpu time    0.8669: real time    0.8669

 eigenvalue-minimisations  : 10176
 total energy-change (2. order) : 0.3230816E-01  (-0.2423916E-03)
 number of electron      15.9999992 magnetization 
 augmentation part        8.2012294 magnetization 

 Broyden mixing:
  rms(total) = 0.55025E-01    rms(broyden)= 0.55025E-01
  rms(prec ) = 0.84453E-01
  weight for this iteration     100.00

 eigenvalues of (default mixing * dielectric matrix)
  average eigenvalue GAMMA=   1.5078
  2.6360  1.0531  0.8342

 Free energy of the ion-electron system (eV)
  ---------------------------------------------------
  alpha Z        PSCENC =       147.80621581
  Ewald energy   TEWEN  =     -1262.31678013
  -Hartree energ DENC   =      -162.86532082
  -exchange      EXHF   =         0.00000000
  -V(xc)+E(xc)   XCENC  =         7.53410831
  PAW double counting   =      1496.16020310    -1513.09496541
  entropy T*S    EENTRO =         0.00151825
  eigenvalues    EBANDS =        82.25993535
  atomic energy  EATOM  =      1188.57490811
  Solvation  Ediel_sol  =         0.00000000
  ---------------------------------------------------
  free energy    TOTEN  =       -15.94017742 eV

  energy without entropy =      -15.94169567  energy(sigma->0) =      -15.94068350


--------------------------------------------------------------------------------------------------------




--------------------------------------- Iteration      1(   9)  ---------------------------------------


    POTLOK:  cpu time    0.0033: real time    0.0033
    SETDIJ:  cpu time    0.0022: real time    0.0022
     EDDAV:  cpu time    0.8583: real time    0.8583
       DOS:  cpu time    0.0066: real time    0.0066
    CHARGE:  cpu time    0.0191: real time    0.0191
    MIXING:  cpu time    0.0002: real time    0.0002
    --------------------------------------------
      LOOP:  cpu time    0.8896: real time    0.8897

 eigenvalue-minimisations  : 10680
 total energy-change (2. order) : 0.8616820E-02  (-0.8482562E-04)
 number of electron      15.9999992 magnetization 
 augmentation part        8.2122980 magnetization 

 Broyden mixing:
  rms(total) = 0.57918E-02    rms(broyden)= 0.57907E-02
  rms(prec ) = 0.73155E-02
  weight for this iteration     100.00

 eigenvalues of (default mixing * dielectric matrix)
  average eigenvalue GAMMA=   1.5828
  2.6663  0.8376  0.9914  1.8361

 Free energy of the ion-electron system (eV)
  ---------------------------------------------------
  alpha Z        PSCENC =       147.80621581
  Ewald energy   TEWEN  =     -1262.31678013
  -Hartree energ DENC   =      -161.10072715
  -exchange      EXHF   =         0.00000000
  -V(xc)+E(xc)   XCENC  =         7.46784146
  PAW double counting   =      1583.90878900    -1602.43501037
  entropy T*S    EENTRO =         0.00151709
  eigenvalues    EBANDS =        82.16168557
  atomic energy  EATOM  =      1188.57490811
  Solvation  Ediel_sol  =         0.00000000
  ---------------------------------------------------
  free energy    TOTEN  =       -15.93156060 eV

  energy without entropy =      -15.93307769  energy(sigma->0) =      -15.93206630


--------------------------------------------------------------------------------------------------------




--------------------------------------- Iteration      1(  10)  ---------------------------------------


    POTLOK:  cpu time    0.0034: real time    0.0034
    SETDIJ:  cpu time    0.0022: real time    0.0022
     EDDAV:  cpu time    0.7100: real time    0.7100
       DOS:  cpu time    0.0065: real time    0.0065
    CHARGE:  cpu time    0.0195: real time    0.0195
    MIXING:  cpu time    0.0002: real time    0.0002
    --------------------------------------------
      LOOP:  cpu time    0.7418: real time    0.7418

 eigenvalue-minimisations  :  8544
 total energy-change (2. order) :-0.1845087E-04  (-0.2782741E-05)
 number of electron      15.9999992 magnetization 
 augmentation part        8.2122144 magnetization 

 Broyden mixing:
  rms(total) = 0.23478E-02    rms(broyden)= 0.23468E-02
  rms(prec ) = 0.33763E-02
  weight for this iteration     100.00

 eigenvalues of (default mixing * dielectric matrix)
  average eigenvalue GAMMA=   1.6421
  2.5680  2.5052  0.8365  1.0028  1.2981

 Free energy of the ion-electron system (eV)
  ---------------------------------------------------
  alpha Z        PSCENC =       147.80621581
  Ewald energy   TEWEN  =     -1262.31678013
  -Hartree energ DENC   =      -161.16012663
  -exchange      EXHF   =         0.00000000
  -V(xc)+E(xc)   XCENC  =         7.47137383
  PAW double counting   =      1585.82905733    -1604.29176925
  entropy T*S    EENTRO =         0.00151334
  eigenvalues    EBANDS =        82.15402854
  atomic energy  EATOM  =      1188.57490811
  Solvation  Ediel_sol  =         0.00000000
  ---------------------------------------------------
  free energy    TOTEN  =       -15.93157905 eV

  energy without entropy =      -15.93309239  energy(sigma->0) =      -15.93208350


--------------------------------------------------------------------------------------------------------




--------------------------------------- Iteration      1(  11)  ---------------------------------------


    POTLOK:  cpu time    0.0034: real time    0.0034
    SETDIJ:  cpu time    0.0022: real time    0.0022
     EDDAV:  cpu time    0.7187: real time    0.7187
       DOS:  cpu time    0.0065: real time    0.0065
    CHARGE:  cpu time    0.0191: real time    0.0191
    MIXING:  cpu time    0.0002: real time    0.0002
    --------------------------------------------
      LOOP:  cpu time    0.7501: real time    0.7502

 eigenvalue-minimisations  :  8488
 total energy-change (2. order) : 0.1357400E-04  (-0.2432826E-07)
 number of electron      15.9999992 magnetization 
 augmentation part        8.2119176 magnetization 

 Broyden mixing:
  rms(total) = 0.18718E-03    rms(broyden)= 0.18709E-03
  rms(prec ) = 0.30653E-03
  weight for this iteration     100.00

 eigenvalues of (default mixing * dielectric matrix)
  average eigenvalue GAMMA=   1.5692
  2.5816  2.5816  0.8363  1.0052  1.0052  1.4051

 Free energy of the ion-electron system (eV)
  ---------------------------------------------------
  alpha Z        PSCENC =       147.80621581
  Ewald energy   TEWEN  =     -1262.31678013
  -Hartree energ DENC   =      -161.22362771
  -exchange      EXHF   =         0.00000000
  -V(xc)+E(xc)   XCENC  =         7.47433254
  PAW double counting   =      1585.06209236    -1603.46386855
  entropy T*S    EENTRO =         0.00151336
  eigenvalues    EBANDS =        82.15364873
  atomic energy  EATOM  =      1188.57490811
  Solvation  Ediel_sol  =         0.00000000
  ---------------------------------------------------
  free energy    TOTEN  =       -15.93156548 eV

  energy without entropy =      -15.93307884  energy(sigma->0) =      -15.93206993


--------------------------------------------------------------------------------------------------------




--------------------------------------- Iteration      1(  12)  ---------------------------------------


    POTLOK:  cpu time    0.0034: real time    0.0034
    SETDIJ:  cpu time    0.0021: real time    0.0021
     EDDAV:  cpu time    0.5739: real time    0.5739
       DOS:  cpu time    0.0066: real time    0.0066
    CHARGE:  cpu time    0.0194: real time    0.0194
    MIXING:  cpu time    0.0002: real time    0.0002
    --------------------------------------------
      LOOP:  cpu time    0.6056: real time    0.6056

 eigenvalue-minimisations  :  6128
 total energy-change (2. order) : 0.1302717E-05  (-0.8320292E-08)
 number of electron      15.9999992 magnetization 
 augmentation part        8.2118926 magnetization 

 Broyden mixing:
  rms(total) = 0.11373E-03    rms(broyden)= 0.11366E-03
  rms(prec ) = 0.12567E-03
  weight for this iteration     100.00

 eigenvalues of (default mixing * dielectric matrix)
  average eigenvalue GAMMA=   1.5823
  2.5519  2.5519  1.7848  0.8364  0.9835  1.0182  1.3496

 Free energy of the ion-electron system (eV)
  ---------------------------------------------------
  alpha Z        PSCENC =       147.80621581
  Ewald energy   TEWEN  =     -1262.31678013
  -Hartree energ DENC   =      -161.23195163
  -exchange      EXHF   =         0.00000000
  -V(xc)+E(xc)   XCENC  =         7.47470768
  PAW double counting   =      1584.99766382    -1603.39131587
  entropy T*S    EENTRO =         0.00151354
  eigenvalues    EBANDS =        82.15347449
  atomic energy  EATOM  =      1188.57490811
  Solvation  Ediel_sol  =         0.00000000
  ---------------------------------------------------
  free energy    TOTEN  =       -15.93156418 eV

  energy without entropy =      -15.93307772  energy(sigma->0) =      -15.93206869


--------------------------------------------------------------------------------------------------------




--------------------------------------- Iteration      1(  13)  ---------------------------------------


    POTLOK:  cpu time    0.0033: real time    0.0033
    SETDIJ:  cpu time    0.0021: real time    0.0021
     EDDAV:  cpu time    0.5383: real time    0.5383
       DOS:  cpu time    0.0067: real time    0.0067
    --------------------------------------------
      LOOP:  cpu time    0.5505: real time    0.5505

 eigenvalue-minimisations  :  5424
 total energy-change (2. order) :-0.3660739E-06  (-0.8906295E-09)
 number of electron      15.9999992 magnetization 
 augmentation part        8.2118926 magnetization 

 Free energy of the ion-electron system (eV)
  ---------------------------------------------------
  alpha Z        PSCENC =       147.80621581
  Ewald energy   TEWEN  =     -1262.31678013
  -Hartree energ DENC   =      -161.23045672
  -exchange      EXHF   =         0.00000000
  -V(xc)+E(xc)   XCENC  =         7.47463615
  PAW double counting   =      1585.06708657    -1603.46250911
  entropy T*S    EENTRO =         0.00151354
  eigenvalues    EBANDS =        82.15382124
  atomic energy  EATOM  =      1188.57490811
  Solvation  Ediel_sol  =         0.00000000
  ---------------------------------------------------
  free energy    TOTEN  =       -15.93156454 eV

  energy without entropy =      -15.93307808  energy(sigma->0) =      -15.93206905


--------------------------------------------------------------------------------------------------------




 average (electrostatic) potential at core
  the test charge radii are     1.0103
  (the norm of the test charge is              1.0000)
       1 -41.7101       2 -41.7102
 
 
 
 E-fermi :   7.9067     XC(G=0): -14.2990     alpha+bet :-16.5746

 Fermi energy:         7.9067153811

 k-point     1 :       0.0000    0.0000    0.0000
  band No.  band energies     occupation 
      1      -1.4820      2.00000
      2       2.4182      2.00000
      3       5.4349      2.00000
      4       6.1287      2.00000
      5       6.1287      2.00000
      6       6.4814      2.00000
      7       6.4815      2.00000
      8       7.1483      2.00000
      9       7.5483      2.02948
     10       7.5483      2.02949
     11       8.7561     -0.00000
     12       8.7561     -0.00000
     13      16.0528      0.00000
     14      32.0708      0.00000
     15      32.3415      0.00000
     16      35.2789      0.00000
     17      38.2309      0.00000
     18      38.2309      0.00000
     19      38.9623      0.00000
     20      38.9625      0.00000
     21      39.8291      0.00000
     22      41.5425      0.00000
     23      41.5425      0.00000
     24      42.6085      0.00000
     25      45.5880      0.00000
     26      45.5880      0.00000
     27      46.6681      0.00000
     28      49.8640      0.00000
     29      49.8644      0.00000
     30      51.8013      0.00000
     31      51.8014      0.00000
     32      54.5423      0.00000
     33      62.3082      0.00000
     34      63.5663      0.00000
     35      63.7147      0.00000
     36      63.7155      0.00000
     37      64.9337      0.00000
     38      66.6654      0.00000
     39      66.6664      0.00000
     40      68.6762      0.00000

 k-point     2 :       0.0909    0.0000    0.0000
  band No.  band energies     occupation 
      1      -1.1284      2.00000
      2       2.6852      2.00000
      3       5.4429      2.00000
      4       6.0650      2.00000
      5       6.2159      2.00000
      6       6.3460      2.00000
      7       6.3550      2.00000
      8       6.6838      2.00000
      9       7.3808      2.00127
     10       7.4211      2.00318
     11       8.7948     -0.00000
     12       9.9658     -0.00000
     13      16.0741      0.00000
     14      30.9778      0.00000
     15      32.7051      0.00000
     16      33.7659      0.00000
     17      35.3035      0.00000
     18      37.3480      0.00000
     19      37.4538      0.00000
     20      39.6894      0.00000
     21      41.0033      0.00000
     22      42.0634      0.00000
     23      42.2332      0.00000
     24      42.7394      0.00000
     25      46.7633      0.00000
     26      47.0770      0.00000
     27      47.2502      0.00000
     28      47.5761      0.00000
     29      50.9555      0.00000
     30      53.2866      0.00000
     31      54.2863      0.00000
     32      56.3682      0.00000
     33      61.0791      0.00000
     34      62.7808      0.00000
     35      63.0731      0.00000
     36      63.3672      0.00000
     37      63.7700      0.00000
     38      67.3748      0.00000
     39      68.6597      0.00000
     40      68.9065      0.00000

 k-point     3 :       0.1818    0.0000    0.0000
  band No.  band energies     occupation 
      1      -0.1343      2.00000
      2       3.3050      2.00000
      3       5.0295      2.00000
      4       5.2313      2.00000
      5       5.8668      2.00000
      6       6.5035      2.00000
      7       6.9492      2.00000
      8       6.9809      2.00000
      9       7.1215      2.00000
     10       7.2405      2.00003
     11       8.8581     -0.00000
     12      11.9265     -0.00000
     13      16.1607      0.00000
     14      27.3208      0.00000
     15      32.3101      0.00000
     16      32.4992      0.00000
     17      32.7828      0.00000
     18      33.7427      0.00000
     19      38.1996      0.00000
     20      39.1649      0.00000
     21      39.7913      0.00000
     22      40.1803      0.00000
     23      43.2177      0.00000
     24      44.3248      0.00000
     25      47.0757      0.00000
     26      47.9918      0.00000
     27      49.4603      0.00000
     28      51.8058      0.00000
     29      54.1318      0.00000
     30      56.2687      0.00000
     31      56.9885      0.00000
     32      59.3941      0.00000
     33      59.6224      0.00000
     34      60.7245      0.00000
     35      61.1265      0.00000
     36      62.3657      0.00000
     37      64.7799      0.00000
     38      68.2531      0.00000
     39      68.6138      0.00000
     40      69.4237      0.00000

 k-point     4 :       0.2727    0.0000    0.0000
  band No.  band energies     occupation 
      1       1.2512      2.00000
      2       3.5686      2.00000
      3       4.0994      2.00000
      4       5.1928      2.00000
      5       5.6814      2.00000
      6       6.4774      2.00000
      7       6.7788      2.00000
      8       7.3495      2.00059
      9       7.8073      1.73680
     10       8.0202      0.19051
     11       8.8926     -0.00000
     12      14.1258      0.00000
     13      16.3590      0.00000
     14      23.2518      0.00000
     15      29.0864      0.00000
     16      29.7465      0.00000
     17      30.9107      0.00000
     18      33.6322      0.00000
     19      36.4790      0.00000
     20      39.5133      0.00000
     21      39.5740      0.00000
     22      40.0827      0.00000
     23      40.7720      0.00000
     24      44.4679      0.00000
     25      50.6390      0.00000
     26      52.1444      0.00000
     27      53.0669      0.00000
     28      54.4755      0.00000
     29      55.5462      0.00000
     30      56.6957      0.00000
     31      58.2756      0.00000
     32      60.0068      0.00000
     33      60.6431      0.00000
     34      61.0668      0.00000
     35      62.0551      0.00000
     36      64.4216      0.00000
     37      65.1131      0.00000
     38      68.4617      0.00000
     39      68.8869      0.00000
     40      69.2615      0.00000

 k-point     5 :       0.3636    0.0000    0.0000
  band No.  band energies     occupation 
      1       2.4245      2.00000
      2       3.2634      2.00000
      3       3.4756      2.00000
      4       5.4105      2.00000
      5       6.0356      2.00000
      6       6.1311      2.00000
      7       6.4973      2.00000
      8       8.6750     -0.00000
      9       8.7265     -0.00000
     10       8.8098     -0.00000
     11       8.9006     -0.00000
     12      16.1889      0.00000
     13      16.4605      0.00000
     14      20.3143      0.00000
     15      25.7485      0.00000
     16      27.7814      0.00000
     17      28.1122      0.00000
     18      32.7583      0.00000
     19      35.3614      0.00000
     20      38.6327      0.00000
     21      39.1260      0.00000
     22      41.0339      0.00000
     23      41.6417      0.00000
     24      44.6632      0.00000
     25      52.2523      0.00000
     26      53.5653      0.00000
     27      54.1553      0.00000
     28      57.3617      0.00000
     29      57.5959      0.00000
     30      57.9208      0.00000
     31      59.9865      0.00000
     32      61.1636      0.00000
     33      61.8937      0.00000
     34      61.8988      0.00000
     35      63.6977      0.00000
     36      65.2627      0.00000
     37      68.1923      0.00000
     38      68.6462      0.00000
     39      68.7958      0.00000
     40      69.3526      0.00000

 k-point     6 :       0.4545    0.0000    0.0000
  band No.  band energies     occupation 
      1       2.7929      2.00000
      2       3.0509      2.00000
      3       3.1638      2.00000
      4       5.7793      2.00000
      5       6.0205      2.00000
      6       6.3403      2.00000
      7       6.3959      2.00000
      8       8.8961     -0.00000
      9       9.2142     -0.00000
     10       9.3418     -0.00000
     11      10.5600     -0.00000
     12      14.2362      0.00000
     13      18.6552      0.00000
     14      20.2841      0.00000
     15      23.0532      0.00000
     16      25.3880      0.00000
     17      26.6759      0.00000
     18      32.1067      0.00000
     19      34.9965      0.00000
     20      37.4283      0.00000
     21      38.9457      0.00000
     22      41.9631      0.00000
     23      43.9244      0.00000
     24      44.5059      0.00000
     25      48.8804      0.00000
     26      54.3150      0.00000
     27      55.4060      0.00000
     28      59.3265      0.00000
     29      59.4231      0.00000
     30      60.4556      0.00000
     31      61.8409      0.00000
     32      62.2232      0.00000
     33      62.4068      0.00000
     34      64.4706      0.00000
     35      65.0449      0.00000
     36      66.8223      0.00000
     37      67.7266      0.00000
     38      67.7386      0.00000
     39      69.6577      0.00000
     40      70.1862      0.00000

 k-point     7 :       0.0909    0.0909    0.0000
  band No.  band energies     occupation 
      1      -0.4512      2.00000
      2       3.1507      2.00000
      3       5.2693      2.00000
      4       5.3429      2.00000
      5       6.1121      2.00000
      6       6.1497      2.00000
      7       6.7873      2.00000
      8       6.9383      2.00000
      9       7.1166      2.00000
     10       7.3817      2.00130
     11       8.8087     -0.00000
     12      11.3813     -0.00000
     13      16.1315      0.00000
     14      29.0279      0.00000
     15      30.5345      0.00000
     16      33.2224      0.00000
     17      34.4386      0.00000
     18      36.1753      0.00000
     19      36.4125      0.00000
     20      38.1910      0.00000
     21      39.3182      0.00000
     22      43.8687      0.00000
     23      44.0465      0.00000
     24      45.0478      0.00000
     25      45.6792      0.00000
     26      46.1190      0.00000
     27      46.3255      0.00000
     28      52.2829      0.00000
     29      54.5642      0.00000
     30      55.1859      0.00000
     31      55.2015      0.00000
     32      58.7747      0.00000
     33      59.7974      0.00000
     34      61.2765      0.00000
     35      62.0867      0.00000
     36      62.4177      0.00000
     37      63.8322      0.00000
     38      68.4897      0.00000
     39      68.4904      0.00000
     40      70.0489      0.00000

 k-point     8 :       0.1818    0.0909    0.0000
  band No.  band energies     occupation 
      1       0.7695      2.00000
      2       3.7293      2.00000
      3       4.4388      2.00000
      4       4.9317      2.00000
      5       5.7857      2.00000
      6       6.4501      2.00000
      7       6.6406      2.00000
      8       7.0977      2.00000
      9       7.5777      2.04200
     10       7.9246      0.84950
     11       8.8079     -0.00000
     12      13.3580     -0.00000
     13      16.3241      0.00000
     14      25.3296      0.00000
     15      28.0488      0.00000
     16      30.9155      0.00000
     17      33.1360      0.00000
     18      33.8445      0.00000
     19      37.1177      0.00000
     20      37.3632      0.00000
     21      38.5066      0.00000
     22      43.2584      0.00000
     23      43.2777      0.00000
     24      44.6772      0.00000
     25      47.7093      0.00000
     26      48.5238      0.00000
     27      50.6111      0.00000
     28      54.9375      0.00000
     29      56.9355      0.00000
     30      57.1690      0.00000
     31      57.7799      0.00000
     32      59.7599      0.00000
     33      60.1544      0.00000
     34      61.0162      0.00000
     35      61.7955      0.00000
     36      62.2101      0.00000
     37      64.5081      0.00000
     38      68.2915      0.00000
     39      69.0492      0.00000
     40      70.2415      0.00000

 k-point     9 :       0.2727    0.0909    0.0000
  band No.  band energies     occupation 
      1       2.1537      2.00000
      2       3.6281      2.00000
      3       3.7528      2.00000
      4       5.0403      2.00000
      5       5.8709      2.00000
      6       6.0530      2.00000
      7       6.6861      2.00000
      8       7.5047      2.01548
      9       8.4466     -0.00091
     10       8.7982     -0.00000
     11       8.9784     -0.00000
     12      15.5982      0.00000
     13      16.6308      0.00000
     14      21.5708      0.00000
     15      26.2586      0.00000
     16      27.4965      0.00000
     17      30.5257      0.00000
     18      31.9882      0.00000
     19      36.4397      0.00000
     20      37.6531      0.00000
     21      38.8026      0.00000
     22      42.6641      0.00000
     23      42.8202      0.00000
     24      45.7683      0.00000
     25      49.7907      0.00000
     26      52.4011      0.00000
     27      53.8916      0.00000
     28      54.3791      0.00000
     29      55.9994      0.00000
     30      58.4487      0.00000
     31      59.2781      0.00000
     32      61.2040      0.00000
     33      61.9000      0.00000
     34      62.1583      0.00000
     35      63.1784      0.00000
     36      64.7742      0.00000
     37      67.5051      0.00000
     38      68.0002      0.00000
     39      68.5069      0.00000
     40      70.3177      0.00000

 k-point    10 :       0.3636    0.0909    0.0000
  band No.  band energies     occupation 
      1       2.9375      2.00000
      2       3.3014      2.00000
      3       3.3377      2.00000
      4       5.5206      2.00000
      5       5.8147      2.00000
      6       6.2819      2.00000
[...]
     18      29.1136      0.00000
     19      34.5600      0.00000
     20      35.3114      0.00000
     21      39.0233      0.00000
     22      39.5914      0.00000
     23      44.6512      0.00000
     24      45.7578      0.00000
     25      51.6457      0.00000
     26      53.4312      0.00000
     27      55.6727      0.00000
     28      56.5629      0.00000
     29      58.8317      0.00000
     30      60.3783      0.00000
     31      61.6980      0.00000
     32      61.8109      0.00000
     33      64.1299      0.00000
     34      64.2506      0.00000
     35      65.5269      0.00000
     36      65.8686      0.00000
     37      66.8041      0.00000
     38      67.6884      0.00000
     39      70.0947      0.00000
     40      70.6344      0.00000

 k-point    91 :       0.4545    0.0909    0.4545
  band No.  band energies     occupation 
      1       2.6679      2.00000
      2       2.8266      2.00000
      3       4.1456      2.00000
      4       4.2484      2.00000
      5       6.7268      2.00000
      6       7.1730      2.00000
      7       7.9046      1.01814
      8       8.2418     -0.03924
      9       8.9543     -0.00000
     10       8.9786     -0.00000
     11      11.4800     -0.00000
     12      12.0136     -0.00000
     13      18.4030      0.00000
     14      18.4512      0.00000
     15      26.8310      0.00000
     16      27.5345      0.00000
     17      28.6047      0.00000
     18      29.0800      0.00000
     19      34.2521      0.00000
     20      34.5038      0.00000
     21      38.3790      0.00000
     22      38.4950      0.00000
     23      44.7677      0.00000
     24      45.9012      0.00000
     25      51.8368      0.00000
     26      53.6356      0.00000
     27      58.3362      0.00000
     28      59.4649      0.00000
     29      59.8921      0.00000
     30      60.3045      0.00000
     31      60.4783      0.00000
     32      60.9663      0.00000
     33      64.5421      0.00000
     34      65.0908      0.00000
     35      66.2533      0.00000
     36      66.8343      0.00000
     37      67.8067      0.00000
     38      67.9575      0.00000
     39      71.2212      0.00000
     40      71.3505      0.00000

 k-point    92 :       0.1818    0.1818    0.4545
  band No.  band energies     occupation 
      1       2.8320      2.00000
      2       3.0889      2.00000
      3       4.8123      2.00000
      4       4.8607      2.00000
      5       5.3567      2.00000
      6       5.4055      2.00000
      7       7.1148      2.00000
      8       7.3810      2.00128
      9       8.7144     -0.00000
     10       8.8677     -0.00000
     11       9.4114     -0.00000
     12       9.9870     -0.00000
     13      24.7779      0.00000
     14      24.7795      0.00000
     15      25.3632      0.00000
     16      26.3970      0.00000
     17      26.8913      0.00000
     18      28.0797      0.00000
     19      38.6442      0.00000
     20      39.7701      0.00000
     21      40.5428      0.00000
     22      41.7241      0.00000
     23      43.5240      0.00000
     24      43.6721      0.00000
     25      50.1585      0.00000
     26      50.6199      0.00000
     27      54.1458      0.00000
     28      55.0200      0.00000
     29      56.9369      0.00000
     30      58.0192      0.00000
     31      59.6106      0.00000
     32      60.0518      0.00000
     33      61.4941      0.00000
     34      61.5992      0.00000
     35      63.4967      0.00000
     36      63.5778      0.00000
     37      66.5686      0.00000
     38      68.4166      0.00000
     39      68.8897      0.00000
     40      69.3598      0.00000

 k-point    93 :       0.2727    0.1818    0.4545
  band No.  band energies     occupation 
      1       3.1553      2.00000
      2       3.2649      2.00000
      3       4.5760      2.00000
      4       4.7917      2.00000
      5       5.7160      2.00000
      6       5.8870      2.00000
      7       7.0187      2.00000
      8       7.2773      2.00008
      9       8.8281     -0.00000
     10       9.1152     -0.00000
     11      11.0431     -0.00000
     12      11.5947     -0.00000
     13      21.4976      0.00000
     14      22.0823      0.00000
     15      24.3502      0.00000
     16      25.1159      0.00000
     17      27.2736      0.00000
     18      29.0527      0.00000
     19      36.4290      0.00000
     20      38.0059      0.00000
     21      39.2779      0.00000
     22      40.8063      0.00000
     23      44.2511      0.00000
     24      44.7606      0.00000
     25      51.6124      0.00000
     26      52.1317      0.00000
     27      55.3424      0.00000
     28      57.1534      0.00000
     29      58.9815      0.00000
     30      60.5781      0.00000
     31      61.3763      0.00000
     32      61.7718      0.00000
     33      62.7802      0.00000
     34      62.8078      0.00000
     35      64.0111      0.00000
     36      64.5141      0.00000
     37      66.6079      0.00000
     38      68.1988      0.00000
     39      69.6560      0.00000
     40      70.0645      0.00000

 k-point    94 :       0.3636    0.1818    0.4545
  band No.  band energies     occupation 
      1       3.1671      2.00000
      2       3.3340      2.00000
      3       4.4471      2.00000
      4       4.6544      2.00000
      5       5.8445      2.00000
      6       6.2046      2.00000
      7       7.3879      2.00150
      8       7.5151      2.01826
      9       8.7967     -0.00000
     10       8.9886     -0.00000
     11      12.8521     -0.00000
     12      13.3103     -0.00000
     13      18.8371      0.00000
     14      19.2170      0.00000
     15      23.7085      0.00000
     16      24.4780      0.00000
     17      28.8876      0.00000
     18      30.0439      0.00000
     19      34.8300      0.00000
     20      35.9319      0.00000
     21      38.2274      0.00000
     22      39.8122      0.00000
     23      45.0338      0.00000
     24      45.4480      0.00000
     25      54.9235      0.00000
     26      55.4930      0.00000
     27      55.8988      0.00000
     28      57.4804      0.00000
     29      59.4312      0.00000
     30      59.9209      0.00000
     31      60.3086      0.00000
     32      61.3755      0.00000
     33      63.5349      0.00000
     34      63.6989      0.00000
     35      65.8451      0.00000
     36      66.1650      0.00000
     37      67.8623      0.00000
     38      68.1206      0.00000
     39      69.0520      0.00000
     40      69.9107      0.00000

 k-point    95 :       0.2727    0.2727    0.4545
  band No.  band energies     occupation 
      1       3.5981      2.00000
      2       3.6685      2.00000
      3       4.6878      2.00000
      4       4.9255      2.00000
      5       5.3696      2.00000
      6       5.6040      2.00000
      7       6.9096      2.00000
      8       7.1293      2.00000
      9       8.8134     -0.00000
     10       9.0196     -0.00000
     11      13.3275     -0.00000
     12      13.8706      0.00000
     13      19.8616      0.00000
     14      20.3184      0.00000
     15      21.8668      0.00000
     16      22.2905      0.00000
     17      29.0877      0.00000
     18      30.7541      0.00000
     19      34.8541      0.00000
     20      36.3119      0.00000
     21      37.9821      0.00000
     22      39.1649      0.00000
     23      47.2309      0.00000
     24      47.6649      0.00000
     25      51.9220      0.00000
     26      51.9908      0.00000
     27      58.1858      0.00000
     28      59.0878      0.00000
     29      59.5768      0.00000
     30      60.1578      0.00000
     31      61.7637      0.00000
     32      61.7836      0.00000
     33      61.9613      0.00000
     34      62.0679      0.00000
     35      65.1889      0.00000
     36      65.5896      0.00000
     37      67.5514      0.00000
     38      67.8704      0.00000
     39      68.3847      0.00000
     40      68.7235      0.00000

 k-point    96 :       0.3636    0.2727    0.4545
  band No.  band energies     occupation 
      1       3.8220      2.00000
      2       3.9678      2.00000
      3       4.6029      2.00000
      4       4.6935      2.00000
      5       5.3874      2.00000
      6       5.5260      2.00000
      7       6.9735      2.00000
      8       7.1385      2.00000
      9       8.7875     -0.00000
     10       8.8633     -0.00000
     11      15.2348      0.00000
     12      15.3846      0.00000
     13      18.1298      0.00000
     14      18.4944      0.00000
     15      21.2135      0.00000
     16      21.6558      0.00000
     17      30.8000      0.00000
     18      31.6612      0.00000
     19      33.9648      0.00000
     20      34.1981      0.00000
     21      37.7362      0.00000
     22      38.5927      0.00000
     23      48.5227      0.00000
     24      49.1737      0.00000
     25      53.3049      0.00000
     26      53.7353      0.00000
     27      56.4160      0.00000
     28      56.7640      0.00000
     29      59.5746      0.00000
     30      60.4815      0.00000
     31      61.6806      0.00000
     32      62.0380      0.00000
     33      62.9873      0.00000
     34      63.1485      0.00000
     35      63.7687      0.00000
     36      65.2150      0.00000
     37      66.8275      0.00000
     38      68.1775      0.00000
     39      70.2616      0.00000
     40      70.4795      0.00000


--------------------------------------------------------------------------------------------------------


 soft charge-density along one line, spin component           1
         0         1         2         3         4         5         6         7         8         9
x     7.7881    0.0000    0.0782   -0.1355   -0.0540   -0.0935    0.0210   -0.0000    0.0012   -0.0021
x     0.0000    0.0000
y     7.7881    0.0000    0.0782    0.1355   -0.0540    0.0935    0.0210    0.0000    0.0012    0.0021
y     0.0000    0.0000
z     7.7881    0.0000    0.0000    0.0000    0.4076    0.0000    0.0000    0.0000   -0.1524   -0.0000
z     0.0000    0.0000    0.0213    0.0000    0.0000    0.0000    0.0058   -0.0000    0.0000    0.0000
 total charge-density along one line
x    16.0000    0.0000    1.4334   -2.4827    0.2737    0.4741    0.0140    0.0000    0.0018   -0.0030
x    -0.0002   -0.0003    0.0003   -0.0000   -0.0001    0.0001    0.0000    0.0000   -0.0001    0.0000
x     0.0000    0.0000
y    16.0000    0.0000    1.4334    2.4827    0.2737   -0.4741    0.0140   -0.0000    0.0018    0.0030
y    -0.0002    0.0003    0.0003    0.0000   -0.0001   -0.0001    0.0000   -0.0000   -0.0001   -0.0000
y     0.0000   -0.0000
z    16.0000    0.0000    0.0000    0.0000    5.9025   -0.0000    0.0000    0.0000    1.2445   -0.0000
z     0.0000   -0.0000    0.0296   -0.0000    0.0000    0.0000    0.0065    0.0000    0.0000    0.0000
z     0.0002   -0.0000   -0.0000   -0.0000   -0.0001    0.0000   -0.0000   -0.0000    0.0001    0.0000
z    -0.0000   -0.0000   -0.0001   -0.0000    0.0000    0.0000    0.0000   -0.0000
 
 pseudopotential strength for first ion, spin component:           1
 -3.850  -0.000  -0.000  -0.000  -0.000  -4.430  -0.000  -0.000
 -0.000  -3.837  -0.000  -0.000   0.000  -0.000  -4.417  -0.000
 -0.000  -0.000  -3.846  -0.000  -0.000  -0.000  -0.000  -4.426
 -0.000  -0.000  -0.000  -3.837  -0.000  -0.000  -0.000  -0.000
 -0.000   0.000  -0.000  -0.000  -3.850  -0.000   0.000  -0.000
 -4.430  -0.000  -0.000  -0.000  -0.000  -4.968  -0.000  -0.000
 -0.000  -4.417  -0.000  -0.000   0.000  -0.000  -4.955  -0.000
 -0.000  -0.000  -4.426  -0.000  -0.000  -0.000  -0.000  -4.963
 -0.000  -0.000  -0.000  -4.417  -0.000  -0.000  -0.000  -0.000
 -0.000   0.000  -0.000  -0.000  -4.430  -0.000   0.000  -0.000
  0.000   0.000   0.000   0.000  -0.000   0.000   0.000   0.000
  0.000   0.000   0.001   0.000  -0.000   0.000   0.000   0.001
 -0.000   0.000   0.000  -0.000  -0.001  -0.000   0.000   0.000
 -0.000  -0.000   0.000  -0.000   0.000  -0.000  -0.000   0.000
 -0.001  -0.000   0.000   0.000  -0.000  -0.001  -0.000   0.000
 -0.000   0.000   0.000  -0.000  -0.001  -0.000   0.000   0.000
 -0.000  -0.000   0.000  -0.000   0.000  -0.000  -0.000   0.000
 -0.001  -0.000   0.000   0.000  -0.000  -0.001  -0.000   0.000
 total augmentation occupancy for first ion, spin component:           1
  1.759  -0.000   0.000   0.000  -0.000  -1.276   0.000  -0.000   0.000   0.000   0.000  -0.000   0.000   0.000   0.038  -0.000
  0.000   2.224  -0.000  -0.000   0.000   0.000  -1.499  -0.000   0.000   0.000   0.000  -0.000   0.000  -0.000  -0.000  -0.000
  0.000   0.000   1.414  -0.000  -0.000  -0.000   0.000  -0.982   0.000   0.000   0.037  -0.011   0.000   0.000   0.000   0.000
  0.000  -0.000   0.000   2.224   0.000   0.000   0.000  -0.000  -1.499   0.000  -0.000   0.000   0.000   0.000   0.000   0.000
 -0.000  -0.000  -0.000  -0.000   1.759   0.000   0.000   0.000   0.000  -1.276   0.000   0.000   0.038   0.000  -0.000  -0.002
 -1.276   0.000  -0.000   0.000   0.000   2.171  -0.000   0.000  -0.000  -0.000   0.000   0.000  -0.000  -0.000  -0.053   0.000
  0.000  -1.499  -0.000   0.000   0.000   0.000   2.120   0.000  -0.000   0.000   0.000   0.000   0.000   0.000   0.000   0.000
 -0.000   0.000  -0.982   0.000   0.000   0.000   0.000   1.912  -0.000  -0.000  -0.110   0.007   0.000   0.000  -0.000  -0.000
  0.000   0.000   0.000  -1.499   0.000  -0.000  -0.000   0.000   2.120   0.000  -0.000   0.000  -0.000   0.000   0.000   0.000
  0.000   0.000   0.000   0.000  -1.276   0.000   0.000  -0.000  -0.000   2.171  -0.000   0.000  -0.053   0.000   0.000   0.003
  0.000   0.000   0.037  -0.000   0.000  -0.000  -0.000  -0.110  -0.000  -0.000   2.937  -0.348  -0.000   0.000  -0.000   0.000
 -0.000  -0.000  -0.011  -0.000   0.000   0.000  -0.000   0.007  -0.000   0.000  -0.348   0.047   0.000   0.000  -0.000   0.000
  0.000  -0.000   0.000   0.000   0.038  -0.000  -0.000   0.000   0.000  -0.053   0.000   0.000   0.400  -0.000  -0.000  -0.031
  0.000  -0.000   0.000   0.000   0.000  -0.000   0.000   0.000   0.000   0.000   0.000   0.000  -0.000   0.378  -0.000  -0.000
  0.038  -0.000   0.000   0.000  -0.000  -0.053  -0.000  -0.000   0.000   0.000  -0.000  -0.000  -0.000   0.000   0.400   0.000
 -0.000   0.000   0.000   0.000  -0.002   0.000   0.000  -0.000   0.000   0.003   0.000   0.000  -0.031  -0.000   0.000   0.003
 -0.000   0.000   0.000  -0.000   0.000   0.000   0.000   0.000   0.000  -0.000   0.000   0.000  -0.000  -0.034   0.000   0.000
 -0.002   0.000  -0.000   0.000   0.000   0.003   0.000   0.000   0.000  -0.000   0.000   0.000   0.000   0.000  -0.031  -0.000


------------------------ aborting loop because EDIFF is reached ----------------------------------------


    CHARGE:  cpu time    0.0197: real time    0.0197
    FORLOC:  cpu time    0.0002: real time    0.0002
    FORNL :  cpu time    0.1018: real time    0.1018
    STRESS:  cpu time    0.1417: real time    0.1417
    FORCOR:  cpu time    0.0034: real time    0.0034
    FORHAR:  cpu time    0.0007: real time    0.0007
    MIXING:  cpu time    0.0003: real time    0.0003

  FORCE on cell =-STRESS in cart. coord.  units (eV):
  Direction    XX          YY          ZZ          XY          YZ          ZX
  --------------------------------------------------------------------------------------
  Alpha Z   147.80622   147.80622   147.80622
  Ewald    -406.01345  -406.01345  -450.29056     0.00000     0.00000    -0.00000
  Hartree    59.03104    59.03104    43.16786    -0.00000    -0.00000    -0.00000
  E(xc)     -79.54370   -79.54371   -79.27273     0.00015    -0.00000     0.00000
  Local     106.75759   106.75777   163.91252    -0.00073     0.00000    -0.00000
  n-local   -50.63174   -50.06162   -52.78489    -4.59147     1.44903     0.98055
  augment    75.24267    75.24236    75.67270     0.00087     0.00000    -0.00000
  Kinetic   156.23662   149.85146   150.61770     1.40935    -0.96634     0.16527
  Fock        0.00000     0.00000     0.00000     0.00000     0.00000     0.00000
  -------------------------------------------------------------------------------------
  Total       5.97765     5.97765    -1.17117    -0.00000     0.00000     0.00000
  in kB     512.04621   512.04621  -100.32292    -0.00000     0.00000     0.00000
  external pressure =      307.92 kB  Pullay stress =        0.00 kB


 VOLUME and BASIS-vectors are now :
 -----------------------------------------------------------------------------
  energy-cutoff  :      280.00
  volume of cell :       18.70
      direct lattice vectors                 reciprocal lattice vectors
     2.306700000  0.000000000  0.000000000     0.433519747  0.250292743  0.000000000
    -1.153350000  1.997660799  0.000000000     0.000000000  0.500585485  0.000000000
     0.000000000  0.000000000  4.059000000     0.000000000  0.000000000  0.246366100

  length of vectors
     2.306700000  2.306700000  4.059000000     0.500585485  0.500585485  0.246366100


 FORCES acting on ions
    electron-ion (+dipol)            ewald-force                    non-local-force                 convergence-correction
 -----------------------------------------------------------------------------------------------
   0.633E-06 -.450E-06 -.187E-14   0.581E-12 -.318E-12 -.261E-13   0.318E-16 -.886E-18 -.382E-19   -.212E-08 0.122E-08 -.103E-13
   -.571E-05 0.424E-05 0.265E-12   -.572E-12 0.318E-12 0.261E-13   -.335E-16 0.111E-17 -.286E-19   0.214E-08 -.123E-08 0.414E-13
 -----------------------------------------------------------------------------------------------
   -.507E-05 0.379E-05 0.263E-12   0.850E-14 -.914E-15 -.794E-17   -.175E-17 0.228E-18 -.668E-19   0.151E-10 -.882E-11 0.311E-13
 
 
 POSITION                                       TOTAL-FORCE (eV/Angst)
 -----------------------------------------------------------------------------------
      0.00000      0.00000      0.00000        -0.000000      0.000000      0.000000
      0.00000      1.33177      2.02950         0.000000     -0.000000     -0.000000
 -----------------------------------------------------------------------------------
    total drift:                               -0.000005      0.000004      0.000000


--------------------------------------------------------------------------------------------------------



  FREE ENERGIE OF THE ION-ELECTRON SYSTEM (eV)
  ---------------------------------------------------
  free  energy   TOTEN  =       -15.93156454 eV

  energy  without entropy=      -15.93307808  energy(sigma->0) =      -15.93206905
 


--------------------------------------------------------------------------------------------------------


    POTLOK:  cpu time    0.0056: real time    0.0057


--------------------------------------------------------------------------------------------------------


 writing wavefunctions
     LOOP+:  cpu time   10.3590: real time   10.3787
    4ORBIT:  cpu time    0.0000: real time    0.0000

 total amount of memory used by VASP MPI-rank0    48790. kBytes
=======================================================================

   base      :      30000. kBytes
   nonl-proj :       2895. kBytes
   grid      :        812. kBytes
   one-center:         31. kBytes
   wavefun   :      15052. kBytes
 
  
  
 General timing and accounting informations for this job:
 ========================================================
  
                  Total CPU time used (sec):       10.558
                            User time (sec):       10.506
                          System time (sec):        0.052
                         Elapsed time (sec):       10.567
  
                   Maximum memory used (kb):       53508.
                   Average memory used (kb):          N/A
  
                          Minor page faults:         6997
                          Major page faults:            0
                 Voluntary context switches:           26
