 vasp.6.2.0 18Jan21 (build Mar 17 2021 09:06:54) complex                        
  
 POSCAR found type information on POSCAR Fe
 POSCAR found :  1 types and       2 ions
 LDA part: xc-table for Pade appr. of Perdew
 POSCAR, INCAR and KPOINTS ok, starting setup
 FFT: planning ...
 WAVECAR not read
 WARNING: chargedensity file is incomplete
 entering main loop
       N       E                     dE             d eps       ncg     rms          rms(c)
DAV:   1     0.597274873919E+02    0.59727E+02   -0.24938E+03  9472   0.327E+02
DAV:   2    -0.146620642716E+02   -0.74390E+02   -0.63589E+02  7832   0.968E+01
DAV:   3    -0.188162772503E+02   -0.41542E+01   -0.39836E+01  9584   0.238E+01
DAV:   4    -0.188320310921E+02   -0.15754E-01   -0.15744E-01  9032   0.153E+00
DAV:   5    -0.188320427394E+02   -0.11647E-04   -0.11649E-04  9184   0.400E-02    0.186E+01
DAV:   6    -0.161075362092E+02    0.27245E+01   -0.15084E+00 11272   0.230E+01    0.160E+00
DAV:   7    -0.159724855855E+02    0.13505E+00   -0.76314E-02  9904   0.404E+00    0.132E+00
DAV:   8    -0.159401774214E+02    0.32308E-01   -0.24239E-03 10176   0.319E-01    0.550E-01
DAV:   9    -0.159315606016E+02    0.86168E-02   -0.84826E-04 10680   0.161E-01    0.579E-02
DAV:  10    -0.159315790525E+02   -0.18451E-04   -0.27827E-05  8544   0.231E-02    0.235E-02
DAV:  11    -0.159315654785E+02    0.13574E-04   -0.24328E-07  8488   0.492E-03    0.187E-03
DAV:  12    -0.159315641757E+02    0.13027E-05   -0.83203E-08  6128   0.149E-03    0.114E-03
DAV:  13    -0.159315645418E+02   -0.36607E-06   -0.89063E-09  5424   0.446E-04
   1 F= -.15931565E+02 E0= -.15932069E+02  d E =0.151354E-02
 writing wavefunctions
