unknown system                          
   1.00000000000000     
     3.445083    0.000000    0.000000
     0.000000    3.445083    0.000000
     0.000000    0.000000    3.445083
   Fe
     4
Direct
  0.000000  0.000000  0.000000
  0.500000  0.500000  0.000000
  0.500000  0.000000  0.500000
  0.000000  0.500000  0.500000
 
   28   28   28
  343.09      323.10      270.10      200.75      132.50      77.410      40.841      22.200      15.662      13.005    
  11.367      10.323      9.7217      9.5355      9.5309      9.5355      9.7217      10.323      11.367      13.005    
  15.662      22.200      40.841      77.410      132.50      200.75      270.10      323.10      323.10      304.24    
  254.23      188.77      124.42      72.690      38.637      21.528      15.575      12.995      11.394      10.364    
  9.7584      9.5521      9.5355      9.5521      9.7584      10.364      11.394      12.995      15.575      21.528    
  38.637      72.690      124.42      188.77      254.23      304.24      270.10      254.23      212.11      157.02    
  103.14      60.405      33.043      19.909      15.352      12.990      11.521      10.568      9.9876      9.7584    
  9.7217      9.7584      9.9876      10.568      11.521      12.990      15.352      19.909      33.043      60.405    
  103.14      157.02      212.11      254.23      200.75      188.77      157.02      115.70      75.815      45.092    
  26.464      18.203      15.040      13.039      11.818      11.041      10.568      10.364      10.323      10.364    
  10.568      11.041      11.818      13.039      15.040      18.203      26.464      45.092      75.815      115.70    
  157.02      188.77      132.50      124.42      103.14      75.815      50.195      31.523      21.212      16.992    
  14.721      13.210      12.335      11.818      11.521      11.394      11.367      11.394      11.521      11.818    
  12.335      13.210      14.721      16.992      21.212      31.523      50.195      75.815      103.14      124.42    
  77.410      72.690      60.405      45.092      31.523      22.558      18.220      16.094      14.548      13.639    
  13.210      13.039      12.990      12.995      13.005      12.995      12.990      13.039      13.210      13.639    
  14.548      16.094      18.220      22.558      31.523      45.092      60.405      72.690      40.841      38.637    
  33.043      26.464      21.212      18.220      16.620      15.414      14.724      14.548      14.721      15.040    
  15.352      15.575      15.662      15.575      15.352      15.040      14.721      14.548      14.724      15.414    
  16.620      18.220      21.212      26.464      33.043      38.637      22.200      21.528      19.909      18.203    
  16.992      16.094      15.414      15.159      15.414      16.094      16.992      18.203      19.909      21.528    
  22.200      21.528      19.909      18.203      16.992      16.094      15.414      15.159      15.414      16.094    
  16.992      18.203      19.909      21.528      15.662      15.575      15.352      15.040      14.721      14.548    
  14.724      15.414      16.620      18.220      21.212      26.464      33.043      38.637      40.841      38.637    
  33.043      26.464      21.212      18.220      16.620      15.414      14.724      14.548      14.721      15.040    
  15.352      15.575      13.005      12.995      12.990      13.039      13.210      13.639      14.548      16.094    
  18.220      22.558      31.523      45.092      60.405      72.690      77.410      72.690      60.405      45.092    
  31.523      22.558      18.220      16.094      14.548      13.639      13.210      13.039      12.990      12.995    
  11.367      11.394      11.521      11.818      12.335      13.210      14.721      16.992      21.212      31.523    
  50.195      75.815      103.14      124.42      132.50      124.42      103.14      75.815      50.195      31.523    
  21.212      16.992      14.721      13.210      12.335      11.818      11.521      11.394      10.323      10.364    
  10.568      11.041      11.818      13.039      15.040      18.203      26.464      45.092      75.815      115.70    
  157.02      188.77      200.75      188.77      157.02      115.70      75.815      45.092      26.464      18.203    
  15.040      13.039      11.818      11.041      10.568      10.364      9.7217      9.7584      9.9876      10.568    
  11.521      12.990      15.352      19.909      33.043      60.405      103.14      157.02      212.11      254.23    
  270.10      254.23      212.11      157.02      103.14      60.405      33.043      19.909      15.352      12.990    
  11.521      10.568      9.9876      9.7584      9.5355      9.5521      9.7584      10.364      11.394      12.995    
  15.575      21.528      38.637      72.690      124.42      188.77      254.23      304.24      323.10      304.24    
  254.23      188.77      124.42      72.690      38.637      21.528      15.575      12.995      11.394      10.364    
  9.7584      9.5521      9.5309      9.5355      9.7217      10.323      11.367      13.005      15.662      22.200    
  40.841      77.410      132.50      200.75      270.10      323.10      343.09      323.10      270.10      200.75    
  132.50      77.410      40.841      22.200      15.662      13.005      11.367      10.323      9.7217      9.5355    
  9.5355      9.5521      9.7584      10.364      11.394      12.995      15.575      21.528      38.637      72.690    
  124.42      188.77      254.23      304.24      323.10      304.24      254.23      188.77      124.42      72.690    
  38.637      21.528      15.575      12.995      11.394      10.364      9.7584      9.5521      9.7217      9.7584    
  9.9876      10.568      11.521      12.990      15.352      19.909      33.043      60.405      103.14      157.02    
  212.11      254.23      270.10      254.23      212.11      157.02      103.14      60.405      33.043      19.909    
  15.352      12.990      11.521      10.568      9.9876      9.7584      10.323      10.364      10.568      11.041    
  11.818      13.039      15.040      18.203      26.464      45.092      75.815      115.70      157.02      188.77    
  200.75      188.77      157.02      115.70      75.815      45.092      26.464      18.203      15.040      13.039    
  11.818      11.041      10.568      10.364      11.367      11.394      11.521      11.818      12.335      13.210    
  14.721      16.992      21.212      31.523      50.195      75.815      103.14      124.42      132.50      124.42    
  103.14      75.815      50.195      31.523      21.212      16.992      14.721      13.210      12.335      11.818    
  11.521      11.394      13.005      12.995      12.990      13.039      13.210      13.639      14.548      16.094    
  18.220      22.558      31.523      45.092      60.405      72.690      77.410      72.690      60.405      45.092    
  31.523      22.558      18.220      16.094      14.548      13.639      13.210      13.039      12.990      12.995    
  15.662      15.575      15.352      15.040      14.721      14.548      14.724      15.414      16.620      18.220    
  21.212      26.464      33.043      38.637      40.841      38.637      33.043      26.464      21.212      18.220    
  16.620      15.414      14.724      14.548      14.721      15.040      15.352      15.575      22.200      21.528    
  19.909      18.203      16.992      16.094      15.414      15.159      15.414      16.094      16.992      18.203    
  19.909      21.528      22.200      21.528      19.909      18.203      16.992      16.094      15.414      15.159    
  15.414      16.094      16.992      18.203      19.909      21.528      40.841      38.637      33.043      26.464    
  21.212      18.220      16.620      15.414      14.724      14.548      14.721      15.040      15.352      15.575    
  15.662      15.575      15.352      15.040      14.721      14.548      14.724      15.414      16.620      18.220    
  21.212      26.464      33.043      38.637      77.410      72.690      60.405      45.092      31.523      22.558    
  18.220      16.094      14.548      13.639      13.210      13.039      12.990      12.995      13.005      12.995    
  12.990      13.039      13.210      13.639      14.548      16.094      18.220      22.558      31.523      45.092    
  60.405      72.690      132.50      124.42      103.14      75.815      50.195      31.523      21.212      16.992    
  14.721      13.210      12.335      11.818      11.521      11.394      11.367      11.394      11.521      11.818    
  12.335      13.210      14.721      16.992      21.212      31.523      50.195      75.815      103.14      124.42    
  200.75      188.77      157.02      115.70      75.815      45.092      26.464      18.203      15.040      13.039    
  11.818      11.041      10.568      10.364      10.323      10.364      10.568      11.041      11.818      13.039    
  15.040      18.203      26.464      45.092      75.815      115.70      157.02      188.77      270.10      254.23    
  212.11      157.02      103.14      60.405      33.043      19.909      15.352      12.990      11.521      10.568    
  9.9876      9.7584      9.7217      9.7584      9.9876      10.568      11.521      12.990      15.352      19.909    
  33.043      60.405      103.14      157.02      212.11      254.23      323.10      304.24      254.23      188.77    
  124.42      72.690      38.637      21.528      15.575      12.995      11.394      10.364      9.7584      9.5521    
  9.5355      9.5521      9.7584      10.364      11.394      12.995      15.575      21.528      38.637      72.690    
  124.42      188.77      254.23      304.24      323.10      304.24      254.23      188.77      124.42      72.690    
  38.637      21.528      15.575      12.995      11.394      10.364      9.7584      9.5521      9.5355      9.5521    
  9.7584      10.364      11.394      12.995      15.575      21.528      38.637      72.690      124.42      188.77    
  254.23      304.24      304.24      286.44      239.24      177.47      116.83      68.281      36.601      20.921    
  15.492      12.987      11.425      10.411      9.8030      9.5794      9.5521      9.5794      9.8030      10.411    
  11.425      12.987      15.492      20.921      36.601      68.281      116.83      177.47      239.24      286.44    
  254.23      239.24      199.50      147.56      96.843      56.822      31.450      19.464      15.272      12.982    
  11.555      10.622      10.044      9.8030      9.7584      9.8030      10.044      10.622      11.555      12.982    
  15.272      19.464      31.450      56.822      96.843      147.56      199.50      239.24      188.77      177.47    
  147.56      108.66      71.233      42.587      25.425      17.932      14.957      13.028      11.847      11.091    
  10.622      10.411      10.364      10.411      10.622      11.091      11.847      13.028      14.957      17.932    
  25.425      42.587      71.233      108.66      147.56      177.47      124.42      116.83      96.843      71.233    
  47.329      30.059      20.659      16.820      14.636      13.188      12.347      11.847      11.555      11.425    
  11.394      11.425      11.555      11.847      12.347      13.188      14.636      16.820      20.659      30.059    
  47.329      71.233      96.843      116.83      72.690      68.281      56.822      42.587      30.059      21.878    
  17.957      15.936      14.457      13.593      13.188      13.028      12.982      12.987      12.995      12.987    
  12.982      13.028      13.188      13.593      14.457      15.936      17.957      21.878      30.059      42.587    
  56.822      68.281      38.637      36.601      31.450      25.425      20.659      17.957      16.433      15.271    
  14.616      14.457      14.636      14.957      15.272      15.492      15.575      15.492      15.272      14.957    
  14.636      14.457      14.616      15.271      16.433      17.957      20.659      25.425      31.450      36.601    
  21.528      20.921      19.464      17.932      16.820      15.936      15.271      15.024      15.271      15.936    
  16.820      17.932      19.464      20.921      21.528      20.921      19.464      17.932      16.820      15.936    
  15.271      15.024      15.271      15.936      16.820      17.932      19.464      20.921      15.575      15.492    
  15.272      14.957      14.636      14.457      14.616      15.271      16.433      17.957      20.659      25.425    
  31.450      36.601      38.637      36.601      31.450      25.425      20.659      17.957      16.433      15.271    
  14.616      14.457      14.636      14.957      15.272      15.492      12.995      12.987      12.982      13.028    
  13.188      13.593      14.457      15.936      17.957      21.878      30.059      42.587      56.822      68.281    
  72.690      68.281      56.822      42.587      30.059      21.878      17.957      15.936      14.457      13.593    
  13.188      13.028      12.982      12.987      11.394      11.425      11.555      11.847      12.347      13.188    
  14.636      16.820      20.659      30.059      47.329      71.233      96.843      116.83      124.42      116.83    
  96.843      71.233      47.329      30.059      20.659      16.820      14.636      13.188      12.347      11.847    
  11.555      11.425      10.364      10.411      10.622      11.091      11.847      13.028      14.957      17.932    
  25.425      42.587      71.233      108.66      147.56      177.47      188.77      177.47      147.56      108.66    
  71.233      42.587      25.425      17.932      14.957      13.028      11.847      11.091      10.622      10.411    
  9.7584      9.8030      10.044      10.622      11.555      12.982      15.272      19.464      31.450      56.822    
  96.843      147.56      199.50      239.24      254.23      239.24      199.50      147.56      96.843      56.822    
  31.450      19.464      15.272      12.982      11.555      10.622      10.044      9.8030      9.5521      9.5794    
  9.8030      10.411      11.425      12.987      15.492      20.921      36.601      68.281      116.83      177.47    
  239.24      286.44      304.24      286.44      239.24      177.47      116.83      68.281      36.601      20.921    
  15.492      12.987      11.425      10.411      9.8030      9.5794      9.5355      9.5521      9.7584      10.364    
  11.394      12.995      15.575      21.528      38.637      72.690      124.42      188.77      254.23      304.24    
  323.10      304.24      254.23      188.77      124.42      72.690      38.637      21.528      15.575      12.995    
  11.394      10.364      9.7584      9.5521      9.5521      9.5794      9.8030      10.411      11.425      12.987    
  15.492      20.921      36.601      68.281      116.83      177.47      239.24      286.44      304.24      286.44    
  239.24      177.47      116.83      68.281      36.601      20.921      15.492      12.987      11.425      10.411    
  9.8030      9.5794      9.7584      9.8030      10.044      10.622      11.555      12.982      15.272      19.464    
  31.450      56.822      96.843      147.56      199.50      239.24      254.23      239.24      199.50      147.56    
  96.843      56.822      31.450      19.464      15.272      12.982      11.555      10.622      10.044      9.8030    
  10.364      10.411      10.622      11.091      11.847      13.028      14.957      17.932      25.425      42.587    
  71.233      108.66      147.56      177.47      188.77      177.47      147.56      108.66      71.233      42.587    
  25.425      17.932      14.957      13.028      11.847      11.091      10.622      10.411      11.394      11.425    
  11.555      11.847      12.347      13.188      14.636      16.820      20.659      30.059      47.329      71.233    
  96.843      116.83      124.42      116.83      96.843      71.233      47.329      30.059      20.659      16.820    
  14.636      13.188      12.347      11.847      11.555      11.425      12.995      12.987      12.982      13.028    
  13.188      13.593      14.457      15.936      17.957      21.878      30.059      42.587      56.822      68.281    
  72.690      68.281      56.822      42.587      30.059      21.878      17.957      15.936      14.457      13.593    
  13.188      13.028      12.982      12.987      15.575      15.492      15.272      14.957      14.636      14.457    
  14.616      15.271      16.433      17.957      20.659      25.425      31.450      36.601      38.637      36.601    
  31.450      25.425      20.659      17.957      16.433      15.271      14.616      14.457      14.636      14.957    
  15.272      15.492      21.528      20.921      19.464      17.932      16.820      15.936      15.271      15.024    
  15.271      15.936      16.820      17.932      19.464      20.921      21.528      20.921      19.464      17.932    
  16.820      15.936      15.271      15.024      15.271      15.936      16.820      17.932      19.464      20.921    
  38.637      36.601      31.450      25.425      20.659      17.957      16.433      15.271      14.616      14.457    
  14.636      14.957      15.272      15.492      15.575      15.492      15.272      14.957      14.636      14.457    
  14.616      15.271      16.433      17.957      20.659      25.425      31.450      36.601      72.690      68.281    
  56.822      42.587      30.059      21.878      17.957      15.936      14.457      13.593      13.188      13.028    
  12.982      12.987      12.995      12.987      12.982      13.028      13.188      13.593      14.457      15.936    
  17.957      21.878      30.059      42.587      56.822      68.281      124.42      116.83      96.843      71.233    
  47.329      30.059      20.659      16.820      14.636      13.188      12.347      11.847      11.555      11.425    
  11.394      11.425      11.555      11.847      12.347      13.188      14.636      16.820      20.659      30.059    
  47.329      71.233      96.843      116.83      188.77      177.47      147.56      108.66      71.233      42.587    
  25.425      17.932      14.957      13.028      11.847      11.091      10.622      10.411      10.364      10.411    
  10.622      11.091      11.847      13.028      14.957      17.932      25.425      42.587      71.233      108.66    
  147.56      177.47      254.23      239.24      199.50      147.56      96.843      56.822      31.450      19.464    
  15.272      12.982      11.555      10.622      10.044      9.8030      9.7584      9.8030      10.044      10.622    
  11.555      12.982      15.272      19.464      31.450      56.822      96.843      147.56      199.50      239.24    
  304.24      286.44      239.24      177.47      116.83      68.281      36.601      20.921      15.492      12.987    
  11.425      10.411      9.8030      9.5794      9.5521      9.5794      9.8030      10.411      11.425      12.987    
  15.492      20.921      36.601      68.281      116.83      177.47      239.24      286.44      270.10      254.23    
  212.11      157.02      103.14      60.405      33.043      19.909      15.352      12.990      11.521      10.568    
  9.9876      9.7584      9.7217      9.7584      9.9876      10.568      11.521      12.990      15.352      19.909    
  33.043      60.405      103.14      157.02      212.11      254.23      254.23      239.24      199.50      147.56    
  96.843      56.822      31.450      19.464      15.272      12.982      11.555      10.622      10.044      9.8030    
  9.7584      9.8030      10.044      10.622      11.555      12.982      15.272      19.464      31.450      56.822    
  96.843      147.56      199.50      239.24      212.11      199.50      166.09      122.52      80.308      47.554    
  27.451      18.400      15.047      12.975      11.684      10.833      10.292      10.044      9.9876      10.044    
  10.292      10.833      11.684      12.975      15.047      18.400      27.451      47.554      80.308      122.52    
  166.09      199.50      157.02      147.56      122.52      90.128      59.282      36.176      22.854      17.274    
  14.728      13.007      11.952      11.269      10.833      10.622      10.568      10.622      10.833      11.269    
  11.952      13.007      14.728      17.274      22.854      36.176      59.282      90.128      122.52      147.56    
  103.14      96.843      80.308      59.282      39.955      26.382      19.313      16.353      14.406      13.135    
  12.396      11.952      11.684      11.555      11.521      11.555      11.684      11.952      12.396      13.135    
  14.406      16.353      19.313      26.382      39.955      59.282      80.308      96.843      60.405      56.822    
  47.554      36.176      26.382      20.212      17.292      15.513      14.218      13.476      13.135      13.007    
  12.975      12.982      12.990      12.982      12.975      13.007      13.135      13.476      14.218      15.513    
  17.292      20.212      26.382      36.176      47.554      56.822      33.043      31.450      27.451      22.854    
  19.313      17.292      15.930      14.895      14.333      14.218      14.406      14.728      15.047      15.272    
  15.352      15.272      15.047      14.728      14.406      14.218      14.333      14.895      15.930      17.292    
  19.313      22.854      27.451      31.450      19.909      19.464      18.400      17.274      16.353      15.513    
  14.895      14.668      14.895      15.513      16.353      17.274      18.400      19.464      19.909      19.464    
  18.400      17.274      16.353      15.513      14.895      14.668      14.895      15.513      16.353      17.274    
  18.400      19.464      15.352      15.272      15.047      14.728      14.406      14.218      14.333      14.895    
  15.930      17.292      19.313      22.854      27.451      31.450      33.043      31.450      27.451      22.854    
  19.313      17.292      15.930      14.895      14.333      14.218      14.406      14.728      15.047      15.272    
  12.990      12.982      12.975      13.007      13.135      13.476      14.218      15.513      17.292      20.212    
  26.382      36.176      47.554      56.822      60.405      56.822      47.554      36.176      26.382      20.212    
  17.292      15.513      14.218      13.476      13.135      13.007      12.975      12.982      11.521      11.555    
  11.684      11.952      12.396      13.135      14.406      16.353      19.313      26.382      39.955      59.282    
  80.308      96.843      103.14      96.843      80.308      59.282      39.955      26.382      19.313      16.353    
  14.406      13.135      12.396      11.952      11.684      11.555      10.568      10.622      10.833      11.269    
  11.952      13.007      14.728      17.274      22.854      36.176      59.282      90.128      122.52      147.56    
  157.02      147.56      122.52      90.128      59.282      36.176      22.854      17.274      14.728      13.007    
  11.952      11.269      10.833      10.622      9.9876      10.044      10.292      10.833      11.684      12.975    
  15.047      18.400      27.451      47.554      80.308      122.52      166.09      199.50      212.11      199.50    
  166.09      122.52      80.308      47.554      27.451      18.400      15.047      12.975      11.684      10.833    
  10.292      10.044      9.7584      9.8030      10.044      10.622      11.555      12.982      15.272      19.464    
  31.450      56.822      96.843      147.56      199.50      239.24      254.23      239.24      199.50      147.56    
  96.843      56.822      31.450      19.464      15.272      12.982      11.555      10.622      10.044      9.8030    
  9.7217      9.7584      9.9876      10.568      11.521      12.990      15.352      19.909      33.043      60.405    
  103.14      157.02      212.11      254.23      270.10      254.23      212.11      157.02      103.14      60.405    
  33.043      19.909      15.352      12.990      11.521      10.568      9.9876      9.7584      9.7584      9.8030    
  10.044      10.622      11.555      12.982      15.272      19.464      31.450      56.822      96.843      147.56    
  199.50      239.24      254.23      239.24      199.50      147.56      96.843      56.822      31.450      19.464    
  15.272      12.982      11.555      10.622      10.044      9.8030      9.9876      10.044      10.292      10.833    
  11.684      12.975      15.047      18.400      27.451      47.554      80.308      122.52      166.09      199.50    
  212.11      199.50      166.09      122.52      80.308      47.554      27.451      18.400      15.047      12.975    
  11.684      10.833      10.292      10.044      10.568      10.622      10.833      11.269      11.952      13.007    
  14.728      17.274      22.854      36.176      59.282      90.128      122.52      147.56      157.02      147.56    
  122.52      90.128      59.282      36.176      22.854      17.274      14.728      13.007      11.952      11.269    
  10.833      10.622      11.521      11.555      11.684      11.952      12.396      13.135      14.406      16.353    
  19.313      26.382      39.955      59.282      80.308      96.843      103.14      96.843      80.308      59.282    
  39.955      26.382      19.313      16.353      14.406      13.135      12.396      11.952      11.684      11.555    
  12.990      12.982      12.975      13.007      13.135      13.476      14.218      15.513      17.292      20.212    
  26.382      36.176      47.554      56.822      60.405      56.822      47.554      36.176      26.382      20.212    
  17.292      15.513      14.218      13.476      13.135      13.007      12.975      12.982      15.352      15.272    
  15.047      14.728      14.406      14.218      14.333      14.895      15.930      17.292      19.313      22.854    
  27.451      31.450      33.043      31.450      27.451      22.854      19.313      17.292      15.930      14.895    
  14.333      14.218      14.406      14.728      15.047      15.272      19.909      19.464      18.400      17.274    
  16.353      15.513      14.895      14.668      14.895      15.513      16.353      17.274      18.400      19.464    
  19.909      19.464      18.400      17.274      16.353      15.513      14.895      14.668      14.895      15.513    
  16.353      17.274      18.400      19.464      33.043      31.450      27.451      22.854      19.313      17.292    
  15.930      14.895      14.333      14.218      14.406      14.728      15.047      15.272      15.352      15.272    
  15.047      14.728      14.406      14.218      14.333      14.895      15.930      17.292      19.313      22.854    
  27.451      31.450      60.405      56.822      47.554      36.176      26.382      20.212      17.292      15.513    
  14.218      13.476      13.135      13.007      12.975      12.982      12.990      12.982      12.975      13.007    
  13.135      13.476      14.218      15.513      17.292      20.212      26.382      36.176      47.554      56.822    
  103.14      96.843      80.308      59.282      39.955      26.382      19.313      16.353      14.406      13.135    
  12.396      11.952      11.684      11.555      11.521      11.555      11.684      11.952      12.396      13.135    
  14.406      16.353      19.313      26.382      39.955      59.282      80.308      96.843      157.02      147.56    
  122.52      90.128      59.282      36.176      22.854      17.274      14.728      13.007      11.952      11.269    
  10.833      10.622      10.568      10.622      10.833      11.269      11.952      13.007      14.728      17.274    
  22.854      36.176      59.282      90.128      122.52      147.56      212.11      199.50      166.09      122.52    
  80.308      47.554      27.451      18.400      15.047      12.975      11.684      10.833      10.292      10.044    
  9.9876      10.044      10.292      10.833      11.684      12.975      15.047      18.400      27.451      47.554    
  80.308      122.52      166.09      199.50      254.23      239.24      199.50      147.56      96.843      56.822    
  31.450      19.464      15.272      12.982      11.555      10.622      10.044      9.8030      9.7584      9.8030    
  10.044      10.622      11.555      12.982      15.272      19.464      31.450      56.822      96.843      147.56    
  199.50      239.24      200.75      188.77      157.02      115.70      75.815      45.092      26.464      18.203    
  15.040      13.039      11.818      11.041      10.568      10.364      10.323      10.364      10.568      11.041    
  11.818      13.039      15.040      18.203      26.464      45.092      75.815      115.70      157.02      188.77    
  188.77      177.47      147.56      108.66      71.233      42.587      25.425      17.932      14.957      13.028    
  11.847      11.091      10.622      10.411      10.364      10.411      10.622      11.091      11.847      13.028    
  14.957      17.932      25.425      42.587      71.233      108.66      147.56      177.47      157.02      147.56    
  122.52      90.128      59.282      36.176      22.854      17.274      14.728      13.007      11.952      11.269    
  10.833      10.622      10.568      10.622      10.833      11.269      11.952      13.007      14.728      17.274    
  22.854      36.176      59.282      90.128      122.52      147.56      115.70      108.66      90.128      66.405    
  44.328      28.490      19.986      16.507      14.413      13.009      12.159      11.616      11.269      11.091    