unknown system                          
   1.00000000000000     
     3.445083    0.000000    0.000000
     0.000000    3.445083    0.000000
     0.000000    0.000000    3.445083
   Fe
     4
Direct
  0.000000  0.000000  0.000000
  0.500000  0.500000  0.000000
  0.500000  0.000000  0.500000
  0.000000  0.500000  0.500000
 
   28   28   28
 0.34308565306E+03 0.32309704955E+03 0.27010471240E+03 0.20074732153E+03 0.13249617038E+03
 0.77409804501E+02 0.40841180688E+02 0.22200155326E+02 0.15661950483E+02 0.13005097784E+02
 0.11367329751E+02 0.10322720146E+02 0.97217258624E+01 0.95355201433E+01 0.95308771526E+01
 0.95355201433E+01 0.97217258624E+01 0.10322720146E+02 0.11367329751E+02 0.13005097784E+02
 0.15661950483E+02 0.22200155326E+02 0.40841180688E+02 0.77409804501E+02 0.13249617038E+03
 0.20074732153E+03 0.27010471240E+03 0.32309704955E+03 0.32309704955E+03 0.30423777429E+03
 0.25422632827E+03 0.18876578905E+03 0.12442205567E+03 0.72690100946E+02 0.38636511417E+02
 0.21527790398E+02 0.15574781368E+02 0.12995284529E+02 0.11394497522E+02 0.10364417529E+02
 0.97584350485E+01 0.95521282727E+01 0.95355201433E+01 0.95521282727E+01 0.97584350485E+01
 0.10364417529E+02 0.11394497522E+02 0.12995284529E+02 0.15574781368E+02 0.21527790398E+02
 0.38636511417E+02 0.72690100946E+02 0.12442205567E+03 0.18876578905E+03 0.25422632827E+03
 0.30423777429E+03 0.27010471240E+03 0.25422632827E+03 0.21210734492E+03 0.15702156561E+03
 0.10314086169E+03 0.60405494722E+02 0.33043044436E+02 0.19909250940E+02 0.15352343554E+02
 0.12989952370E+02 0.11521022834E+02 0.10567813331E+02 0.99876479043E+01 0.97584350485E+01
 0.97217258624E+01 0.97584350485E+01 0.99876479043E+01 0.10567813331E+02 0.11521022834E+02
 0.12989952370E+02 0.15352343554E+02 0.19909250940E+02 0.33043044436E+02 0.60405494722E+02
 0.10314086169E+03 0.15702156561E+03 0.21210734492E+03 0.25422632827E+03 0.20074732153E+03
 0.18876578905E+03 0.15702156561E+03 0.11570075792E+03 0.75815427535E+02 0.45092292931E+02
 0.26464126704E+02 0.18203078445E+02 0.15039889991E+02 0.13039325119E+02 0.11817834654E+02
 0.11041215025E+02 0.10567813331E+02 0.10364417529E+02 0.10322720146E+02 0.10364417529E+02
 0.10567813331E+02 0.11041215025E+02 0.11817834654E+02 0.13039325119E+02 0.15039889991E+02
 0.18203078445E+02 0.26464126704E+02 0.45092292931E+02 0.75815427535E+02 0.11570075792E+03
 0.15702156561E+03 0.18876578905E+03 0.13249617038E+03 0.12442205567E+03 0.10314086169E+03
 0.75815427535E+02 0.50195220859E+02 0.31522808789E+02 0.21212277687E+02 0.16992323899E+02
 0.14720771839E+02 0.13210035516E+02 0.12334663172E+02 0.11817834654E+02 0.11521022834E+02
 0.11394497522E+02 0.11367329751E+02 0.11394497522E+02 0.11521022834E+02 0.11817834654E+02
 0.12334663172E+02 0.13210035516E+02 0.14720771839E+02 0.16992323899E+02 0.21212277687E+02
 0.31522808789E+02 0.50195220859E+02 0.75815427535E+02 0.10314086169E+03 0.12442205567E+03
 0.77409804501E+02 0.72690100946E+02 0.60405494722E+02 0.45092292931E+02 0.31522808789E+02
 0.22557868951E+02 0.18219766126E+02 0.16093627302E+02 0.14547896028E+02 0.13638559883E+02
 0.13210035516E+02 0.13039325119E+02 0.12989952370E+02 0.12995284529E+02 0.13005097784E+02
 0.12995284529E+02 0.12989952370E+02 0.13039325119E+02 0.13210035516E+02 0.13638559883E+02
 0.14547896028E+02 0.16093627302E+02 0.18219766126E+02 0.22557868951E+02 0.31522808789E+02
 0.45092292931E+02 0.60405494722E+02 0.72690100946E+02 0.40841180688E+02 0.38636511417E+02
 0.33043044436E+02 0.26464126704E+02 0.21212277687E+02 0.18219766126E+02 0.16619827094E+02
 0.15414038060E+02 0.14723896331E+02 0.14547896028E+02 0.14720771839E+02 0.15039889991E+02
 0.15352343554E+02 0.15574781368E+02 0.15661950483E+02 0.15574781368E+02 0.15352343554E+02
 0.15039889991E+02 0.14720771839E+02 0.14547896028E+02 0.14723896331E+02 0.15414038060E+02
 0.16619827094E+02 0.18219766126E+02 0.21212277687E+02 0.26464126704E+02 0.33043044436E+02
 0.38636511417E+02 0.22200155326E+02 0.21527790398E+02 0.19909250940E+02 0.18203078445E+02
 0.16992323899E+02 0.16093627302E+02 0.15414038060E+02 0.15159485614E+02 0.15414038060E+02
 0.16093627302E+02 0.16992323899E+02 0.18203078445E+02 0.19909250940E+02 0.21527790398E+02
 0.22200155326E+02 0.21527790398E+02 0.19909250940E+02 0.18203078445E+02 0.16992323899E+02
 0.16093627302E+02 0.15414038060E+02 0.15159485614E+02 0.15414038060E+02 0.16093627302E+02
 0.16992323899E+02 0.18203078445E+02 0.19909250940E+02 0.21527790398E+02 0.15661950483E+02
 0.15574781368E+02 0.15352343554E+02 0.15039889991E+02 0.14720771839E+02 0.14547896028E+02
 0.14723896331E+02 0.15414038060E+02 0.16619827094E+02 0.18219766126E+02 0.21212277687E+02
 0.26464126704E+02 0.33043044436E+02 0.38636511417E+02 0.40841180688E+02 0.38636511417E+02
 0.33043044436E+02 0.26464126704E+02 0.21212277687E+02 0.18219766126E+02 0.16619827094E+02
 0.15414038060E+02 0.14723896331E+02 0.14547896028E+02 0.14720771839E+02 0.15039889991E+02
 0.15352343554E+02 0.15574781368E+02 0.13005097784E+02 0.12995284529E+02 0.12989952370E+02
 0.13039325119E+02 0.13210035516E+02 0.13638559883E+02 0.14547896028E+02 0.16093627302E+02
 0.18219766126E+02 0.22557868951E+02 0.31522808789E+02 0.45092292931E+02 0.60405494722E+02
 0.72690100946E+02 0.77409804501E+02 0.72690100946E+02 0.60405494722E+02 0.45092292931E+02
 0.31522808789E+02 0.22557868951E+02 0.18219766126E+02 0.16093627302E+02 0.14547896028E+02
 0.13638559883E+02 0.13210035516E+02 0.13039325119E+02 0.12989952370E+02 0.12995284529E+02
 0.11367329751E+02 0.11394497522E+02 0.11521022834E+02 0.11817834654E+02 0.12334663172E+02
 0.13210035516E+02 0.14720771839E+02 0.16992323899E+02 0.21212277687E+02 0.31522808789E+02
 0.50195220859E+02 0.75815427535E+02 0.10314086169E+03 0.12442205567E+03 0.13249617038E+03
 0.12442205567E+03 0.10314086169E+03 0.75815427535E+02 0.50195220859E+02 0.31522808789E+02
 0.21212277687E+02 0.16992323899E+02 0.14720771839E+02 0.13210035516E+02 0.12334663172E+02
 0.11817834654E+02 0.11521022834E+02 0.11394497522E+02 0.10322720146E+02 0.10364417529E+02
 0.10567813331E+02 0.11041215025E+02 0.11817834654E+02 0.13039325119E+02 0.15039889991E+02
 0.18203078445E+02 0.26464126704E+02 0.45092292931E+02 0.75815427535E+02 0.11570075792E+03
 0.15702156561E+03 0.18876578905E+03 0.20074732153E+03 0.18876578905E+03 0.15702156561E+03
 0.11570075792E+03 0.75815427535E+02 0.45092292931E+02 0.26464126704E+02 0.18203078445E+02
 0.15039889991E+02 0.13039325119E+02 0.11817834654E+02 0.11041215025E+02 0.10567813331E+02
 0.10364417529E+02 0.97217258624E+01 0.97584350485E+01 0.99876479043E+01 0.10567813331E+02
 0.11521022834E+02 0.12989952370E+02 0.15352343554E+02 0.19909250940E+02 0.33043044436E+02
 0.60405494722E+02 0.10314086169E+03 0.15702156561E+03 0.21210734492E+03 0.25422632827E+03
 0.27010471240E+03 0.25422632827E+03 0.21210734492E+03 0.15702156561E+03 0.10314086169E+03
 0.60405494722E+02 0.33043044436E+02 0.19909250940E+02 0.15352343554E+02 0.12989952370E+02
 0.11521022834E+02 0.10567813331E+02 0.99876479043E+01 0.97584350485E+01 0.95355201433E+01
 0.95521282727E+01 0.97584350485E+01 0.10364417529E+02 0.11394497522E+02 0.12995284529E+02
 0.15574781368E+02 0.21527790398E+02 0.38636511417E+02 0.72690100946E+02 0.12442205567E+03
 0.18876578905E+03 0.25422632827E+03 0.30423777429E+03 0.32309704955E+03 0.30423777429E+03
 0.25422632827E+03 0.18876578905E+03 0.12442205567E+03 0.72690100946E+02 0.38636511417E+02
 0.21527790398E+02 0.15574781368E+02 0.12995284529E+02 0.11394497522E+02 0.10364417529E+02
 0.97584350485E+01 0.95521282727E+01 0.95308771526E+01 0.95355201433E+01 0.97217258624E+01
 0.10322720146E+02 0.11367329751E+02 0.13005097784E+02 0.15661950483E+02 0.22200155326E+02
 0.40841180688E+02 0.77409804501E+02 0.13249617038E+03 0.20074732153E+03 0.27010471240E+03
 0.32309704955E+03 0.34308565306E+03 0.32309704955E+03 0.27010471240E+03 0.20074732153E+03
 0.13249617038E+03 0.77409804501E+02 0.40841180688E+02 0.22200155326E+02 0.15661950483E+02
 0.13005097784E+02 0.11367329751E+02 0.10322720146E+02 0.97217258624E+01 0.95355201433E+01
 0.95355201433E+01 0.95521282727E+01 0.97584350485E+01 0.10364417529E+02 0.11394497522E+02
 0.12995284529E+02 0.15574781368E+02 0.21527790398E+02 0.38636511417E+02 0.72690100946E+02
 0.12442205567E+03 0.18876578905E+03 0.25422632827E+03 0.30423777429E+03 0.32309704955E+03
 0.30423777429E+03 0.25422632827E+03 0.18876578905E+03 0.12442205567E+03 0.72690100946E+02
 0.38636511417E+02 0.21527790398E+02 0.15574781368E+02 0.12995284529E+02 0.11394497522E+02
 0.10364417529E+02 0.97584350485E+01 0.95521282727E+01 0.97217258624E+01 0.97584350485E+01
 0.99876479043E+01 0.10567813331E+02 0.11521022834E+02 0.12989952370E+02 0.15352343554E+02
 0.19909250940E+02 0.33043044436E+02 0.60405494722E+02 0.10314086169E+03 0.15702156561E+03
 0.21210734492E+03 0.25422632827E+03 0.27010471240E+03 0.25422632827E+03 0.21210734492E+03
 0.15702156561E+03 0.10314086169E+03 0.60405494722E+02 0.33043044436E+02 0.19909250940E+02
 0.15352343554E+02 0.12989952370E+02 0.11521022834E+02 0.10567813331E+02 0.99876479043E+01
 0.97584350485E+01 0.10322720146E+02 0.10364417529E+02 0.10567813331E+02 0.11041215025E+02
 0.11817834654E+02 0.13039325119E+02 0.15039889991E+02 0.18203078445E+02 0.26464126704E+02
 0.45092292931E+02 0.75815427535E+02 0.11570075792E+03 0.15702156561E+03 0.18876578905E+03
 0.20074732153E+03 0.18876578905E+03 0.15702156561E+03 0.11570075792E+03 0.75815427535E+02
 0.45092292931E+02 0.26464126704E+02 0.18203078445E+02 0.15039889991E+02 0.13039325119E+02
 0.11817834654E+02 0.11041215025E+02 0.10567813331E+02 0.10364417529E+02 0.11367329751E+02
 0.11394497522E+02 0.11521022834E+02 0.11817834654E+02 0.12334663172E+02 0.13210035516E+02
 0.14720771839E+02 0.16992323899E+02 0.21212277687E+02 0.31522808789E+02 0.50195220859E+02
 0.75815427535E+02 0.10314086169E+03 0.12442205567E+03 0.13249617038E+03 0.12442205567E+03
 0.10314086169E+03 0.75815427535E+02 0.50195220859E+02 0.31522808789E+02 0.21212277687E+02
 0.16992323899E+02 0.14720771839E+02 0.13210035516E+02 0.12334663172E+02 0.11817834654E+02
 0.11521022834E+02 0.11394497522E+02 0.13005097784E+02 0.12995284529E+02 0.12989952370E+02
 0.13039325119E+02 0.13210035516E+02 0.13638559883E+02 0.14547896028E+02 0.16093627302E+02
 0.18219766126E+02 0.22557868951E+02 0.31522808789E+02 0.45092292931E+02 0.60405494722E+02
 0.72690100946E+02 0.77409804501E+02 0.72690100946E+02 0.60405494722E+02 0.45092292931E+02
 0.31522808789E+02 0.22557868951E+02 0.18219766126E+02 0.16093627302E+02 0.14547896028E+02
 0.13638559883E+02 0.13210035516E+02 0.13039325119E+02 0.12989952370E+02 0.12995284529E+02
 0.15661950483E+02 0.15574781368E+02 0.15352343554E+02 0.15039889991E+02 0.14720771839E+02
 0.14547896028E+02 0.14723896331E+02 0.15414038060E+02 0.16619827094E+02 0.18219766126E+02
 0.21212277687E+02 0.26464126704E+02 0.33043044436E+02 0.38636511417E+02 0.40841180688E+02
 0.38636511417E+02 0.33043044436E+02 0.26464126704E+02 0.21212277687E+02 0.18219766126E+02
 0.16619827094E+02 0.15414038060E+02 0.14723896331E+02 0.14547896028E+02 0.14720771839E+02
 0.15039889991E+02 0.15352343554E+02 0.15574781368E+02 0.22200155326E+02 0.21527790398E+02
 0.19909250940E+02 0.18203078445E+02 0.16992323899E+02 0.16093627302E+02 0.15414038060E+02
 0.15159485614E+02 0.15414038060E+02 0.16093627302E+02 0.16992323899E+02 0.18203078445E+02
 0.19909250940E+02 0.21527790398E+02 0.22200155326E+02 0.21527790398E+02 0.19909250940E+02
 0.18203078445E+02 0.16992323899E+02 0.16093627302E+02 0.15414038060E+02 0.15159485614E+02
 0.15414038060E+02 0.16093627302E+02 0.16992323899E+02 0.18203078445E+02 0.19909250940E+02
 0.21527790398E+02 0.40841180688E+02 0.38636511417E+02 0.33043044436E+02 0.26464126704E+02
 0.21212277687E+02 0.18219766126E+02 0.16619827094E+02 0.15414038060E+02 0.14723896331E+02
 0.14547896028E+02 0.14720771839E+02 0.15039889991E+02 0.15352343554E+02 0.15574781368E+02
 0.15661950483E+02 0.15574781368E+02 0.15352343554E+02 0.15039889991E+02 0.14720771839E+02
 0.14547896028E+02 0.14723896331E+02 0.15414038060E+02 0.16619827094E+02 0.18219766126E+02
 0.21212277687E+02 0.26464126704E+02 0.33043044436E+02 0.38636511417E+02 0.77409804501E+02
 0.72690100946E+02 0.60405494722E+02 0.45092292931E+02 0.31522808789E+02 0.22557868951E+02
 0.18219766126E+02 0.16093627302E+02 0.14547896028E+02 0.13638559883E+02 0.13210035516E+02
 0.13039325119E+02 0.12989952370E+02 0.12995284529E+02 0.13005097784E+02 0.12995284529E+02
 0.12989952370E+02 0.13039325119E+02 0.13210035516E+02 0.13638559883E+02 0.14547896028E+02
 0.16093627302E+02 0.18219766126E+02 0.22557868951E+02 0.31522808789E+02 0.45092292931E+02
 0.60405494722E+02 0.72690100946E+02 0.13249617038E+03 0.12442205567E+03 0.10314086169E+03
 0.75815427535E+02 0.50195220859E+02 0.31522808789E+02 0.21212277687E+02 0.16992323899E+02
 0.14720771839E+02 0.13210035516E+02 0.12334663172E+02 0.11817834654E+02 0.11521022834E+02
 0.11394497522E+02 0.11367329751E+02 0.11394497522E+02 0.11521022834E+02 0.11817834654E+02
 0.12334663172E+02 0.13210035516E+02 0.14720771839E+02 0.16992323899E+02 0.21212277687E+02
 0.31522808789E+02 0.50195220859E+02 0.75815427535E+02 0.10314086169E+03 0.12442205567E+03
 0.20074732153E+03 0.18876578905E+03 0.15702156561E+03 0.11570075792E+03 0.75815427535E+02
 0.45092292931E+02 0.26464126704E+02 0.18203078445E+02 0.15039889991E+02 0.13039325119E+02
 0.11817834654E+02 0.11041215025E+02 0.10567813331E+02 0.10364417529E+02 0.10322720146E+02
 0.10364417529E+02 0.10567813331E+02 0.11041215025E+02 0.11817834654E+02 0.13039325119E+02
 0.15039889991E+02 0.18203078445E+02 0.26464126704E+02 0.45092292931E+02 0.75815427535E+02
 0.11570075792E+03 0.15702156561E+03 0.18876578905E+03 0.27010471240E+03 0.25422632827E+03
 0.21210734492E+03 0.15702156561E+03 0.10314086169E+03 0.60405494722E+02 0.33043044436E+02
 0.19909250940E+02 0.15352343554E+02 0.12989952370E+02 0.11521022834E+02 0.10567813331E+02
 0.99876479043E+01 0.97584350485E+01 0.97217258624E+01 0.97584350485E+01 0.99876479043E+01
 0.10567813331E+02 0.11521022834E+02 0.12989952370E+02 0.15352343554E+02 0.19909250940E+02
 0.33043044436E+02 0.60405494722E+02 0.10314086169E+03 0.15702156561E+03 0.21210734492E+03
 0.25422632827E+03 0.32309704955E+03 0.30423777429E+03 0.25422632827E+03 0.18876578905E+03
 0.12442205567E+03 0.72690100946E+02 0.38636511417E+02 0.21527790398E+02 0.15574781368E+02
 0.12995284529E+02 0.11394497522E+02 0.10364417529E+02 0.97584350485E+01 0.95521282727E+01
 0.95355201433E+01 0.95521282727E+01 0.97584350485E+01 0.10364417529E+02 0.11394497522E+02
 0.12995284529E+02 0.15574781368E+02 0.21527790398E+02 0.38636511417E+02 0.72690100946E+02
 0.12442205567E+03 0.18876578905E+03 0.25422632827E+03 0.30423777429E+03 0.32309704955E+03
 0.30423777429E+03 0.25422632827E+03 0.18876578905E+03 0.12442205567E+03 0.72690100946E+02
 0.38636511417E+02 0.21527790398E+02 0.15574781368E+02 0.12995284529E+02 0.11394497522E+02
 0.10364417529E+02 0.97584350485E+01 0.95521282727E+01 0.95355201433E+01 0.95521282727E+01
 0.97584350485E+01 0.10364417529E+02 0.11394497522E+02 0.12995284529E+02 0.15574781368E+02
 0.21527790398E+02 0.38636511417E+02 0.72690100946E+02 0.12442205567E+03 0.18876578905E+03
 0.25422632827E+03 0.30423777429E+03 0.30423777429E+03 0.28644282228E+03 0.23924460280E+03
 0.17747062229E+03 0.11683195635E+03 0.68280899838E+02 0.36601238985E+02 0.20920809643E+02
 0.15492388392E+02 0.12986589542E+02 0.11424711684E+02 0.10411357329E+02 0.98030295439E+01
 0.95794082581E+01 0.95521282727E+01 0.95794082581E+01 0.98030295439E+01 0.10411357329E+02
 0.11424711684E+02 0.12986589542E+02 0.15492388392E+02 0.20920809643E+02 0.36601238985E+02
 0.68280899838E+02 0.11683195635E+03 0.17747062229E+03 0.23924460280E+03 0.28644282228E+03
 0.25422632827E+03 0.23924460280E+03 0.19950456111E+03 0.14755555108E+03 0.96843226600E+02
 0.56821539918E+02 0.31450222561E+02 0.19463789932E+02 0.15271771209E+02 0.12982155198E+02
 0.11554929751E+02 0.10621788646E+02 0.10043911440E+02 0.98030295439E+01 0.97584350485E+01
 0.98030295439E+01 0.10043911440E+02 0.10621788646E+02 0.11554929751E+02 0.12982155198E+02
 0.15271771209E+02 0.19463789932E+02 0.31450222561E+02 0.56821539918E+02 0.96843226600E+02
 0.14755555108E+03 0.19950456111E+03 0.23924460280E+03 0.18876578905E+03 0.17747062229E+03
 0.14755555108E+03 0.10866184782E+03 0.71232726808E+02 0.42587339744E+02 0.25425026793E+02
 0.17931603853E+02 0.14956822449E+02 0.13027993915E+02 0.11847242174E+02 0.11090716654E+02
 0.10621788646E+02 0.10411357329E+02 0.10364417529E+02 0.10411357329E+02 0.10621788646E+02
 0.11090716654E+02 0.11847242174E+02 0.13027993915E+02 0.14956822449E+02 0.17931603853E+02
 0.25425026793E+02 0.42587339744E+02 0.71232726808E+02 0.10866184782E+03 0.14755555108E+03
 0.17747062229E+03 0.12442205567E+03 0.11683195635E+03 0.96843226600E+02 0.71232726808E+02
 0.47329485793E+02 0.30059254516E+02 0.20658959382E+02 0.16819727948E+02 0.14635635903E+02
 0.13187802820E+02 0.12347241417E+02 0.11847242174E+02 0.11554929751E+02 0.11424711684E+02
 0.11394497522E+02 0.11424711684E+02 0.11554929751E+02 0.11847242174E+02 0.12347241417E+02
 0.13187802820E+02 0.14635635903E+02 0.16819727948E+02 0.20658959382E+02 0.30059254516E+02
 0.47329485793E+02 0.71232726808E+02 0.96843226600E+02 0.11683195635E+03 0.72690100946E+02
 0.68280899838E+02 0.56821539918E+02 0.42587339744E+02 0.30059254516E+02 0.21877659076E+02
 0.17956896805E+02 0.15936229004E+02 0.14457191552E+02 0.13592830376E+02 0.13187802820E+02
 0.13027993915E+02 0.12982155198E+02 0.12986589542E+02 0.12995284529E+02 0.12986589542E+02
 0.12982155198E+02 0.13027993915E+02 0.13187802820E+02 0.13592830376E+02 0.14457191552E+02
 0.15936229004E+02 0.17956896805E+02 0.21877659076E+02 0.30059254516E+02 0.42587339744E+02
 0.56821539918E+02 0.68280899838E+02 0.38636511417E+02 0.36601238985E+02 0.31450222561E+02
 0.25425026793E+02 0.20658959382E+02 0.17956896805E+02 0.16432567345E+02 0.15271455648E+02
 0.14615857082E+02 0.14457191552E+02 0.14635635903E+02 0.14956822449E+02 0.15271771209E+02
 0.15492388392E+02 0.15574781368E+02 0.15492388392E+02 0.15271771209E+02 0.14956822449E+02
 0.14635635903E+02 0.14457191552E+02 0.14615857082E+02 0.15271455648E+02 0.16432567345E+02
 0.17956896805E+02 0.20658959382E+02 0.25425026793E+02 0.31450222561E+02 0.36601238985E+02
 0.21527790398E+02 0.20920809643E+02 0.19463789932E+02 0.17931603853E+02 0.16819727948E+02
 0.15936229004E+02 0.15271455648E+02 0.15023629450E+02 0.15271455648E+02 0.15936229004E+02
 0.16819727948E+02 0.17931603853E+02 0.19463789932E+02 0.20920809643E+02 0.21527790398E+02
 0.20920809643E+02 0.19463789932E+02 0.17931603853E+02 0.16819727948E+02 0.15936229004E+02
 0.15271455648E+02 0.15023629450E+02 0.15271455648E+02 0.15936229004E+02 0.16819727948E+02
 0.17931603853E+02 0.19463789932E+02 0.20920809643E+02 0.15574781368E+02 0.15492388392E+02
 0.15271771209E+02 0.14956822449E+02 0.14635635903E+02 0.14457191552E+02 0.14615857082E+02
 0.15271455648E+02 0.16432567345E+02 0.17956896805E+02 0.20658959382E+02 0.25425026793E+02
 0.31450222561E+02 0.36601238985E+02 0.38636511417E+02 0.36601238985E+02 0.31450222561E+02
 0.25425026793E+02 0.20658959382E+02 0.17956896805E+02 0.16432567345E+02 0.15271455648E+02
 0.14615857082E+02 0.14457191552E+02 0.14635635903E+02 0.14956822449E+02 0.15271771209E+02
 0.15492388392E+02 0.12995284529E+02 0.12986589542E+02 0.12982155198E+02 0.13027993915E+02
 0.13187802820E+02 0.13592830376E+02 0.14457191552E+02 0.15936229004E+02 0.17956896805E+02
 0.21877659076E+02 0.30059254516E+02 0.42587339744E+02 0.56821539918E+02 0.68280899838E+02
 0.72690100946E+02 0.68280899838E+02 0.56821539918E+02 0.42587339744E+02 0.30059254516E+02
 0.21877659076E+02 0.17956896805E+02 0.15936229004E+02 0.14457191552E+02 0.13592830376E+02
 0.13187802820E+02 0.13027993915E+02 0.12982155198E+02 0.12986589542E+02 0.11394497522E+02
 0.11424711684E+02 0.11554929751E+02 0.11847242174E+02 0.12347241417E+02 0.13187802820E+02
 0.14635635903E+02 0.16819727948E+02 0.20658959382E+02 0.30059254516E+02 0.47329485793E+02
 0.71232726808E+02 0.96843226600E+02 0.11683195635E+03 0.12442205567E+03 0.11683195635E+03
 0.96843226600E+02 0.71232726808E+02 0.47329485793E+02 0.30059254516E+02 0.20658959382E+02
 0.16819727948E+02 0.14635635903E+02 0.13187802820E+02 0.12347241417E+02 0.11847242174E+02
 0.11554929751E+02 0.11424711684E+02 0.10364417529E+02 0.10411357329E+02 0.10621788646E+02
 0.11090716654E+02 0.11847242174E+02 0.13027993915E+02 0.14956822449E+02 0.17931603853E+02
 0.25425026793E+02 0.42587339744E+02 0.71232726808E+02 0.10866184782E+03 0.14755555108E+03
 0.17747062229E+03 0.18876578905E+03 0.17747062229E+03 0.14755555108E+03 0.10866184782E+03
 0.71232726808E+02 0.42587339744E+02 0.25425026793E+02 0.17931603853E+02 0.14956822449E+02
 0.13027993915E+02 0.11847242174E+02 0.11090716654E+02 0.10621788646E+02 0.10411357329E+02
 0.97584350485E+01 0.98030295439E+01 0.10043911440E+02 0.10621788646E+02 0.11554929751E+02
 0.12982155198E+02 0.15271771209E+02 0.19463789932E+02 0.31450222561E+02 0.56821539918E+02
 0.96843226600E+02 0.14755555108E+03 0.19950456111E+03 0.23924460280E+03 0.25422632827E+03
 0.23924460280E+03 0.19950456111E+03 0.14755555108E+03 0.96843226600E+02 0.56821539918E+02
 0.31450222561E+02 0.19463789932E+02 0.15271771209E+02 0.12982155198E+02 0.11554929751E+02
 0.10621788646E+02 0.10043911440E+02 0.98030295439E+01 0.95521282727E+01 0.95794082581E+01
 0.98030295439E+01 0.10411357329E+02 0.11424711684E+02 0.12986589542E+02 0.15492388392E+02
 0.20920809643E+02 0.36601238985E+02 0.68280899838E+02 0.11683195635E+03 0.17747062229E+03
 0.23924460280E+03 0.28644282228E+03 0.30423777429E+03 0.28644282228E+03 0.23924460280E+03
 0.17747062229E+03 0.11683195635E+03 0.68280899838E+02 0.36601238985E+02 0.20920809643E+02
 0.15492388392E+02 0.12986589542E+02 0.11424711684E+02 0.10411357329E+02 0.98030295439E+01
 0.95794082581E+01 0.95355201433E+01 0.95521282727E+01 0.97584350485E+01 0.10364417529E+02
 0.11394497522E+02 0.12995284529E+02 0.15574781368E+02 0.21527790398E+02 0.38636511417E+02
 0.72690100946E+02 0.12442205567E+03 0.18876578905E+03 0.25422632827E+03 0.30423777429E+03
 0.32309704955E+03 0.30423777429E+03 0.25422632827E+03 0.18876578905E+03 0.12442205567E+03
 0.72690100946E+02 0.38636511417E+02 0.21527790398E+02 0.15574781368E+02 0.12995284529E+02
 0.11394497522E+02 0.10364417529E+02 0.97584350485E+01 0.95521282727E+01 0.95521282727E+01
 0.95794082581E+01 0.98030295439E+01 0.10411357329E+02 0.11424711684E+02 0.12986589542E+02
 0.15492388392E+02 0.20920809643E+02 0.36601238985E+02 0.68280899838E+02 0.11683195635E+03
 0.17747062229E+03 0.23924460280E+03 0.28644282228E+03 0.30423777429E+03 0.28644282228E+03
 0.23924460280E+03 0.17747062229E+03 0.11683195635E+03 0.68280899838E+02 0.36601238985E+02
 0.20920809643E+02 0.15492388392E+02 0.12986589542E+02 0.11424711684E+02 0.10411357329E+02
 0.98030295439E+01 0.95794082581E+01 0.97584350485E+01 0.98030295439E+01 0.10043911440E+02
 0.10621788646E+02 0.11554929751E+02 0.12982155198E+02 0.15271771209E+02 0.19463789932E+02
 0.31450222561E+02 0.56821539918E+02 0.96843226600E+02 0.14755555108E+03 0.19950456111E+03
 0.23924460280E+03 0.25422632827E+03 0.23924460280E+03 0.19950456111E+03 0.14755555108E+03
 0.96843226600E+02 0.56821539918E+02 0.31450222561E+02 0.19463789932E+02 0.15271771209E+02
 0.12982155198E+02 0.11554929751E+02 0.10621788646E+02 0.10043911440E+02 0.98030295439E+01
 0.10364417529E+02 0.10411357329E+02 0.10621788646E+02 0.11090716654E+02 0.11847242174E+02
 0.13027993915E+02 0.14956822449E+02 0.17931603853E+02 0.25425026793E+02 0.42587339744E+02
 0.71232726808E+02 0.10866184782E+03 0.14755555108E+03 0.17747062229E+03 0.18876578905E+03
 0.17747062229E+03 0.14755555108E+03 0.10866184782E+03 0.71232726808E+02 0.42587339744E+02
 0.25425026793E+02 0.17931603853E+02 0.14956822449E+02 0.13027993915E+02 0.11847242174E+02
 0.11090716654E+02 0.10621788646E+02 0.10411357329E+02 0.11394497522E+02 0.11424711684E+02
 0.11554929751E+02 0.11847242174E+02 0.12347241417E+02 0.13187802820E+02 0.14635635903E+02
 0.16819727948E+02 0.20658959382E+02 0.30059254516E+02 0.47329485793E+02 0.71232726808E+02
 0.96843226600E+02 0.11683195635E+03 0.12442205567E+03 0.11683195635E+03 0.96843226600E+02
 0.71232726808E+02 0.47329485793E+02 0.30059254516E+02 0.20658959382E+02 0.16819727948E+02
 0.14635635903E+02 0.13187802820E+02 0.12347241417E+02 0.11847242174E+02 0.11554929751E+02
 0.11424711684E+02 0.12995284529E+02 0.12986589542E+02 0.12982155198E+02 0.13027993915E+02
 0.13187802820E+02 0.13592830376E+02 0.14457191552E+02 0.15936229004E+02 0.17956896805E+02
 0.21877659076E+02 0.30059254516E+02 0.42587339744E+02 0.56821539918E+02 0.68280899838E+02
 0.72690100946E+02 0.68280899838E+02 0.56821539918E+02 0.42587339744E+02 0.30059254516E+02
 0.21877659076E+02 0.17956896805E+02 0.15936229004E+02 0.14457191552E+02 0.13592830376E+02
 0.13187802820E+02 0.13027993915E+02 0.12982155198E+02 0.12986589542E+02 0.15574781368E+02
 0.15492388392E+02 0.15271771209E+02 0.14956822449E+02 0.14635635903E+02 0.14457191552E+02
 0.14615857082E+02 0.15271455648E+02 0.16432567345E+02 0.17956896805E+02 0.20658959382E+02
 0.25425026793E+02 0.31450222561E+02 0.36601238985E+02 0.38636511417E+02 0.36601238985E+02
 0.31450222561E+02 0.25425026793E+02 0.20658959382E+02 0.17956896805E+02 0.16432567345E+02
 0.15271455648E+02 0.14615857082E+02 0.14457191552E+02 0.14635635903E+02 0.14956822449E+02
 0.15271771209E+02 0.15492388392E+02 0.21527790398E+02 0.20920809643E+02 0.19463789932E+02
 0.17931603853E+02 0.16819727948E+02 0.15936229004E+02 0.15271455648E+02 0.15023629450E+02
 0.15271455648E+02 0.15936229004E+02 0.16819727948E+02 0.17931603853E+02 0.19463789932E+02
 0.20920809643E+02 0.21527790398E+02 0.20920809643E+02 0.19463789932E+02 0.17931603853E+02
 0.16819727948E+02 0.15936229004E+02 0.15271455648E+02 0.15023629450E+02 0.15271455648E+02
 0.15936229004E+02 0.16819727948E+02 0.17931603853E+02 0.19463789932E+02 0.20920809643E+02
 0.38636511417E+02 0.36601238985E+02 0.31450222561E+02 0.25425026793E+02 0.20658959382E+02
 0.17956896805E+02 0.16432567345E+02 0.15271455648E+02 0.14615857082E+02 0.14457191552E+02
 0.14635635903E+02 0.14956822449E+02 0.15271771209E+02 0.15492388392E+02 0.15574781368E+02
 0.15492388392E+02 0.15271771209E+02 0.14956822449E+02 0.14635635903E+02 0.14457191552E+02
 0.14615857082E+02 0.15271455648E+02 0.16432567345E+02 0.17956896805E+02 0.20658959382E+02
 0.25425026793E+02 0.31450222561E+02 0.36601238985E+02 0.72690100946E+02 0.68280899838E+02
 0.56821539918E+02 0.42587339744E+02 0.30059254516E+02 0.21877659076E+02 0.17956896805E+02
 0.15936229004E+02 0.14457191552E+02 0.13592830376E+02 0.13187802820E+02 0.13027993915E+02
 0.12982155198E+02 0.12986589542E+02 0.12995284529E+02 0.12986589542E+02 0.12982155198E+02
 0.13027993915E+02 0.13187802820E+02 0.13592830376E+02 0.14457191552E+02 0.15936229004E+02
 0.17956896805E+02 0.21877659076E+02 0.30059254516E+02 0.42587339744E+02 0.56821539918E+02
 0.68280899838E+02 0.12442205567E+03 0.11683195635E+03 0.96843226600E+02 0.71232726808E+02
 0.47329485793E+02 0.30059254516E+02 0.20658959382E+02 0.16819727948E+02 0.14635635903E+02
 0.13187802820E+02 0.12347241417E+02 0.11847242174E+02 0.11554929751E+02 0.11424711684E+02
 0.11394497522E+02 0.11424711684E+02 0.11554929751E+02 0.11847242174E+02 0.12347241417E+02
 0.13187802820E+02 0.14635635903E+02 0.16819727948E+02 0.20658959382E+02 0.30059254516E+02
 0.47329485793E+02 0.71232726808E+02 0.96843226600E+02 0.11683195635E+03 0.18876578905E+03
 0.17747062229E+03 0.14755555108E+03 0.10866184782E+03 0.71232726808E+02 0.42587339744E+02
 0.25425026793E+02 0.17931603853E+02 0.14956822449E+02 0.13027993915E+02 0.11847242174E+02
 0.11090716654E+02 0.10621788646E+02 0.10411357329E+02 0.10364417529E+02 0.10411357329E+02
 0.10621788646E+02 0.11090716654E+02 0.11847242174E+02 0.13027993915E+02 0.14956822449E+02
 0.17931603853E+02 0.25425026793E+02 0.42587339744E+02 0.71232726808E+02 0.10866184782E+03
 0.14755555108E+03 0.17747062229E+03 0.25422632827E+03 0.23924460280E+03 0.19950456111E+03
 0.14755555108E+03 0.96843226600E+02 0.56821539918E+02 0.31450222561E+02 0.19463789932E+02
 0.15271771209E+02 0.12982155198E+02 0.11554929751E+02 0.10621788646E+02 0.10043911440E+02
 0.98030295439E+01 0.97584350485E+01 0.98030295439E+01 0.10043911440E+02 0.10621788646E+02
 0.11554929751E+02 0.12982155198E+02 0.15271771209E+02 0.19463789932E+02 0.31450222561E+02
 0.56821539918E+02 0.96843226600E+02 0.14755555108E+03 0.19950456111E+03 0.23924460280E+03
 0.30423777429E+03 0.28644282228E+03 0.23924460280E+03 0.17747062229E+03 0.11683195635E+03
 0.68280899838E+02 0.36601238985E+02 0.20920809643E+02 0.15492388392E+02 0.12986589542E+02
 0.11424711684E+02 0.10411357329E+02 0.98030295439E+01 0.95794082581E+01 0.95521282727E+01
 0.95794082581E+01 0.98030295439E+01 0.10411357329E+02 0.11424711684E+02 0.12986589542E+02
 0.15492388392E+02 0.20920809643E+02 0.36601238985E+02 0.68280899838E+02 0.11683195635E+03
 0.17747062229E+03 0.23924460280E+03 0.28644282228E+03 0.27010471240E+03 0.25422632827E+03
 0.21210734492E+03 0.15702156561E+03 0.10314086169E+03 0.60405494722E+02 0.33043044436E+02
 0.19909250940E+02 0.15352343554E+02 0.12989952370E+02 0.11521022834E+02 0.10567813331E+02
 0.99876479043E+01 0.97584350485E+01 0.97217258624E+01 0.97584350485E+01 0.99876479043E+01
 0.10567813331E+02 0.11521022834E+02 0.12989952370E+02 0.15352343554E+02 0.19909250940E+02
 0.33043044436E+02 0.60405494722E+02 0.10314086169E+03 0.15702156561E+03 0.21210734492E+03
 0.25422632827E+03 0.25422632827E+03 0.23924460280E+03 0.19950456111E+03 0.14755555108E+03
 0.96843226600E+02 0.56821539918E+02 0.31450222561E+02 0.19463789932E+02 0.15271771209E+02
 0.12982155198E+02 0.11554929751E+02 0.10621788646E+02 0.10043911440E+02 0.98030295439E+01
 0.97584350485E+01 0.98030295439E+01 0.10043911440E+02 0.10621788646E+02 0.11554929751E+02
 0.12982155198E+02 0.15271771209E+02 0.19463789932E+02 0.31450222561E+02 0.56821539918E+02
 0.96843226600E+02 0.14755555108E+03 0.19950456111E+03 0.23924460280E+03 0.21210734492E+03