   4   4   0   0
  0.1022208E+02  0.3445083E-09  0.3445083E-09  0.3445083E-09  0.5000000E-15
  1.000000000000000E-004
  CAR 
 unknown system                          
     38.08804018     -4.02774738  301      6.80005683      1.00000000
     -4.028  0.0000E+00  0.0000E+00
     -3.887  0.0000E+00  0.0000E+00
     -3.747 -0.2238E-32 -0.3142E-33
     -3.607 -0.2187E-27 -0.3071E-28
     -3.466 -0.7915E-23 -0.1111E-23
     -3.326 -0.1059E-18 -0.1487E-19
     -3.185 -0.5101E-15 -0.7162E-16
     -3.045 -0.9127E-12 -0.1282E-12
     -2.905 -0.5981E-09 -0.8410E-10
     -2.764 -0.1411E-06 -0.1990E-07
     -2.624 -0.1171E-04 -0.1664E-05
     -2.484 -0.3229E-03 -0.4699E-04
     -2.343 -0.2416E-02 -0.3862E-03
     -2.203  0.1974E-02 -0.1091E-03
     -2.062  0.4128E-01  0.5686E-02
     -1.922  0.5841E-01  0.1389E-01
     -1.782  0.2564E-02  0.1425E-01
     -1.641  0.9065E-02  0.1552E-01
     -1.501  0.2471E+00  0.5021E-01
     -1.360  0.3556E+00  0.1001E+00
     -1.220  0.6776E-01  0.1096E+00
     -1.080  0.5885E-01  0.1179E+00
     -0.939  0.5931E+00  0.2012E+00
     -0.799  0.6446E+00  0.2917E+00
     -0.658  0.1034E+00  0.3062E+00
     -0.518  0.1673E+00  0.3297E+00
     -0.378  0.4928E+00  0.3988E+00
     -0.237  0.2383E+00  0.4323E+00
     -0.097  0.3864E-01  0.4377E+00
      0.043  0.2895E+00  0.4784E+00
      0.184  0.2634E+00  0.5153E+00
      0.324  0.7120E-01  0.5253E+00
      0.465  0.8796E+00  0.6488E+00
      0.605  0.1402E+01  0.8456E+00
      0.745  0.8037E+00  0.9585E+00
      0.886  0.1331E+01  0.1145E+01
      1.026  0.1060E+01  0.1294E+01
      1.167  0.8413E-01  0.1306E+01
      1.307 -0.1075E+00  0.1291E+01
      1.447 -0.1313E+00  0.1272E+01
      1.588  0.6405E+00  0.1362E+01
      1.728  0.2556E+01  0.1721E+01
      1.868  0.2520E+01  0.2075E+01
      2.009  0.1819E+01  0.2330E+01
      2.149  0.3276E+01  0.2790E+01
      2.290  0.4910E+01  0.3479E+01
      2.430  0.3787E+01  0.4011E+01
      2.570  0.4333E+01  0.4619E+01
      2.711  0.4522E+01  0.5254E+01
      2.851  0.3462E+01  0.5740E+01
      2.992  0.5761E+01  0.6549E+01
      3.132  0.8378E+01  0.7725E+01
      3.272  0.7544E+01  0.8784E+01
      3.413  0.3144E+01  0.9225E+01
      3.553  0.4333E+01  0.9834E+01
      3.693  0.8065E+01  0.1097E+02
      3.834  0.6162E+01  0.1183E+02
      3.974  0.2916E+01  0.1224E+02
      4.115  0.2692E+01  0.1262E+02
      4.255  0.5326E+01  0.1337E+02
      4.395  0.7766E+01  0.1446E+02
      4.536  0.6020E+01  0.1530E+02
      4.676  0.4498E+01  0.1593E+02
      4.817  0.9427E+01  0.1726E+02
      4.957  0.1057E+02  0.1874E+02
      5.097  0.7441E+01  0.1978E+02
      5.238  0.7276E+01  0.2081E+02
      5.378  0.8244E+01  0.2196E+02
      5.518  0.8148E+01  0.2311E+02
      5.659  0.5901E+01  0.2393E+02
      5.799  0.6400E+01  0.2483E+02
      5.940  0.7998E+01  0.2596E+02
      6.080  0.7956E+01  0.2707E+02
      6.220  0.6748E+01  0.2802E+02
      6.361  0.7507E+01  0.2907E+02
      6.501  0.5258E+01  0.2981E+02
      6.642  0.4366E+01  0.3043E+02
      6.782  0.9634E+01  0.3178E+02
      6.922  0.1162E+02  0.3341E+02
      7.063  0.5831E+01  0.3423E+02
      7.203  0.2867E+01  0.3463E+02
      7.344  0.5111E+01  0.3535E+02
      7.484  0.7648E+01  0.3642E+02
      7.624  0.1026E+02  0.3786E+02
      7.765  0.1284E+02  0.3966E+02
      7.905  0.8775E+01  0.4090E+02
      8.045  0.4890E+01  0.4158E+02
      8.186  0.4793E+01  0.4226E+02
      8.326  0.3881E+01  0.4280E+02
      8.467  0.1326E+01  0.4299E+02
      8.607 -0.9368E-01  0.4297E+02
      8.747 -0.1352E+00  0.4296E+02
      8.888 -0.4324E-01  0.4295E+02
      9.028  0.7035E+00  0.4305E+02
      9.169  0.1438E+01  0.4325E+02
      9.309  0.5598E+00  0.4333E+02
      9.449  0.1229E+01  0.4350E+02
      9.590  0.3435E+01  0.4398E+02
      9.730  0.2839E+01  0.4438E+02
      9.870  0.8385E+00  0.4450E+02
     10.011  0.6654E+00  0.4459E+02
     10.151  0.1642E+01  0.4482E+02
     10.292  0.8303E+00  0.4494E+02
     10.432 -0.3393E-01  0.4493E+02
     10.572 -0.9531E-01  0.4492E+02
     10.713 -0.3236E-01  0.4492E+02
     10.853  0.7172E+00  0.4502E+02
     10.994  0.1600E+01  0.4524E+02
     11.134  0.1684E+01  0.4548E+02
     11.274  0.1334E+01  0.4567E+02
     11.415  0.2632E+00  0.4570E+02
     11.555  0.1369E+00  0.4572E+02
     11.695  0.6867E+00  0.4582E+02
     11.836  0.7397E+00  0.4592E+02
     11.976  0.6617E+00  0.4602E+02
     12.117  0.3630E+00  0.4607E+02
     12.257  0.1735E+01  0.4631E+02
     12.397  0.4039E+01  0.4688E+02
     12.538  0.2545E+01  0.4723E+02
     12.678  0.1572E+00  0.4726E+02
     12.819 -0.1762E+00  0.4723E+02
     12.959 -0.1671E-01  0.4723E+02
     13.099  0.4449E+00  0.4729E+02
     13.240  0.7437E+00  0.4740E+02
     13.380  0.2490E+00  0.4743E+02
     13.520 -0.3175E-01  0.4743E+02
     13.661 -0.1498E-01  0.4742E+02
     13.801 -0.1099E-02  0.4742E+02
     13.942 -0.6986E-04  0.4742E+02
     14.082 -0.2056E-02  0.4742E+02
     14.222 -0.2905E-01  0.4742E+02
     14.363 -0.7219E-01  0.4741E+02
     14.503  0.4403E+00  0.4747E+02
     14.644  0.1564E+01  0.4769E+02
     14.784  0.1530E+01  0.4791E+02
     14.924  0.6643E+00  0.4800E+02
     15.065  0.2315E-01  0.4800E+02
     15.205 -0.1153E+00  0.4799E+02
     15.346  0.4369E+00  0.4805E+02
     15.486  0.1587E+01  0.4827E+02
     15.626  0.2657E+01  0.4864E+02
     15.767  0.3039E+01  0.4907E+02
     15.907  0.2951E+01  0.4948E+02
     16.047  0.2672E+01  0.4986E+02
     16.188  0.6296E+00  0.4995E+02
     16.328 -0.1490E+00  0.4993E+02
     16.469 -0.4390E-01  0.4992E+02
     16.609 -0.7781E-02  0.4992E+02
     16.749 -0.2412E-01  0.4992E+02
     16.890  0.6795E-01  0.4993E+02
     17.030  0.3898E+00  0.4998E+02
     17.171  0.2983E+00  0.5002E+02
     17.311  0.5268E+00  0.5010E+02
     17.451  0.2592E+01  0.5046E+02
     17.592  0.3163E+01  0.5090E+02
     17.732  0.1157E+01  0.5107E+02
     17.872  0.1010E+01  0.5121E+02
     18.013  0.1096E+01  0.5136E+02
     18.153  0.1933E+00  0.5139E+02
     18.294 -0.5832E-01  0.5138E+02
     18.434  0.1231E+01  0.5155E+02
     18.574  0.3165E+01  0.5200E+02
     18.715  0.3152E+01  0.5244E+02
     18.855  0.1174E+01  0.5261E+02
     18.996 -0.5389E-01  0.5260E+02
     19.136  0.2172E+00  0.5263E+02
     19.276  0.7731E+00  0.5274E+02
     19.417  0.1233E+01  0.5291E+02
     19.557  0.1421E+01  0.5311E+02
     19.697  0.1156E+01  0.5327E+02
     19.838  0.1438E+01  0.5347E+02
     19.978  0.5258E+00  0.5355E+02
     20.119 -0.8335E-01  0.5354E+02
     20.259  0.1720E+01  0.5378E+02
     20.399  0.3612E+01  0.5428E+02
     20.540  0.2419E+01  0.5462E+02
     20.680  0.1892E+01  0.5489E+02
     20.821  0.1196E+01  0.5506E+02
     20.961  0.2863E+00  0.5510E+02
     21.101  0.1638E+01  0.5533E+02
     21.242  0.2496E+01  0.5568E+02
     21.382  0.7257E+00  0.5578E+02
     21.522 -0.2776E+00  0.5574E+02
     21.663  0.7689E-01  0.5575E+02
     21.803  0.2762E+01  0.5614E+02
     21.944  0.4636E+01  0.5679E+02
     22.084  0.2193E+01  0.5710E+02
     22.224  0.1281E+00  0.5712E+02
     22.365 -0.3095E+00  0.5707E+02
     22.505  0.5756E+00  0.5715E+02
     22.646  0.3638E+01  0.5766E+02
     22.786  0.4750E+01  0.5833E+02
     22.926  0.3156E+01  0.5877E+02
     23.067  0.2192E+01  0.5908E+02
     23.207  0.1370E+01  0.5927E+02
     23.348  0.3382E+00  0.5932E+02
     23.488 -0.1954E+00  0.5929E+02
     23.628  0.7197E-01  0.5930E+02
     23.769  0.2260E+01  0.5962E+02
     23.909  0.4017E+01  0.6019E+02
     24.049  0.3209E+01  0.6064E+02
     24.190  0.2287E+01  0.6096E+02
     24.330  0.1581E+01  0.6118E+02
     24.471  0.4501E+00  0.6124E+02
     24.611 -0.2408E+00  0.6121E+02
     24.751  0.4139E+00  0.6127E+02
     24.892  0.3059E+01  0.6170E+02
     25.032  0.3197E+01  0.6214E+02
     25.173  0.4951E+00  0.6221E+02
     25.313 -0.3929E+00  0.6216E+02
     25.453  0.7908E+00  0.6227E+02
     25.594  0.4157E+01  0.6285E+02
     25.734  0.4249E+01  0.6345E+02
     25.874  0.1002E+01  0.6359E+02
     26.015  0.4501E+00  0.6365E+02
     26.155  0.1355E+01  0.6384E+02
     26.296  0.6877E+00  0.6394E+02
     26.436  0.1431E+01  0.6414E+02
     26.576  0.3377E+01  0.6462E+02
     26.717  0.2015E+01  0.6490E+02
     26.857  0.4303E+00  0.6496E+02
     26.998  0.1239E+01  0.6513E+02
     27.138  0.1117E+01  0.6529E+02
     27.278  0.5955E-01  0.6530E+02
     27.419 -0.9262E-01  0.6528E+02
     27.559  0.7922E+00  0.6540E+02
     27.699  0.2205E+01  0.6571E+02
     27.840  0.3101E+01  0.6614E+02
     27.980  0.2498E+01  0.6649E+02
     28.121  0.1617E+01  0.6672E+02
     28.261  0.8242E+00  0.6683E+02
     28.401  0.1190E+01  0.6700E+02
     28.542  0.3307E+01  0.6747E+02
     28.682  0.2985E+01  0.6788E+02
     28.823  0.8220E+00  0.6800E+02
     28.963  0.2344E+00  0.6803E+02
     29.103  0.5641E+00  0.6811E+02
     29.244  0.1147E+01  0.6827E+02
     29.384  0.1100E+01  0.6843E+02
     29.524  0.1421E+01  0.6863E+02
     29.665  0.2538E+01  0.6898E+02
     29.805  0.3330E+01  0.6945E+02
     29.946  0.2289E+01  0.6977E+02
     30.086  0.1038E+01  0.6992E+02
     30.226  0.1763E+01  0.7017E+02
     30.367  0.1417E+01  0.7036E+02
     30.507  0.1029E+00  0.7038E+02
     30.648  0.2467E+00  0.7041E+02
     30.788  0.1758E+01  0.7066E+02
     30.928  0.2413E+01  0.7100E+02
     31.069  0.3651E+01  0.7151E+02
     31.209  0.3890E+01  0.7206E+02
     31.350  0.3061E+01  0.7249E+02
     31.490  0.2098E+01  0.7278E+02
     31.630  0.2980E+00  0.7282E+02
     31.771  0.3557E+00  0.7287E+02
     31.911  0.1420E+01  0.7307E+02
     32.051  0.1587E+01  0.7330E+02
     32.192  0.2045E+01  0.7358E+02
     32.332  0.2529E+01  0.7394E+02
     32.473  0.2208E+01  0.7425E+02
     32.613  0.8399E+00  0.7437E+02
     32.753 -0.4271E-01  0.7436E+02
     32.894 -0.1265E+00  0.7434E+02
     33.034 -0.1977E+00  0.7431E+02
     33.175  0.8564E+00  0.7443E+02
     33.315  0.4605E+01  0.7508E+02
     33.455  0.6205E+01  0.7595E+02
     33.596  0.4025E+01  0.7652E+02
     33.736  0.3245E+01  0.7697E+02
     33.876  0.1955E+01  0.7725E+02
     34.017  0.9468E+00  0.7738E+02
     34.157  0.4722E+00  0.7745E+02
     34.298  0.4482E+00  0.7751E+02
     34.438  0.5690E+00  0.7759E+02
     34.578  0.1032E+01  0.7773E+02
     34.719  0.2622E+01  0.7810E+02
     34.859  0.2179E+01  0.7841E+02
     35.000  0.8472E+00  0.7853E+02
     35.140  0.8737E+00  0.7865E+02
     35.280  0.1487E+01  0.7886E+02
     35.421  0.6568E+00  0.7895E+02
     35.561 -0.7514E-01  0.7894E+02
     35.701  0.3567E+00  0.7899E+02
     35.842  0.1447E+01  0.7919E+02
     35.982  0.2188E+01  0.7950E+02
     36.123  0.2458E+01  0.7985E+02
     36.263  0.1196E+01  0.8001E+02
     36.403 -0.1205E-01  0.8001E+02
     36.544 -0.7543E-01  0.8000E+02
     36.684 -0.8537E-02  0.8000E+02
     36.825 -0.2778E-03  0.8000E+02
     36.965 -0.3060E-05  0.8000E+02
     37.105 -0.1199E-07  0.8000E+02
     37.246 -0.1707E-10  0.8000E+02
     37.386 -0.9110E-14  0.8000E+02
     37.526  0.0000E+00  0.8000E+02
     37.667  0.0000E+00  0.8000E+02
     37.807  0.0000E+00  0.8000E+02
     37.948  0.0000E+00  0.8000E+02
     38.088  0.0000E+00  0.8000E+02
