    4    4    1    1
  0.1022208E+02  0.3445083E-09  0.3445083E-09  0.3445083E-09  0.5000000E-15
  1.000000000000000E-004
  CAR 
 unknown system                          
     32     10     40
 
  0.0000000E+00  0.0000000E+00  0.0000000E+00  0.8000000E-02
    1       -2.027747   1.000000
    2        1.859323   1.000000
    3        1.859323   1.000000
    4        1.859323   1.000000
    5        2.599661   1.000000
    6        2.599661   1.000000
    7        2.599661   1.000000
    8        5.163907   1.000000
    9        5.163907   1.000000
   10        5.163907   1.000000
   11        6.723724   0.798388
   12        6.723724   0.798388
   13        7.759926  -0.000000
   14        7.759926  -0.000000
   15        7.759926  -0.000000
   16        8.061863  -0.000000
   17        8.061863  -0.000000
   18        8.061863  -0.000000
   19        8.061863  -0.000000
   20        8.061863  -0.000000
   21        8.061863  -0.000000
   22       10.077332  -0.000000
   23       10.077332  -0.000000
   24       10.077332  -0.000000
   25       18.568979   0.000000
   26       18.568979   0.000000
   27       18.568979   0.000000
   28       23.085892   0.000000
   29       23.085892   0.000000
   30       23.085892   0.000000
   31       23.085892   0.000000
   32       23.085892   0.000000
   33       23.085892   0.000000
   34       28.568876   0.000000
   35       28.568876   0.000000
   36       28.568876   0.000000
   37       30.151665   0.000000
   38       33.426641   0.000000
   39       33.426641   0.000000
   40       33.426641   0.000000
 
  0.2000000E+00  0.0000000E+00  0.0000000E+00  0.4800000E-01
    1       -1.466367   1.000000
    2        1.960841   1.000000
    3        2.193809   1.000000
    4        2.193809   1.000000
    5        2.817917   1.000000
    6        2.856858   1.000000
    7        2.856858   1.000000
    8        4.885696   1.000000
    9        5.372967   1.000000
   10        5.372967   1.000000
   11        6.471770   1.021162
   12        6.609406   1.019571
   13        6.609406   1.019571
   14        6.819106   0.419798
   15        7.426073  -0.000044
   16        7.426073  -0.000044
   17        7.662199  -0.000000
   18        7.682732  -0.000000
   19        7.682732  -0.000000
   20        8.060499  -0.000000
   21        8.060499  -0.000000
   22        8.243644  -0.000000
   23       11.920072  -0.000000
   24       11.920072  -0.000000
   25       18.571186   0.000000
   26       18.571186   0.000000
   27       21.109626   0.000000
   28       21.109626   0.000000
   29       21.133717   0.000000
   30       22.013065   0.000000
   31       22.013065   0.000000
   32       24.013575   0.000000
   33       24.013575   0.000000
   34       28.645493   0.000000
   35       29.800936   0.000000
   36       31.034029   0.000000
   37       31.034029   0.000000
   38       33.175154   0.000000
   39       33.380290   0.000000
   40       33.380303   0.000000
 
  0.4000000E+00  0.0000000E+00  0.0000000E+00  0.4800000E-01
    1        0.045676   1.000000
    2        1.638599   1.000000
    3        2.873686   1.000000
    4        2.873686   1.000000
    5        3.408659   1.000000
    6        3.627621   1.000000
    7        3.627621   1.000000
    8        4.195650   1.000000
    9        4.901054   1.000000
   10        4.901054   1.000000
   11        5.923213   1.000000
   12        5.971335   1.000000
   13        5.971335   1.000000
   14        6.085330   1.000003
   15        6.728516   0.782313
   16        6.728516   0.782313
   17        6.831599   0.368356
   18        6.831599   0.368356
   19        7.077302  -0.032264
   20        7.395659  -0.000106
   21        8.060636  -0.000000
   22        8.060636  -0.000000
   23       14.788978   0.000000
   24       14.788978   0.000000
   25       17.927633   0.000000
   26       17.927633   0.000000
   27       18.578956   0.000000
   28       18.578956   0.000000
   29       20.726698   0.000000
   30       20.726698   0.000000
   31       25.707330   0.000000
   32       26.468817   0.000000
   33       26.468817   0.000000
   34       28.833061   0.000000
   35       29.230726   0.000000
   36       29.742953   0.000000
   37       29.824331   0.000000
   38       29.824331   0.000000
   39       34.964665   0.000000
   40       35.713641   0.000000
 
  0.2000000E+00  0.2000000E+00  0.0000000E+00  0.9600000E-01
    1       -0.930942   1.000000
    2        2.321560   1.000000
    3        2.321560   1.000000
    4        2.490871   1.000000
    5        3.049035   1.000000
    6        3.049035   1.000000
    7        3.066738   1.000000
    8        4.766536   1.000000
    9        5.441421   1.000000
   10        5.462409   1.000000
   11        6.032566   1.000000
   12        6.038532   1.000001
   13        6.038532   1.000001
   14        6.427632   1.012160
   15        6.853022   0.284361
   16        7.171052  -0.012409
   17        7.386040  -0.000137
   18        7.386040  -0.000137
   19        7.678903  -0.000000
   20        7.678903  -0.000000
   21        7.815463  -0.000000
   22       10.088838  -0.000000
   23       10.088838  -0.000000
   24       13.145815   0.000000
   25       17.365217   0.000000
   26       19.204646   0.000000
   27       21.152137   0.000000
   28       21.152137   0.000000
   29       21.880222   0.000000
   30       21.880222   0.000000
   31       22.958694   0.000000
   32       22.958694   0.000000
   33       24.867312   0.000000
   34       28.369036   0.000000
   35       29.633886   0.000000
   36       30.092579   0.000000
   37       31.300400   0.000000
   38       31.300400   0.000000
   39       34.326712   0.000000
   40       36.088040   0.000000
 
  0.4000000E+00  0.2000000E+00  0.0000000E+00  0.1920000E+00
    1        0.507920   1.000000
    2        2.042250   1.000000
    3        3.101148   1.000000
    4        3.163965   1.000000
    5        3.564686   1.000000
    6        3.589108   1.000000
    7        3.732117   1.000000
    8        4.234876   1.000000
    9        4.534282   1.000000
   10        4.812339   1.000000
   11        5.230210   1.000000
   12        5.412954   1.000000
   13        5.987685   1.000000
   14        6.287422   1.000869
   15        6.621639   1.010003
   16        6.722863   0.801222
   17        6.829062   0.378690
   18        6.892314   0.151899
   19        7.316388  -0.000798
   20        7.672414  -0.000000
   21        7.688050  -0.000000
   22        8.162610  -0.000000
   23       12.269681   0.000000
   24       14.600099   0.000000
   25       15.678251   0.000000
   26       18.686981   0.000000
   27       19.457816   0.000000
   28       20.362183   0.000000
   29       22.810510   0.000000
   30       23.775290   0.000000
   31       24.034096   0.000000
   32       24.247392   0.000000
   33       26.092301   0.000000
   34       26.583547   0.000000
   35       26.981603   0.000000
   36       32.106959   0.000000
   37       32.272881   0.000000
   38       33.287549   0.000000
   39       33.505747   0.000000
   40       36.062752   0.000000
 
  0.4000000E+00  0.4000000E+00  0.0000000E+00  0.9600000E-01
    1        1.701178   1.000000
    2        2.956852   1.000000
    3        2.956852   1.000000
    4        3.465257   1.000000
    5        3.850823   1.000000
    6        3.986778   1.000000
    7        3.986778   1.000000
    8        4.208961   1.000000
    9        4.421128   1.000000
   10        4.421128   1.000000
   11        4.489832   1.000000
   12        5.053179   1.000000
   13        6.029649   1.000000
   14        6.226744   1.000193
   15        6.271649   1.000600
   16        6.358261   1.003844
   17        6.358261   1.003844
   18        6.877739   0.197177
   19        6.877739   0.197177
   20        7.132325  -0.020261
   21        8.234846  -0.000000
   22        9.691234  -0.000000
   23        9.691234  -0.000000
   24       11.654112  -0.000000
   25       17.817650   0.000000
   26       20.290231   0.000000
   27       20.605370   0.000000
   28       20.605370   0.000000
   29       21.808858   0.000000
   30       21.808858   0.000000
   31       23.144748   0.000000
   32       23.834977   0.000000
   33       28.075940   0.000000
   34       28.075940   0.000000
   35       29.270009   0.000000
   36       30.800026   0.000000
   37       33.271384   0.000000
   38       34.831585   0.000000
   39       35.850001   0.000000
   40       35.850001   0.000000
 
  0.2000000E+00  0.2000000E+00  0.2000000E+00  0.6400000E-01
    1       -0.438490   1.000000
    2        2.593899   1.000000
    3        2.593899   1.000000
    4        2.593899   1.000000
    5        3.248506   1.000000
    6        3.248506   1.000000
    7        3.248506   1.000000
    8        4.713673   1.000000
    9        5.452297   1.000000
   10        5.452297   1.000000
   11        5.615078   1.000000
   12        5.615078   1.000000
   13        5.615078   1.000000
   14        6.699303   0.872160
   15        6.699303   0.872160
   16        6.755913   0.681838
   17        6.755913   0.681838
   18        6.755913   0.681838
   19        7.897995  -0.000000
   20        7.897995  -0.000000
   21        7.897995  -0.000000
   22       10.912637  -0.000000
   23       10.912637  -0.000000
   24       10.912637  -0.000000
   25       18.455073   0.000000
   26       18.455073   0.000000
   27       18.455073   0.000000
   28       21.845382   0.000000
   29       21.845382   0.000000
   30       21.845382   0.000000
   31       25.584074   0.000000
   32       25.656462   0.000000
   33       25.656462   0.000000
   34       25.656462   0.000000
   35       30.236764   0.000000
   36       30.236764   0.000000
   37       30.236764   0.000000
   38       31.057231   0.000000
   39       34.666409   0.000000
   40       34.666409   0.000000
 
  0.4000000E+00  0.2000000E+00  0.2000000E+00  0.1920000E+00
    1        0.862849   1.000000
    2        2.243210   1.000000
    3        3.184533   1.000000
    4        3.184533   1.000000
    5        3.640377   1.000000
    6        3.640377   1.000000
    7        3.797143   1.000000
    8        4.375686   1.000000
    9        4.815238   1.000000
   10        4.815238   1.000000
   11        5.068134   1.000000
   12        5.336530   1.000000
   13        5.624199   1.000000
   14        6.100906   1.000004
   15        6.325885   1.002022
   16        6.325885   1.002022
   17        6.859770   0.259387
   18        7.246344  -0.003530
   19        7.720024  -0.000000
   20        7.720985  -0.000000
   21        7.720985  -0.000000
   22        8.291803  -0.000000
   23       12.381150   0.000000
   24       12.381150   0.000000
   25       15.931672   0.000000
   26       15.931672   0.000000
   27       20.308531   0.000000
   28       22.620786   0.000000
   29       22.620786   0.000000
   30       22.701768   0.000000
   31       24.902881   0.000000
   32       24.902881   0.000000
   33       26.493777   0.000000
   34       27.850903   0.000000
   35       29.535823   0.000000
   36       31.043720   0.000000
   37       31.106939   0.000000
   38       33.361570   0.000000
   39       33.361570   0.000000
   40       34.668194   0.000000
 
  0.4000000E+00  0.4000000E+00  0.2000000E+00  0.1920000E+00
    1        1.710440   1.000000
    2        2.589767   1.000000
    3        2.589767   1.000000
    4        2.898231   1.000000
    5        4.150315   1.000000
    6        4.350437   1.000000
    7        4.350437   1.000000
    8        4.701067   1.000000
    9        4.882370   1.000000
   10        4.882370   1.000000
   11        5.069454   1.000000
   12        5.139269   1.000000
   13        5.465590   1.000000
   14        5.776767   1.000000
   15        5.776767   1.000000
   16        5.806755   1.000000
   17        6.935697   0.047968
   18        7.474937  -0.000010
   19        7.474937  -0.000010
   20        7.525437  -0.000002
   21        7.999730  -0.000000
   22        9.521953  -0.000000
   23        9.521953  -0.000000
   24       11.157400  -0.000000
   25       15.645991   0.000000
   26       17.491981   0.000000
   27       17.491981   0.000000
   28       19.764202   0.000000
   29       23.825761   0.000000
   30       25.561160   0.000000
   31       25.561160   0.000000
   32       27.601983   0.000000
   33       28.532960   0.000000
   34       28.532960   0.000000
   35       29.788590   0.000000
   36       30.768209   0.000000
   37       32.426130   0.000000
   38       33.687300   0.000000
   39       33.687300   0.000000
   40       35.212038   0.000000
 
  0.4000000E+00  0.4000000E+00  0.4000000E+00  0.6400000E-01
    1        1.825167   1.000000
    2        2.213739   1.000000
    3        2.213739   1.000000
    4        2.213739   1.000000
    5        4.792802   1.000000
    6        4.792802   1.000000
    7        4.792802   1.000000
    8        5.163274   1.000000
    9        5.163274   1.000000
   10        5.300879   1.000000
   11        5.300879   1.000000
   12        5.300879   1.000000
   13        5.854332   1.000000
   14        5.854332   1.000000
   15        5.854332   1.000000
   16        5.939054   1.000000
   17        7.579121  -0.000000
   18        7.579121  -0.000000
   19        7.805726  -0.000000
   20        7.805726  -0.000000
   21        7.805726  -0.000000
   22        9.095799  -0.000000
   23        9.095799  -0.000000
   24        9.095799  -0.000000
   25       15.431515   0.000000
   26       15.431515   0.000000
   27       15.431515   0.000000
   28       17.026659   0.000000
   29       27.778304   0.000000
   30       27.778304   0.000000
   31       27.778304   0.000000
   32       29.088659   0.000000
   33       31.382963   0.000000
   34       31.382963   0.000000
   35       31.382963   0.000000
   36       31.860436   0.000000
   37       31.860436   0.000000
   38       31.860436   0.000000
   39       33.962220   0.000000
   40       33.962220   0.000000
