       N       E                     dE             d eps       ncg     rms          rms(c)
DAV:   1     0.148361414202E+03    0.14836E+03   -0.79059E+03   872   0.624E+02
DAV:   2    -0.276583288949E+02   -0.17602E+03   -0.15499E+03   808   0.174E+02
DAV:   3    -0.383967205586E+02   -0.10738E+02   -0.10012E+02   928   0.515E+01
DAV:   4    -0.385092154059E+02   -0.11249E+00   -0.11231E+00   872   0.612E+00
DAV:   5    -0.385101862990E+02   -0.97089E-03   -0.97087E-03   912   0.449E-01    0.240E+01
DAV:   6    -0.326480075437E+02    0.58622E+01   -0.12673E+01   888   0.491E+01    0.344E+00
DAV:   7    -0.323111025939E+02    0.33690E+00   -0.10658E+00   952   0.120E+01    0.136E+00
DAV:   8    -0.322590474509E+02    0.52055E-01   -0.11150E-02  1048   0.769E-01    0.620E-01
DAV:   9    -0.322388686681E+02    0.20179E-01   -0.41927E-03   976   0.375E-01    0.775E-02
DAV:  10    -0.322388967425E+02   -0.28074E-04   -0.34776E-04   904   0.981E-02    0.411E-02
DAV:  11    -0.322388892688E+02    0.74737E-05   -0.28813E-06   920   0.131E-02    0.200E-02
DAV:  12    -0.322388874225E+02    0.18463E-05   -0.22598E-06   896   0.924E-03    0.202E-03
DAV:  13    -0.322388885719E+02   -0.11494E-05   -0.12051E-07   496   0.174E-03    0.838E-04
DAV:  14    -0.322388889052E+02   -0.33331E-06   -0.12574E-08   432   0.767E-04
   1 F= -.32238889E+02 E0= -.32221476E+02  d E =-.522381E-01
