unknown system                          
   1.00000000000000     
     3.635000    0.000000    0.000000
     0.000000    3.635000    0.000000
     0.000000    0.000000    3.635000
   Cu
     4
Direct
  0.000000  0.000000  0.000000
  0.500000  0.500000  0.000000
  0.500000  0.000000  0.500000
  0.000000  0.500000  0.500000
 
   28   28   28
  843.17      780.65      617.86      414.07      230.60      104.69      41.542      20.978      13.932      10.566    
  9.1222      7.9498      7.3148      7.5989      7.9328      7.5989      7.3148      7.9498      9.1222      10.566    
  13.932      20.978      41.542      104.69      230.60      414.07      617.86      780.65      780.65      722.41    
  570.81      381.29      211.29      95.627      38.636      20.455      13.746      10.507      9.0716      7.8829    
  7.1798      7.3358      7.5989      7.3358      7.1798      7.8829      9.0716      10.507      13.746      20.455    
  38.636      95.627      211.29      381.29      570.81      722.41      617.86      570.81      448.58      296.58    
  162.05      73.149      31.810      19.124      13.240      10.381      9.0451      7.9410      7.2186      7.1798    
  7.3148      7.1798      7.2186      7.9410      9.0451      10.381      13.240      19.124      31.810      73.149    
  162.05      296.58      448.58      570.81      414.07      381.29      296.58      192.71      103.52      48.107    
  25.004      17.256      12.556      10.286      9.2218      8.4341      7.9410      7.8829      7.9498      7.8829    
  7.9410      8.4341      9.2218      10.286      12.556      17.256      25.004      48.107      103.52      192.71    
  296.58      381.29      230.60      211.29      162.05      103.52      56.304      30.176      20.464      15.212    
  11.888      10.308      9.6133      9.2218      9.0451      9.0716      9.1222      9.0716      9.0451      9.2218    
  9.6133      10.308      11.888      15.212      20.464      30.176      56.304      103.52      162.05      211.29    
  104.69      95.627      73.149      48.107      30.176      21.617      16.898      13.428      11.447      10.583    
  10.308      10.286      10.381      10.507      10.566      10.507      10.381      10.286      10.308      10.583    
  11.447      13.428      16.898      21.617      30.176      48.107      73.149      95.627      41.542      38.636    
  31.810      25.004      20.464      16.898      14.034      12.241      11.470      11.447      11.888      12.556    
  13.240      13.746      13.932      13.746      13.240      12.556      11.888      11.447      11.470      12.241    
  14.034      16.898      20.464      25.004      31.810      38.636      20.978      20.455      19.124      17.256    
  15.212      13.428      12.241      11.829      12.241      13.428      15.212      17.256      19.124      20.455    
  20.978      20.455      19.124      17.256      15.212      13.428      12.241      11.829      12.241      13.428    
  15.212      17.256      19.124      20.455      13.932      13.746      13.240      12.556      11.888      11.447    
  11.470      12.241      14.034      16.898      20.464      25.004      31.810      38.636      41.542      38.636    
  31.810      25.004      20.464      16.898      14.034      12.241      11.470      11.447      11.888      12.556    
  13.240      13.746      10.566      10.507      10.381      10.286      10.308      10.583      11.447      13.428    
  16.898      21.617      30.176      48.107      73.149      95.627      104.69      95.627      73.149      48.107    
  30.176      21.617      16.898      13.428      11.447      10.583      10.308      10.286      10.381      10.507    
  9.1222      9.0716      9.0451      9.2218      9.6133      10.308      11.888      15.212      20.464      30.176    
  56.304      103.52      162.05      211.29      230.60      211.29      162.05      103.52      56.304      30.176    
  20.464      15.212      11.888      10.308      9.6133      9.2218      9.0451      9.0716      7.9498      7.8829    
  7.9410      8.4341      9.2218      10.286      12.556      17.256      25.004      48.107      103.52      192.71    
  296.58      381.29      414.07      381.29      296.58      192.71      103.52      48.107      25.004      17.256    
  12.556      10.286      9.2218      8.4341      7.9410      7.8829      7.3148      7.1798      7.2186      7.9410    
  9.0451      10.381      13.240      19.124      31.810      73.149      162.05      296.58      448.58      570.81    
  617.86      570.81      448.58      296.58      162.05      73.149      31.810      19.124      13.240      10.381    
  9.0451      7.9410      7.2186      7.1798      7.5989      7.3358      7.1798      7.8829      9.0716      10.507    
  13.746      20.455      38.636      95.627      211.29      381.29      570.81      722.41      780.65      722.41    
  570.81      381.29      211.29      95.627      38.636      20.455      13.746      10.507      9.0716      7.8829    
  7.1798      7.3358      7.9328      7.5989      7.3148      7.9498      9.1222      10.566      13.932      20.978    
  41.542      104.69      230.60      414.07      617.86      780.65      843.17      780.65      617.86      414.07    
  230.60      104.69      41.542      20.978      13.932      10.566      9.1222      7.9498      7.3148      7.5989    
  7.5989      7.3358      7.1798      7.8829      9.0716      10.507      13.746      20.455      38.636      95.627    
  211.29      381.29      570.81      722.41      780.65      722.41      570.81      381.29      211.29      95.627    
  38.636      20.455      13.746      10.507      9.0716      7.8829      7.1798      7.3358      7.3148      7.1798    
  7.2186      7.9410      9.0451      10.381      13.240      19.124      31.810      73.149      162.05      296.58    
  448.58      570.81      617.86      570.81      448.58      296.58      162.05      73.149      31.810      19.124    
  13.240      10.381      9.0451      7.9410      7.2186      7.1798      7.9498      7.8829      7.9410      8.4341    
  9.2218      10.286      12.556      17.256      25.004      48.107      103.52      192.71      296.58      381.29    
  414.07      381.29      296.58      192.71      103.52      48.107      25.004      17.256      12.556      10.286    
  9.2218      8.4341      7.9410      7.8829      9.1222      9.0716      9.0451      9.2218      9.6133      10.308    
  11.888      15.212      20.464      30.176      56.304      103.52      162.05      211.29      230.60      211.29    
  162.05      103.52      56.304      30.176      20.464      15.212      11.888      10.308      9.6133      9.2218    
  9.0451      9.0716      10.566      10.507      10.381      10.286      10.308      10.583      11.447      13.428    
  16.898      21.617      30.176      48.107      73.149      95.627      104.69      95.627      73.149      48.107    
  30.176      21.617      16.898      13.428      11.447      10.583      10.308      10.286      10.381      10.507    
  13.932      13.746      13.240      12.556      11.888      11.447      11.470      12.241      14.034      16.898    
  20.464      25.004      31.810      38.636      41.542      38.636      31.810      25.004      20.464      16.898    
  14.034      12.241      11.470      11.447      11.888      12.556      13.240      13.746      20.978      20.455    
  19.124      17.256      15.212      13.428      12.241      11.829      12.241      13.428      15.212      17.256    
  19.124      20.455      20.978      20.455      19.124      17.256      15.212      13.428      12.241      11.829    
  12.241      13.428      15.212      17.256      19.124      20.455      41.542      38.636      31.810      25.004    
  20.464      16.898      14.034      12.241      11.470      11.447      11.888      12.556      13.240      13.746    
  13.932      13.746      13.240      12.556      11.888      11.447      11.470      12.241      14.034      16.898    
  20.464      25.004      31.810      38.636      104.69      95.627      73.149      48.107      30.176      21.617    
  16.898      13.428      11.447      10.583      10.308      10.286      10.381      10.507      10.566      10.507    
  10.381      10.286      10.308      10.583      11.447      13.428      16.898      21.617      30.176      48.107    
  73.149      95.627      230.60      211.29      162.05      103.52      56.304      30.176      20.464      15.212    
  11.888      10.308      9.6133      9.2218      9.0451      9.0716      9.1222      9.0716      9.0451      9.2218    
  9.6133      10.308      11.888      15.212      20.464      30.176      56.304      103.52      162.05      211.29    
  414.07      381.29      296.58      192.71      103.52      48.107      25.004      17.256      12.556      10.286    
  9.2218      8.4341      7.9410      7.8829      7.9498      7.8829      7.9410      8.4341      9.2218      10.286    
  12.556      17.256      25.004      48.107      103.52      192.71      296.58      381.29      617.86      570.81    
  448.58      296.58      162.05      73.149      31.810      19.124      13.240      10.381      9.0451      7.9410    
  7.2186      7.1798      7.3148      7.1798      7.2186      7.9410      9.0451      10.381      13.240      19.124    
  31.810      73.149      162.05      296.58      448.58      570.81      780.65      722.41      570.81      381.29    
  211.29      95.627      38.636      20.455      13.746      10.507      9.0716      7.8829      7.1798      7.3358    
  7.5989      7.3358      7.1798      7.8829      9.0716      10.507      13.746      20.455      38.636      95.627    
  211.29      381.29      570.81      722.41      780.65      722.41      570.81      381.29      211.29      95.627    
  38.636      20.455      13.746      10.507      9.0716      7.8829      7.1798      7.3358      7.5989      7.3358    
  7.1798      7.8829      9.0716      10.507      13.746      20.455      38.636      95.627      211.29      381.29    
  570.81      722.41      722.41      668.16      527.04      350.87      193.49      87.381      36.057      19.973    
  13.566      10.457      9.0389      7.8457      7.0897      7.1351      7.3358      7.1351      7.0897      7.8457    
  9.0389      10.457      13.566      19.973      36.057      87.381      193.49      350.87      527.04      668.16    
  570.81      527.04      413.38      272.36      148.17      67.000      30.030      18.698      13.077      10.347    
  9.0452      7.9547      7.2050      7.0897      7.1798      7.0897      7.2050      7.9547      9.0452      10.347    
  13.077      18.698      30.030      67.000      148.17      272.36      413.38      527.04      381.29      350.87    
  272.36      176.40      94.599      44.488      24.056      16.882      12.416      10.262      9.2368      8.4649    
  7.9547      7.8457      7.8829      7.8457      7.9547      8.4649      9.2368      10.262      12.416      16.882    
  24.056      44.488      94.599      176.40      272.36      350.87      211.29      193.49      148.17      94.599    
  51.835      28.602      19.941      14.912      11.771      10.282      9.6196      9.2368      9.0452      9.0389    
  9.0716      9.0389      9.0452      9.2368      9.6196      10.282      11.771      14.912      19.941      28.602    
  51.835      94.599      148.17      193.49      95.627      87.381      67.000      44.488      28.602      21.026    
  16.502      13.207      11.345      10.537      10.282      10.262      10.347      10.457      10.507      10.457    
  10.347      10.262      10.282      10.537      11.345      13.207      16.502      21.026      28.602      44.488    
  67.000      87.381      38.636      36.057      30.030      24.056      19.941      16.502      13.772      12.079    
  11.358      11.345      11.771      12.416      13.077      13.566      13.746      13.566      13.077      12.416    
  11.771      11.345      11.358      12.079      13.772      16.502      19.941      24.056      30.030      36.057    
  20.455      19.973      18.698      16.882      14.912      13.207      12.079      11.689      12.079      13.207    
  14.912      16.882      18.698      19.973      20.455      19.973      18.698      16.882      14.912      13.207    
  12.079      11.689      12.079      13.207      14.912      16.882      18.698      19.973      13.746      13.566    
  13.077      12.416      11.771      11.345      11.358      12.079      13.772      16.502      19.941      24.056    
  30.030      36.057      38.636      36.057      30.030      24.056      19.941      16.502      13.772      12.079    
  11.358      11.345      11.771      12.416      13.077      13.566      10.507      10.457      10.347      10.262    
  10.282      10.537      11.345      13.207      16.502      21.026      28.602      44.488      67.000      87.381    
  95.627      87.381      67.000      44.488      28.602      21.026      16.502      13.207      11.345      10.537    
  10.282      10.262      10.347      10.457      9.0716      9.0389      9.0452      9.2368      9.6196      10.282    
  11.771      14.912      19.941      28.602      51.835      94.599      148.17      193.49      211.29      193.49    
  148.17      94.599      51.835      28.602      19.941      14.912      11.771      10.282      9.6196      9.2368    
  9.0452      9.0389      7.8829      7.8457      7.9547      8.4649      9.2368      10.262      12.416      16.882    
  24.056      44.488      94.599      176.40      272.36      350.87      381.29      350.87      272.36      176.40    
  94.599      44.488      24.056      16.882      12.416      10.262      9.2368      8.4649      7.9547      7.8457    
  7.1798      7.0897      7.2050      7.9547      9.0452      10.347      13.077      18.698      30.030      67.000    
  148.17      272.36      413.38      527.04      570.81      527.04      413.38      272.36      148.17      67.000    
  30.030      18.698      13.077      10.347      9.0452      7.9547      7.2050      7.0897      7.3358      7.1351    
  7.0897      7.8457      9.0389      10.457      13.566      19.973      36.057      87.381      193.49      350.87    
  527.04      668.16      722.41      668.16      527.04      350.87      193.49      87.381      36.057      19.973    
  13.566      10.457      9.0389      7.8457      7.0897      7.1351      7.5989      7.3358      7.1798      7.8829    
  9.0716      10.507      13.746      20.455      38.636      95.627      211.29      381.29      570.81      722.41    
  780.65      722.41      570.81      381.29      211.29      95.627      38.636      20.455      13.746      10.507    
  9.0716      7.8829      7.1798      7.3358      7.3358      7.1351      7.0897      7.8457      9.0389      10.457    
  13.566      19.973      36.057      87.381      193.49      350.87      527.04      668.16      722.41      668.16    
  527.04      350.87      193.49      87.381      36.057      19.973      13.566      10.457      9.0389      7.8457    
  7.0897      7.1351      7.1798      7.0897      7.2050      7.9547      9.0452      10.347      13.077      18.698    
  30.030      67.000      148.17      272.36      413.38      527.04      570.81      527.04      413.38      272.36    
  148.17      67.000      30.030      18.698      13.077      10.347      9.0452      7.9547      7.2050      7.0897    
  7.8829      7.8457      7.9547      8.4649      9.2368      10.262      12.416      16.882      24.056      44.488    
  94.599      176.40      272.36      350.87      381.29      350.87      272.36      176.40      94.599      44.488    
  24.056      16.882      12.416      10.262      9.2368      8.4649      7.9547      7.8457      9.0716      9.0389    
  9.0452      9.2368      9.6196      10.282      11.771      14.912      19.941      28.602      51.835      94.599    
  148.17      193.49      211.29      193.49      148.17      94.599      51.835      28.602      19.941      14.912    
  11.771      10.282      9.6196      9.2368      9.0452      9.0389      10.507      10.457      10.347      10.262    
  10.282      10.537      11.345      13.207      16.502      21.026      28.602      44.488      67.000      87.381    
  95.627      87.381      67.000      44.488      28.602      21.026      16.502      13.207      11.345      10.537    
  10.282      10.262      10.347      10.457      13.746      13.566      13.077      12.416      11.771      11.345    
  11.358      12.079      13.772      16.502      19.941      24.056      30.030      36.057      38.636      36.057    
  30.030      24.056      19.941      16.502      13.772      12.079      11.358      11.345      11.771      12.416    
  13.077      13.566      20.455      19.973      18.698      16.882      14.912      13.207      12.079      11.689    
  12.079      13.207      14.912      16.882      18.698      19.973      20.455      19.973      18.698      16.882    
  14.912      13.207      12.079      11.689      12.079      13.207      14.912      16.882      18.698      19.973    
  38.636      36.057      30.030      24.056      19.941      16.502      13.772      12.079      11.358      11.345    
  11.771      12.416      13.077      13.566      13.746      13.566      13.077      12.416      11.771      11.345    
  11.358      12.079      13.772      16.502      19.941      24.056      30.030      36.057      95.627      87.381    
  67.000      44.488      28.602      21.026      16.502      13.207      11.345      10.537      10.282      10.262    
  10.347      10.457      10.507      10.457      10.347      10.262      10.282      10.537      11.345      13.207    
  16.502      21.026      28.602      44.488      67.000      87.381      211.29      193.49      148.17      94.599    
  51.835      28.602      19.941      14.912      11.771      10.282      9.6196      9.2368      9.0452      9.0389    
  9.0716      9.0389      9.0452      9.2368      9.6196      10.282      11.771      14.912      19.941      28.602    
  51.835      94.599      148.17      193.49      381.29      350.87      272.36      176.40      94.599      44.488    
  24.056      16.882      12.416      10.262      9.2368      8.4649      7.9547      7.8457      7.8829      7.8457    
  7.9547      8.4649      9.2368      10.262      12.416      16.882      24.056      44.488      94.599      176.40    
  272.36      350.87      570.81      527.04      413.38      272.36      148.17      67.000      30.030      18.698    
  13.077      10.347      9.0452      7.9547      7.2050      7.0897      7.1798      7.0897      7.2050      7.9547    
  9.0452      10.347      13.077      18.698      30.030      67.000      148.17      272.36      413.38      527.04    
  722.41      668.16      527.04      350.87      193.49      87.381      36.057      19.973      13.566      10.457    
  9.0389      7.8457      7.0897      7.1351      7.3358      7.1351      7.0897      7.8457      9.0389      10.457    
  13.566      19.973      36.057      87.381      193.49      350.87      527.04      668.16      617.86      570.81    
  448.58      296.58      162.05      73.149      31.810      19.124      13.240      10.381      9.0451      7.9410    
  7.2186      7.1798      7.3148      7.1798      7.2186      7.9410      9.0451      10.381      13.240      19.124    
  31.810      73.149      162.05      296.58      448.58      570.81      570.81      527.04      413.38      272.36    
  148.17      67.000      30.030      18.698      13.077      10.347      9.0452      7.9547      7.2050      7.0897    
  7.1798      7.0897      7.2050      7.9547      9.0452      10.347      13.077      18.698      30.030      67.000    
  148.17      272.36      413.38      527.04      448.58      413.38      322.26      210.13      113.12      51.990    
  25.918      17.519      12.634      10.269      9.1054      8.1334      7.4208      7.2050      7.2186      7.2050    
  7.4208      8.1334      9.1054      10.269      12.634      17.519      25.918      51.990      113.12      210.13    
  322.26      413.38      296.58      272.36      210.13      134.97      72.429      35.862      21.828      15.863    
  12.040      10.204      9.3064      8.6226      8.1334      7.9547      7.9410      7.9547      8.1334      8.6226    
  9.3064      10.204      12.040      15.863      21.828      35.862      72.429      134.97      210.13      272.36    
  162.05      148.17      113.12      72.429      41.063      24.948      18.500      14.108      11.463      10.217    
  9.6484      9.3064      9.1054      9.0452      9.0451      9.0452      9.1054      9.3064      9.6484      10.217    
  11.463      14.108      18.500      24.948      41.063      72.429      113.12      148.17      73.149      67.000    
  51.990      35.862      24.948      19.453      15.433      12.622      11.080      10.422      10.217      10.204    
  10.269      10.347      10.381      10.347      10.269      10.204      10.217      10.422      11.080      12.622    
  15.433      19.453      24.948      35.862      51.990      67.000      31.810      30.030      25.918      21.828    
  18.500      15.433      13.077      11.657      11.071      11.080      11.463      12.040      12.634      13.077    
  13.240      13.077      12.634      12.040      11.463      11.080      11.071      11.657      13.077      15.433    
  18.500      21.828      25.918      30.030      19.124      18.698      17.519      15.863      14.108      12.622    
  11.657      11.326      11.657      12.622      14.108      15.863      17.519      18.698      19.124      18.698    
  17.519      15.863      14.108      12.622      11.657      11.326      11.657      12.622      14.108      15.863    
  17.519      18.698      13.240      13.077      12.634      12.040      11.463      11.080      11.071      11.657    
  13.077      15.433      18.500      21.828      25.918      30.030      31.810      30.030      25.918      21.828    
  18.500      15.433      13.077      11.657      11.071      11.080      11.463      12.040      12.634      13.077    
  10.381      10.347      10.269      10.204      10.217      10.422      11.080      12.622      15.433      19.453    
  24.948      35.862      51.990      67.000      73.149      67.000      51.990      35.862      24.948      19.453    
  15.433      12.622      11.080      10.422      10.217      10.204      10.269      10.347      9.0451      9.0452    
  9.1054      9.3064      9.6484      10.217      11.463      14.108      18.500      24.948      41.063      72.429    
  113.12      148.17      162.05      148.17      113.12      72.429      41.063      24.948      18.500      14.108    
  11.463      10.217      9.6484      9.3064      9.1054      9.0452      7.9410      7.9547      8.1334      8.6226    
  9.3064      10.204      12.040      15.863      21.828      35.862      72.429      134.97      210.13      272.36    
  296.58      272.36      210.13      134.97      72.429      35.862      21.828      15.863      12.040      10.204    
  9.3064      8.6226      8.1334      7.9547      7.2186      7.2050      7.4208      8.1334      9.1054      10.269    
  12.634      17.519      25.918      51.990      113.12      210.13      322.26      413.38      448.58      413.38    
  322.26      210.13      113.12      51.990      25.918      17.519      12.634      10.269      9.1054      8.1334    
  7.4208      7.2050      7.1798      7.0897      7.2050      7.9547      9.0452      10.347      13.077      18.698    
  30.030      67.000      148.17      272.36      413.38      527.04      570.81      527.04      413.38      272.36    
  148.17      67.000      30.030      18.698      13.077      10.347      9.0452      7.9547      7.2050      7.0897    
  7.3148      7.1798      7.2186      7.9410      9.0451      10.381      13.240      19.124      31.810      73.149    
  162.05      296.58      448.58      570.81      617.86      570.81      448.58      296.58      162.05      73.149    
  31.810      19.124      13.240      10.381      9.0451      7.9410      7.2186      7.1798      7.1798      7.0897    
  7.2050      7.9547      9.0452      10.347      13.077      18.698      30.030      67.000      148.17      272.36    
  413.38      527.04      570.81      527.04      413.38      272.36      148.17      67.000      30.030      18.698    
  13.077      10.347      9.0452      7.9547      7.2050      7.0897      7.2186      7.2050      7.4208      8.1334    
  9.1054      10.269      12.634      17.519      25.918      51.990      113.12      210.13      322.26      413.38    
  448.58      413.38      322.26      210.13      113.12      51.990      25.918      17.519      12.634      10.269    
  9.1054      8.1334      7.4208      7.2050      7.9410      7.9547      8.1334      8.6226      9.3064      10.204    
  12.040      15.863      21.828      35.862      72.429      134.97      210.13      272.36      296.58      272.36    
  210.13      134.97      72.429      35.862      21.828      15.863      12.040      10.204      9.3064      8.6226    
  8.1334      7.9547      9.0451      9.0452      9.1054      9.3064      9.6484      10.217      11.463      14.108    
  18.500      24.948      41.063      72.429      113.12      148.17      162.05      148.17      113.12      72.429    
  41.063      24.948      18.500      14.108      11.463      10.217      9.6484      9.3064      9.1054      9.0452    
  10.381      10.347      10.269      10.204      10.217      10.422      11.080      12.622      15.433      19.453    
  24.948      35.862      51.990      67.000      73.149      67.000      51.990      35.862      24.948      19.453    
  15.433      12.622      11.080      10.422      10.217      10.204      10.269      10.347      13.240      13.077    
  12.634      12.040      11.463      11.080      11.071      11.657      13.077      15.433      18.500      21.828    
  25.918      30.030      31.810      30.030      25.918      21.828      18.500      15.433      13.077      11.657    
  11.071      11.080      11.463      12.040      12.634      13.077      19.124      18.698      17.519      15.863    
  14.108      12.622      11.657      11.326      11.657      12.622      14.108      15.863      17.519      18.698    
  19.124      18.698      17.519      15.863      14.108      12.622      11.657      11.326      11.657      12.622    
  14.108      15.863      17.519      18.698      31.810      30.030      25.918      21.828      18.500      15.433    
  13.077      11.657      11.071      11.080      11.463      12.040      12.634      13.077      13.240      13.077    
  12.634      12.040      11.463      11.080      11.071      11.657      13.077      15.433      18.500      21.828    
  25.918      30.030      73.149      67.000      51.990      35.862      24.948      19.453      15.433      12.622    
  11.080      10.422      10.217      10.204      10.269      10.347      10.381      10.347      10.269      10.204    
  10.217      10.422      11.080      12.622      15.433      19.453      24.948      35.862      51.990      67.000    
  162.05      148.17      113.12      72.429      41.063      24.948      18.500      14.108      11.463      10.217    
  9.6484      9.3064      9.1054      9.0452      9.0451      9.0452      9.1054      9.3064      9.6484      10.217    
  11.463      14.108      18.500      24.948      41.063      72.429      113.12      148.17      296.58      272.36    
  210.13      134.97      72.429      35.862      21.828      15.863      12.040      10.204      9.3064      8.6226    
  8.1334      7.9547      7.9410      7.9547      8.1334      8.6226      9.3064      10.204      12.040      15.863    
  21.828      35.862      72.429      134.97      210.13      272.36      448.58      413.38      322.26      210.13    
  113.12      51.990      25.918      17.519      12.634      10.269      9.1054      8.1334      7.4208      7.2050    
  7.2186      7.2050      7.4208      8.1334      9.1054      10.269      12.634      17.519      25.918      51.990    
  113.12      210.13      322.26      413.38      570.81      527.04      413.38      272.36      148.17      67.000    
  30.030      18.698      13.077      10.347      9.0452      7.9547      7.2050      7.0897      7.1798      7.0897    
  7.2050      7.9547      9.0452      10.347      13.077      18.698      30.030      67.000      148.17      272.36    
  413.38      527.04      414.07      381.29      296.58      192.71      103.52      48.107      25.004      17.256    
  12.556      10.286      9.2218      8.4341      7.9410      7.8829      7.9498      7.8829      7.9410      8.4341    
  9.2218      10.286      12.556      17.256      25.004      48.107      103.52      192.71      296.58      381.29    
  381.29      350.87      272.36      176.40      94.599      44.488      24.056      16.882      12.416      10.262    
  9.2368      8.4649      7.9547      7.8457      7.8829      7.8457      7.9547      8.4649      9.2368      10.262    
  12.416      16.882      24.056      44.488      94.599      176.40      272.36      350.87      296.58      272.36    
  210.13      134.97      72.429      35.862      21.828      15.863      12.040      10.204      9.3064      8.6226    
  8.1334      7.9547      7.9410      7.9547      8.1334      8.6226      9.3064      10.204      12.040      15.863    
  21.828      35.862      72.429      134.97      210.13      272.36      192.71      176.40      134.97      86.205    
  47.640      27.032      19.249      14.470      11.544      10.149      9.4649      8.9742      8.6226      8.4649    