unknown system                          
   1.00000000000000     
     3.635000    0.000000    0.000000
     0.000000    3.635000    0.000000
     0.000000    0.000000    3.635000
   Cu
     4
Direct
  0.000000  0.000000  0.000000
  0.500000  0.500000  0.000000
  0.500000  0.000000  0.500000
  0.000000  0.500000  0.500000
 
   28   28   28
 0.84316535540E+03 0.78064659158E+03 0.61785869076E+03 0.41406997932E+03 0.23059753520E+03
 0.10468671789E+03 0.41542293738E+02 0.20977792703E+02 0.13931963076E+02 0.10565879569E+02
 0.91222409462E+01 0.79498183547E+01 0.73147955319E+01 0.75988748388E+01 0.79328012759E+01
 0.75988748388E+01 0.73147955319E+01 0.79498183547E+01 0.91222409462E+01 0.10565879569E+02
 0.13931963076E+02 0.20977792703E+02 0.41542293738E+02 0.10468671789E+03 0.23059753520E+03
 0.41406997932E+03 0.61785869076E+03 0.78064659158E+03 0.78064659158E+03 0.72240617395E+03
 0.57081408262E+03 0.38129366068E+03 0.21129391337E+03 0.95626597613E+02 0.38636094545E+02
 0.20455080243E+02 0.13746055395E+02 0.10507128876E+02 0.90716120501E+01 0.78828743339E+01
 0.71797709430E+01 0.73357524182E+01 0.75988748388E+01 0.73357524182E+01 0.71797709430E+01
 0.78828743339E+01 0.90716120501E+01 0.10507128876E+02 0.13746055395E+02 0.20455080243E+02
 0.38636094545E+02 0.95626597613E+02 0.21129391337E+03 0.38129366068E+03 0.57081408262E+03
 0.72240617395E+03 0.61785869076E+03 0.57081408262E+03 0.44857985216E+03 0.29658446663E+03
 0.16204732543E+03 0.73149115505E+02 0.31809837481E+02 0.19123640186E+02 0.13240031304E+02
 0.10380670327E+02 0.90451155728E+01 0.79410209818E+01 0.72186129650E+01 0.71797709430E+01
 0.73147955319E+01 0.71797709430E+01 0.72186129650E+01 0.79410209818E+01 0.90451155728E+01
 0.10380670327E+02 0.13240031304E+02 0.19123640186E+02 0.31809837481E+02 0.73149115505E+02
 0.16204732543E+03 0.29658446663E+03 0.44857985216E+03 0.57081408262E+03 0.41406997932E+03
 0.38129366068E+03 0.29658446663E+03 0.19271094131E+03 0.10351929224E+03 0.48106599136E+02
 0.25004033663E+02 0.17256200252E+02 0.12555724017E+02 0.10285761693E+02 0.92217541274E+01
 0.84341087149E+01 0.79410209818E+01 0.78828743339E+01 0.79498183547E+01 0.78828743339E+01
 0.79410209818E+01 0.84341087149E+01 0.92217541274E+01 0.10285761693E+02 0.12555724017E+02
 0.17256200252E+02 0.25004033663E+02 0.48106599136E+02 0.10351929224E+03 0.19271094131E+03
 0.29658446663E+03 0.38129366068E+03 0.23059753520E+03 0.21129391337E+03 0.16204732543E+03
 0.10351929224E+03 0.56304201150E+02 0.30176135770E+02 0.20464365062E+02 0.15212271921E+02
 0.11887650981E+02 0.10308267236E+02 0.96132719853E+01 0.92217541274E+01 0.90451155728E+01
 0.90716120501E+01 0.91222409462E+01 0.90716120501E+01 0.90451155728E+01 0.92217541274E+01
 0.96132719853E+01 0.10308267236E+02 0.11887650981E+02 0.15212271921E+02 0.20464365062E+02
 0.30176135770E+02 0.56304201150E+02 0.10351929224E+03 0.16204732543E+03 0.21129391337E+03
 0.10468671789E+03 0.95626597613E+02 0.73149115505E+02 0.48106599136E+02 0.30176135770E+02
 0.21617479711E+02 0.16898309663E+02 0.13428269346E+02 0.11447205379E+02 0.10583454517E+02
 0.10308267236E+02 0.10285761693E+02 0.10380670327E+02 0.10507128876E+02 0.10565879569E+02
 0.10507128876E+02 0.10380670327E+02 0.10285761693E+02 0.10308267236E+02 0.10583454517E+02
 0.11447205379E+02 0.13428269346E+02 0.16898309663E+02 0.21617479711E+02 0.30176135770E+02
 0.48106599136E+02 0.73149115505E+02 0.95626597613E+02 0.41542293738E+02 0.38636094545E+02
 0.31809837481E+02 0.25004033663E+02 0.20464365062E+02 0.16898309663E+02 0.14034438993E+02
 0.12241413228E+02 0.11469752050E+02 0.11447205379E+02 0.11887650981E+02 0.12555724017E+02
 0.13240031304E+02 0.13746055395E+02 0.13931963076E+02 0.13746055395E+02 0.13240031304E+02
 0.12555724017E+02 0.11887650981E+02 0.11447205379E+02 0.11469752050E+02 0.12241413228E+02
 0.14034438993E+02 0.16898309663E+02 0.20464365062E+02 0.25004033663E+02 0.31809837481E+02
 0.38636094545E+02 0.20977792703E+02 0.20455080243E+02 0.19123640186E+02 0.17256200252E+02
 0.15212271921E+02 0.13428269346E+02 0.12241413228E+02 0.11829443977E+02 0.12241413228E+02
 0.13428269346E+02 0.15212271921E+02 0.17256200252E+02 0.19123640186E+02 0.20455080243E+02
 0.20977792703E+02 0.20455080243E+02 0.19123640186E+02 0.17256200252E+02 0.15212271921E+02
 0.13428269346E+02 0.12241413228E+02 0.11829443977E+02 0.12241413228E+02 0.13428269346E+02
 0.15212271921E+02 0.17256200252E+02 0.19123640186E+02 0.20455080243E+02 0.13931963076E+02
 0.13746055395E+02 0.13240031304E+02 0.12555724017E+02 0.11887650981E+02 0.11447205379E+02
 0.11469752050E+02 0.12241413228E+02 0.14034438993E+02 0.16898309663E+02 0.20464365062E+02
 0.25004033663E+02 0.31809837481E+02 0.38636094545E+02 0.41542293738E+02 0.38636094545E+02
 0.31809837481E+02 0.25004033663E+02 0.20464365062E+02 0.16898309663E+02 0.14034438993E+02
 0.12241413228E+02 0.11469752050E+02 0.11447205379E+02 0.11887650981E+02 0.12555724017E+02
 0.13240031304E+02 0.13746055395E+02 0.10565879569E+02 0.10507128876E+02 0.10380670327E+02
 0.10285761693E+02 0.10308267236E+02 0.10583454517E+02 0.11447205379E+02 0.13428269346E+02
 0.16898309663E+02 0.21617479711E+02 0.30176135770E+02 0.48106599136E+02 0.73149115505E+02
 0.95626597613E+02 0.10468671789E+03 0.95626597613E+02 0.73149115505E+02 0.48106599136E+02
 0.30176135770E+02 0.21617479711E+02 0.16898309663E+02 0.13428269346E+02 0.11447205379E+02
 0.10583454517E+02 0.10308267236E+02 0.10285761693E+02 0.10380670327E+02 0.10507128876E+02
 0.91222409462E+01 0.90716120501E+01 0.90451155728E+01 0.92217541274E+01 0.96132719853E+01
 0.10308267236E+02 0.11887650981E+02 0.15212271921E+02 0.20464365062E+02 0.30176135770E+02
 0.56304201150E+02 0.10351929224E+03 0.16204732543E+03 0.21129391337E+03 0.23059753520E+03
 0.21129391337E+03 0.16204732543E+03 0.10351929224E+03 0.56304201150E+02 0.30176135770E+02
 0.20464365062E+02 0.15212271921E+02 0.11887650981E+02 0.10308267236E+02 0.96132719853E+01
 0.92217541274E+01 0.90451155728E+01 0.90716120501E+01 0.79498183547E+01 0.78828743339E+01
 0.79410209818E+01 0.84341087149E+01 0.92217541274E+01 0.10285761693E+02 0.12555724017E+02
 0.17256200252E+02 0.25004033663E+02 0.48106599136E+02 0.10351929224E+03 0.19271094131E+03
 0.29658446663E+03 0.38129366068E+03 0.41406997932E+03 0.38129366068E+03 0.29658446663E+03
 0.19271094131E+03 0.10351929224E+03 0.48106599136E+02 0.25004033663E+02 0.17256200252E+02
 0.12555724017E+02 0.10285761693E+02 0.92217541274E+01 0.84341087149E+01 0.79410209818E+01
 0.78828743339E+01 0.73147955319E+01 0.71797709430E+01 0.72186129650E+01 0.79410209818E+01
 0.90451155728E+01 0.10380670327E+02 0.13240031304E+02 0.19123640186E+02 0.31809837481E+02
 0.73149115505E+02 0.16204732543E+03 0.29658446663E+03 0.44857985216E+03 0.57081408262E+03
 0.61785869076E+03 0.57081408262E+03 0.44857985216E+03 0.29658446663E+03 0.16204732543E+03
 0.73149115505E+02 0.31809837481E+02 0.19123640186E+02 0.13240031304E+02 0.10380670327E+02
 0.90451155728E+01 0.79410209818E+01 0.72186129650E+01 0.71797709430E+01 0.75988748388E+01
 0.73357524182E+01 0.71797709430E+01 0.78828743339E+01 0.90716120501E+01 0.10507128876E+02
 0.13746055395E+02 0.20455080243E+02 0.38636094545E+02 0.95626597613E+02 0.21129391337E+03
 0.38129366068E+03 0.57081408262E+03 0.72240617395E+03 0.78064659158E+03 0.72240617395E+03
 0.57081408262E+03 0.38129366068E+03 0.21129391337E+03 0.95626597613E+02 0.38636094545E+02
 0.20455080243E+02 0.13746055395E+02 0.10507128876E+02 0.90716120501E+01 0.78828743339E+01
 0.71797709430E+01 0.73357524182E+01 0.79328012759E+01 0.75988748388E+01 0.73147955319E+01
 0.79498183547E+01 0.91222409462E+01 0.10565879569E+02 0.13931963076E+02 0.20977792703E+02
 0.41542293738E+02 0.10468671789E+03 0.23059753520E+03 0.41406997932E+03 0.61785869076E+03
 0.78064659158E+03 0.84316535540E+03 0.78064659158E+03 0.61785869076E+03 0.41406997932E+03
 0.23059753520E+03 0.10468671789E+03 0.41542293738E+02 0.20977792703E+02 0.13931963076E+02
 0.10565879569E+02 0.91222409462E+01 0.79498183547E+01 0.73147955319E+01 0.75988748388E+01
 0.75988748388E+01 0.73357524182E+01 0.71797709430E+01 0.78828743339E+01 0.90716120501E+01
 0.10507128876E+02 0.13746055395E+02 0.20455080243E+02 0.38636094545E+02 0.95626597613E+02
 0.21129391337E+03 0.38129366068E+03 0.57081408262E+03 0.72240617395E+03 0.78064659158E+03
 0.72240617395E+03 0.57081408262E+03 0.38129366068E+03 0.21129391337E+03 0.95626597613E+02
 0.38636094545E+02 0.20455080243E+02 0.13746055395E+02 0.10507128876E+02 0.90716120501E+01
 0.78828743339E+01 0.71797709430E+01 0.73357524182E+01 0.73147955319E+01 0.71797709430E+01
 0.72186129650E+01 0.79410209818E+01 0.90451155728E+01 0.10380670327E+02 0.13240031304E+02
 0.19123640186E+02 0.31809837481E+02 0.73149115505E+02 0.16204732543E+03 0.29658446663E+03
 0.44857985216E+03 0.57081408262E+03 0.61785869076E+03 0.57081408262E+03 0.44857985216E+03
 0.29658446663E+03 0.16204732543E+03 0.73149115505E+02 0.31809837481E+02 0.19123640186E+02
 0.13240031304E+02 0.10380670327E+02 0.90451155728E+01 0.79410209818E+01 0.72186129650E+01
 0.71797709430E+01 0.79498183547E+01 0.78828743339E+01 0.79410209818E+01 0.84341087149E+01
 0.92217541274E+01 0.10285761693E+02 0.12555724017E+02 0.17256200252E+02 0.25004033663E+02
 0.48106599136E+02 0.10351929224E+03 0.19271094131E+03 0.29658446663E+03 0.38129366068E+03
 0.41406997932E+03 0.38129366068E+03 0.29658446663E+03 0.19271094131E+03 0.10351929224E+03
 0.48106599136E+02 0.25004033663E+02 0.17256200252E+02 0.12555724017E+02 0.10285761693E+02
 0.92217541274E+01 0.84341087149E+01 0.79410209818E+01 0.78828743339E+01 0.91222409462E+01
 0.90716120501E+01 0.90451155728E+01 0.92217541274E+01 0.96132719853E+01 0.10308267236E+02
 0.11887650981E+02 0.15212271921E+02 0.20464365062E+02 0.30176135770E+02 0.56304201150E+02
 0.10351929224E+03 0.16204732543E+03 0.21129391337E+03 0.23059753520E+03 0.21129391337E+03
 0.16204732543E+03 0.10351929224E+03 0.56304201150E+02 0.30176135770E+02 0.20464365062E+02
 0.15212271921E+02 0.11887650981E+02 0.10308267236E+02 0.96132719853E+01 0.92217541274E+01
 0.90451155728E+01 0.90716120501E+01 0.10565879569E+02 0.10507128876E+02 0.10380670327E+02
 0.10285761693E+02 0.10308267236E+02 0.10583454517E+02 0.11447205379E+02 0.13428269346E+02
 0.16898309663E+02 0.21617479711E+02 0.30176135770E+02 0.48106599136E+02 0.73149115505E+02
 0.95626597613E+02 0.10468671789E+03 0.95626597613E+02 0.73149115505E+02 0.48106599136E+02
 0.30176135770E+02 0.21617479711E+02 0.16898309663E+02 0.13428269346E+02 0.11447205379E+02
 0.10583454517E+02 0.10308267236E+02 0.10285761693E+02 0.10380670327E+02 0.10507128876E+02
 0.13931963076E+02 0.13746055395E+02 0.13240031304E+02 0.12555724017E+02 0.11887650981E+02
 0.11447205379E+02 0.11469752050E+02 0.12241413228E+02 0.14034438993E+02 0.16898309663E+02
 0.20464365062E+02 0.25004033663E+02 0.31809837481E+02 0.38636094545E+02 0.41542293738E+02
 0.38636094545E+02 0.31809837481E+02 0.25004033663E+02 0.20464365062E+02 0.16898309663E+02
 0.14034438993E+02 0.12241413228E+02 0.11469752050E+02 0.11447205379E+02 0.11887650981E+02
 0.12555724017E+02 0.13240031304E+02 0.13746055395E+02 0.20977792703E+02 0.20455080243E+02
 0.19123640186E+02 0.17256200252E+02 0.15212271921E+02 0.13428269346E+02 0.12241413228E+02
 0.11829443977E+02 0.12241413228E+02 0.13428269346E+02 0.15212271921E+02 0.17256200252E+02
 0.19123640186E+02 0.20455080243E+02 0.20977792703E+02 0.20455080243E+02 0.19123640186E+02
 0.17256200252E+02 0.15212271921E+02 0.13428269346E+02 0.12241413228E+02 0.11829443977E+02
 0.12241413228E+02 0.13428269346E+02 0.15212271921E+02 0.17256200252E+02 0.19123640186E+02
 0.20455080243E+02 0.41542293738E+02 0.38636094545E+02 0.31809837481E+02 0.25004033663E+02
 0.20464365062E+02 0.16898309663E+02 0.14034438993E+02 0.12241413228E+02 0.11469752050E+02
 0.11447205379E+02 0.11887650981E+02 0.12555724017E+02 0.13240031304E+02 0.13746055395E+02
 0.13931963076E+02 0.13746055395E+02 0.13240031304E+02 0.12555724017E+02 0.11887650981E+02
 0.11447205379E+02 0.11469752050E+02 0.12241413228E+02 0.14034438993E+02 0.16898309663E+02
 0.20464365062E+02 0.25004033663E+02 0.31809837481E+02 0.38636094545E+02 0.10468671789E+03
 0.95626597613E+02 0.73149115505E+02 0.48106599136E+02 0.30176135770E+02 0.21617479711E+02
 0.16898309663E+02 0.13428269346E+02 0.11447205379E+02 0.10583454517E+02 0.10308267236E+02
 0.10285761693E+02 0.10380670327E+02 0.10507128876E+02 0.10565879569E+02 0.10507128876E+02
 0.10380670327E+02 0.10285761693E+02 0.10308267236E+02 0.10583454517E+02 0.11447205379E+02
 0.13428269346E+02 0.16898309663E+02 0.21617479711E+02 0.30176135770E+02 0.48106599136E+02
 0.73149115505E+02 0.95626597613E+02 0.23059753520E+03 0.21129391337E+03 0.16204732543E+03
 0.10351929224E+03 0.56304201150E+02 0.30176135770E+02 0.20464365062E+02 0.15212271921E+02
 0.11887650981E+02 0.10308267236E+02 0.96132719853E+01 0.92217541274E+01 0.90451155728E+01
 0.90716120501E+01 0.91222409462E+01 0.90716120501E+01 0.90451155728E+01 0.92217541274E+01
 0.96132719853E+01 0.10308267236E+02 0.11887650981E+02 0.15212271921E+02 0.20464365062E+02
 0.30176135770E+02 0.56304201150E+02 0.10351929224E+03 0.16204732543E+03 0.21129391337E+03
 0.41406997932E+03 0.38129366068E+03 0.29658446663E+03 0.19271094131E+03 0.10351929224E+03
 0.48106599136E+02 0.25004033663E+02 0.17256200252E+02 0.12555724017E+02 0.10285761693E+02
 0.92217541274E+01 0.84341087149E+01 0.79410209818E+01 0.78828743339E+01 0.79498183547E+01
 0.78828743339E+01 0.79410209818E+01 0.84341087149E+01 0.92217541274E+01 0.10285761693E+02
 0.12555724017E+02 0.17256200252E+02 0.25004033663E+02 0.48106599136E+02 0.10351929224E+03
 0.19271094131E+03 0.29658446663E+03 0.38129366068E+03 0.61785869076E+03 0.57081408262E+03
 0.44857985216E+03 0.29658446663E+03 0.16204732543E+03 0.73149115505E+02 0.31809837481E+02
 0.19123640186E+02 0.13240031304E+02 0.10380670327E+02 0.90451155728E+01 0.79410209818E+01
 0.72186129650E+01 0.71797709430E+01 0.73147955319E+01 0.71797709430E+01 0.72186129650E+01
 0.79410209818E+01 0.90451155728E+01 0.10380670327E+02 0.13240031304E+02 0.19123640186E+02
 0.31809837481E+02 0.73149115505E+02 0.16204732543E+03 0.29658446663E+03 0.44857985216E+03
 0.57081408262E+03 0.78064659158E+03 0.72240617395E+03 0.57081408262E+03 0.38129366068E+03
 0.21129391337E+03 0.95626597613E+02 0.38636094545E+02 0.20455080243E+02 0.13746055395E+02
 0.10507128876E+02 0.90716120501E+01 0.78828743339E+01 0.71797709430E+01 0.73357524182E+01
 0.75988748388E+01 0.73357524182E+01 0.71797709430E+01 0.78828743339E+01 0.90716120501E+01
 0.10507128876E+02 0.13746055395E+02 0.20455080243E+02 0.38636094545E+02 0.95626597613E+02
 0.21129391337E+03 0.38129366068E+03 0.57081408262E+03 0.72240617395E+03 0.78064659158E+03
 0.72240617395E+03 0.57081408262E+03 0.38129366068E+03 0.21129391337E+03 0.95626597613E+02
 0.38636094545E+02 0.20455080243E+02 0.13746055395E+02 0.10507128876E+02 0.90716120501E+01
 0.78828743339E+01 0.71797709430E+01 0.73357524182E+01 0.75988748388E+01 0.73357524182E+01
 0.71797709430E+01 0.78828743339E+01 0.90716120501E+01 0.10507128876E+02 0.13746055395E+02
 0.20455080243E+02 0.38636094545E+02 0.95626597613E+02 0.21129391337E+03 0.38129366068E+03
 0.57081408262E+03 0.72240617395E+03 0.72240617395E+03 0.66816152204E+03 0.52703598716E+03
 0.35087301003E+03 0.19349007002E+03 0.87380881708E+02 0.36057443923E+02 0.19973452657E+02
 0.13566265989E+02 0.10456655080E+02 0.90389040327E+01 0.78456612592E+01 0.70897115607E+01
 0.71350606101E+01 0.73357524182E+01 0.71350606101E+01 0.70897115606E+01 0.78456612592E+01
 0.90389040327E+01 0.10456655080E+02 0.13566265989E+02 0.19973452657E+02 0.36057443923E+02
 0.87380881708E+02 0.19349007002E+03 0.35087301003E+03 0.52703598716E+03 0.66816152204E+03
 0.57081408262E+03 0.52703598716E+03 0.41337777038E+03 0.27235722073E+03 0.14817135440E+03
 0.67000329322E+02 0.30030299305E+02 0.18697850490E+02 0.13076946913E+02 0.10346649539E+02
 0.90451721472E+01 0.79546638749E+01 0.72049820920E+01 0.70897115606E+01 0.71797709430E+01
 0.70897115606E+01 0.72049820920E+01 0.79546638749E+01 0.90451721472E+01 0.10346649539E+02
 0.13076946913E+02 0.18697850490E+02 0.30030299305E+02 0.67000329322E+02 0.14817135440E+03
 0.27235722073E+03 0.41337777038E+03 0.52703598716E+03 0.38129366068E+03 0.35087301003E+03
 0.27235722073E+03 0.17640413423E+03 0.94599179245E+02 0.44487853281E+02 0.24055741944E+02
 0.16881944873E+02 0.12415663245E+02 0.10261902153E+02 0.92367901802E+01 0.84648783938E+01
 0.79546638749E+01 0.78456612592E+01 0.78828743339E+01 0.78456612592E+01 0.79546638749E+01
 0.84648783938E+01 0.92367901802E+01 0.10261902153E+02 0.12415663245E+02 0.16881944873E+02
 0.24055741944E+02 0.44487853281E+02 0.94599179245E+02 0.17640413423E+03 0.27235722073E+03
 0.35087301003E+03 0.21129391337E+03 0.19349007002E+03 0.14817135440E+03 0.94599179245E+02
 0.51835316559E+02 0.28601946012E+02 0.19941000409E+02 0.14912053975E+02 0.11770822914E+02
 0.10281969635E+02 0.96195723730E+01 0.92367901802E+01 0.90451721472E+01 0.90389040327E+01
 0.90716120501E+01 0.90389040327E+01 0.90451721472E+01 0.92367901802E+01 0.96195723730E+01
 0.10281969635E+02 0.11770822914E+02 0.14912053975E+02 0.19941000409E+02 0.28601946012E+02
 0.51835316559E+02 0.94599179245E+02 0.14817135440E+03 0.19349007002E+03 0.95626597613E+02
 0.87380881708E+02 0.67000329322E+02 0.44487853281E+02 0.28601946012E+02 0.21025630006E+02
 0.16501685901E+02 0.13206600212E+02 0.11344620240E+02 0.10537412497E+02 0.10281969635E+02
 0.10261902153E+02 0.10346649539E+02 0.10456655080E+02 0.10507128876E+02 0.10456655080E+02
 0.10346649539E+02 0.10261902153E+02 0.10281969635E+02 0.10537412497E+02 0.11344620240E+02
 0.13206600212E+02 0.16501685901E+02 0.21025630006E+02 0.28601946012E+02 0.44487853281E+02
 0.67000329322E+02 0.87380881708E+02 0.38636094545E+02 0.36057443923E+02 0.30030299305E+02
 0.24055741944E+02 0.19941000409E+02 0.16501685901E+02 0.13771855851E+02 0.12079010287E+02
 0.11357828154E+02 0.11344620240E+02 0.11770822914E+02 0.12415663245E+02 0.13076946913E+02
 0.13566265989E+02 0.13746055395E+02 0.13566265989E+02 0.13076946913E+02 0.12415663245E+02
 0.11770822914E+02 0.11344620240E+02 0.11357828154E+02 0.12079010287E+02 0.13771855851E+02
 0.16501685901E+02 0.19941000409E+02 0.24055741944E+02 0.30030299305E+02 0.36057443923E+02
 0.20455080243E+02 0.19973452657E+02 0.18697850490E+02 0.16881944873E+02 0.14912053975E+02
 0.13206600212E+02 0.12079010287E+02 0.11688937075E+02 0.12079010287E+02 0.13206600212E+02
 0.14912053975E+02 0.16881944873E+02 0.18697850490E+02 0.19973452657E+02 0.20455080243E+02
 0.19973452657E+02 0.18697850490E+02 0.16881944873E+02 0.14912053975E+02 0.13206600212E+02
 0.12079010287E+02 0.11688937075E+02 0.12079010287E+02 0.13206600212E+02 0.14912053975E+02
 0.16881944873E+02 0.18697850490E+02 0.19973452657E+02 0.13746055395E+02 0.13566265989E+02
 0.13076946913E+02 0.12415663245E+02 0.11770822914E+02 0.11344620240E+02 0.11357828154E+02
 0.12079010287E+02 0.13771855851E+02 0.16501685901E+02 0.19941000409E+02 0.24055741944E+02
 0.30030299305E+02 0.36057443923E+02 0.38636094545E+02 0.36057443923E+02 0.30030299305E+02
 0.24055741944E+02 0.19941000409E+02 0.16501685901E+02 0.13771855851E+02 0.12079010287E+02
 0.11357828154E+02 0.11344620240E+02 0.11770822914E+02 0.12415663245E+02 0.13076946913E+02
 0.13566265989E+02 0.10507128876E+02 0.10456655080E+02 0.10346649539E+02 0.10261902153E+02
 0.10281969635E+02 0.10537412497E+02 0.11344620240E+02 0.13206600212E+02 0.16501685901E+02
 0.21025630006E+02 0.28601946012E+02 0.44487853281E+02 0.67000329322E+02 0.87380881708E+02
 0.95626597613E+02 0.87380881708E+02 0.67000329322E+02 0.44487853281E+02 0.28601946012E+02
 0.21025630006E+02 0.16501685901E+02 0.13206600212E+02 0.11344620240E+02 0.10537412497E+02
 0.10281969635E+02 0.10261902153E+02 0.10346649539E+02 0.10456655080E+02 0.90716120501E+01
 0.90389040327E+01 0.90451721472E+01 0.92367901802E+01 0.96195723730E+01 0.10281969635E+02
 0.11770822914E+02 0.14912053975E+02 0.19941000409E+02 0.28601946012E+02 0.51835316559E+02
 0.94599179245E+02 0.14817135440E+03 0.19349007002E+03 0.21129391337E+03 0.19349007002E+03
 0.14817135440E+03 0.94599179245E+02 0.51835316559E+02 0.28601946012E+02 0.19941000409E+02
 0.14912053975E+02 0.11770822914E+02 0.10281969635E+02 0.96195723730E+01 0.92367901802E+01
 0.90451721472E+01 0.90389040327E+01 0.78828743339E+01 0.78456612592E+01 0.79546638749E+01
 0.84648783938E+01 0.92367901802E+01 0.10261902153E+02 0.12415663245E+02 0.16881944873E+02
 0.24055741944E+02 0.44487853281E+02 0.94599179245E+02 0.17640413423E+03 0.27235722073E+03
 0.35087301003E+03 0.38129366068E+03 0.35087301003E+03 0.27235722073E+03 0.17640413423E+03
 0.94599179245E+02 0.44487853281E+02 0.24055741944E+02 0.16881944873E+02 0.12415663245E+02
 0.10261902153E+02 0.92367901802E+01 0.84648783938E+01 0.79546638749E+01 0.78456612592E+01
 0.71797709430E+01 0.70897115606E+01 0.72049820920E+01 0.79546638749E+01 0.90451721472E+01
 0.10346649539E+02 0.13076946913E+02 0.18697850490E+02 0.30030299305E+02 0.67000329322E+02
 0.14817135440E+03 0.27235722073E+03 0.41337777038E+03 0.52703598716E+03 0.57081408262E+03
 0.52703598716E+03 0.41337777038E+03 0.27235722073E+03 0.14817135440E+03 0.67000329322E+02
 0.30030299305E+02 0.18697850490E+02 0.13076946913E+02 0.10346649539E+02 0.90451721472E+01
 0.79546638749E+01 0.72049820920E+01 0.70897115606E+01 0.73357524182E+01 0.71350606101E+01
 0.70897115607E+01 0.78456612592E+01 0.90389040327E+01 0.10456655080E+02 0.13566265989E+02
 0.19973452657E+02 0.36057443923E+02 0.87380881708E+02 0.19349007002E+03 0.35087301003E+03
 0.52703598716E+03 0.66816152204E+03 0.72240617395E+03 0.66816152204E+03 0.52703598716E+03
 0.35087301003E+03 0.19349007002E+03 0.87380881708E+02 0.36057443923E+02 0.19973452657E+02
 0.13566265989E+02 0.10456655080E+02 0.90389040327E+01 0.78456612592E+01 0.70897115607E+01
 0.71350606101E+01 0.75988748388E+01 0.73357524182E+01 0.71797709430E+01 0.78828743339E+01
 0.90716120501E+01 0.10507128876E+02 0.13746055395E+02 0.20455080243E+02 0.38636094545E+02
 0.95626597613E+02 0.21129391337E+03 0.38129366068E+03 0.57081408262E+03 0.72240617395E+03
 0.78064659158E+03 0.72240617395E+03 0.57081408262E+03 0.38129366068E+03 0.21129391337E+03
 0.95626597613E+02 0.38636094545E+02 0.20455080243E+02 0.13746055395E+02 0.10507128876E+02
 0.90716120501E+01 0.78828743339E+01 0.71797709430E+01 0.73357524182E+01 0.73357524182E+01
 0.71350606101E+01 0.70897115606E+01 0.78456612592E+01 0.90389040327E+01 0.10456655080E+02
 0.13566265989E+02 0.19973452657E+02 0.36057443923E+02 0.87380881708E+02 0.19349007002E+03
 0.35087301003E+03 0.52703598716E+03 0.66816152204E+03 0.72240617395E+03 0.66816152204E+03
 0.52703598716E+03 0.35087301003E+03 0.19349007002E+03 0.87380881708E+02 0.36057443923E+02
 0.19973452657E+02 0.13566265989E+02 0.10456655080E+02 0.90389040327E+01 0.78456612592E+01
 0.70897115606E+01 0.71350606101E+01 0.71797709430E+01 0.70897115606E+01 0.72049820920E+01
 0.79546638749E+01 0.90451721472E+01 0.10346649539E+02 0.13076946913E+02 0.18697850490E+02
 0.30030299305E+02 0.67000329322E+02 0.14817135440E+03 0.27235722073E+03 0.41337777038E+03
 0.52703598716E+03 0.57081408262E+03 0.52703598716E+03 0.41337777038E+03 0.27235722073E+03
 0.14817135440E+03 0.67000329322E+02 0.30030299305E+02 0.18697850490E+02 0.13076946913E+02
 0.10346649539E+02 0.90451721472E+01 0.79546638749E+01 0.72049820920E+01 0.70897115606E+01
 0.78828743339E+01 0.78456612592E+01 0.79546638749E+01 0.84648783938E+01 0.92367901802E+01
 0.10261902153E+02 0.12415663245E+02 0.16881944873E+02 0.24055741944E+02 0.44487853281E+02
 0.94599179245E+02 0.17640413423E+03 0.27235722073E+03 0.35087301003E+03 0.38129366068E+03
 0.35087301003E+03 0.27235722073E+03 0.17640413423E+03 0.94599179245E+02 0.44487853281E+02
 0.24055741944E+02 0.16881944873E+02 0.12415663245E+02 0.10261902153E+02 0.92367901802E+01
 0.84648783938E+01 0.79546638749E+01 0.78456612592E+01 0.90716120501E+01 0.90389040327E+01
 0.90451721472E+01 0.92367901802E+01 0.96195723730E+01 0.10281969635E+02 0.11770822914E+02
 0.14912053975E+02 0.19941000409E+02 0.28601946012E+02 0.51835316559E+02 0.94599179245E+02
 0.14817135440E+03 0.19349007002E+03 0.21129391337E+03 0.19349007002E+03 0.14817135440E+03
 0.94599179245E+02 0.51835316559E+02 0.28601946012E+02 0.19941000409E+02 0.14912053975E+02
 0.11770822914E+02 0.10281969635E+02 0.96195723730E+01 0.92367901802E+01 0.90451721472E+01
 0.90389040327E+01 0.10507128876E+02 0.10456655080E+02 0.10346649539E+02 0.10261902153E+02
 0.10281969635E+02 0.10537412497E+02 0.11344620240E+02 0.13206600212E+02 0.16501685901E+02
 0.21025630006E+02 0.28601946012E+02 0.44487853281E+02 0.67000329322E+02 0.87380881708E+02
 0.95626597613E+02 0.87380881708E+02 0.67000329322E+02 0.44487853281E+02 0.28601946012E+02
 0.21025630006E+02 0.16501685901E+02 0.13206600212E+02 0.11344620240E+02 0.10537412497E+02
 0.10281969635E+02 0.10261902153E+02 0.10346649539E+02 0.10456655080E+02 0.13746055395E+02
 0.13566265989E+02 0.13076946913E+02 0.12415663245E+02 0.11770822914E+02 0.11344620240E+02
 0.11357828154E+02 0.12079010287E+02 0.13771855851E+02 0.16501685901E+02 0.19941000409E+02
 0.24055741944E+02 0.30030299305E+02 0.36057443923E+02 0.38636094545E+02 0.36057443923E+02
 0.30030299305E+02 0.24055741944E+02 0.19941000409E+02 0.16501685901E+02 0.13771855851E+02
 0.12079010287E+02 0.11357828154E+02 0.11344620240E+02 0.11770822914E+02 0.12415663245E+02
 0.13076946913E+02 0.13566265989E+02 0.20455080243E+02 0.19973452657E+02 0.18697850490E+02
 0.16881944873E+02 0.14912053975E+02 0.13206600212E+02 0.12079010287E+02 0.11688937075E+02
 0.12079010287E+02 0.13206600212E+02 0.14912053975E+02 0.16881944873E+02 0.18697850490E+02
 0.19973452657E+02 0.20455080243E+02 0.19973452657E+02 0.18697850490E+02 0.16881944873E+02
 0.14912053975E+02 0.13206600212E+02 0.12079010287E+02 0.11688937075E+02 0.12079010287E+02
 0.13206600212E+02 0.14912053975E+02 0.16881944873E+02 0.18697850490E+02 0.19973452657E+02
 0.38636094545E+02 0.36057443923E+02 0.30030299305E+02 0.24055741944E+02 0.19941000409E+02
 0.16501685901E+02 0.13771855851E+02 0.12079010287E+02 0.11357828154E+02 0.11344620240E+02
 0.11770822914E+02 0.12415663245E+02 0.13076946913E+02 0.13566265989E+02 0.13746055395E+02
 0.13566265989E+02 0.13076946913E+02 0.12415663245E+02 0.11770822914E+02 0.11344620240E+02
 0.11357828154E+02 0.12079010287E+02 0.13771855851E+02 0.16501685901E+02 0.19941000409E+02
 0.24055741944E+02 0.30030299305E+02 0.36057443923E+02 0.95626597613E+02 0.87380881708E+02
 0.67000329322E+02 0.44487853281E+02 0.28601946012E+02 0.21025630006E+02 0.16501685901E+02
 0.13206600212E+02 0.11344620240E+02 0.10537412497E+02 0.10281969635E+02 0.10261902153E+02
 0.10346649539E+02 0.10456655080E+02 0.10507128876E+02 0.10456655080E+02 0.10346649539E+02
 0.10261902153E+02 0.10281969635E+02 0.10537412497E+02 0.11344620240E+02 0.13206600212E+02
 0.16501685901E+02 0.21025630006E+02 0.28601946012E+02 0.44487853281E+02 0.67000329322E+02
 0.87380881708E+02 0.21129391337E+03 0.19349007002E+03 0.14817135440E+03 0.94599179245E+02
 0.51835316559E+02 0.28601946012E+02 0.19941000409E+02 0.14912053975E+02 0.11770822914E+02
 0.10281969635E+02 0.96195723730E+01 0.92367901802E+01 0.90451721472E+01 0.90389040327E+01
 0.90716120501E+01 0.90389040327E+01 0.90451721472E+01 0.92367901802E+01 0.96195723730E+01
 0.10281969635E+02 0.11770822914E+02 0.14912053975E+02 0.19941000409E+02 0.28601946012E+02
 0.51835316559E+02 0.94599179245E+02 0.14817135440E+03 0.19349007002E+03 0.38129366068E+03
 0.35087301003E+03 0.27235722073E+03 0.17640413423E+03 0.94599179245E+02 0.44487853281E+02
 0.24055741944E+02 0.16881944873E+02 0.12415663245E+02 0.10261902153E+02 0.92367901802E+01
 0.84648783938E+01 0.79546638749E+01 0.78456612592E+01 0.78828743339E+01 0.78456612592E+01
 0.79546638749E+01 0.84648783938E+01 0.92367901802E+01 0.10261902153E+02 0.12415663245E+02
 0.16881944873E+02 0.24055741944E+02 0.44487853281E+02 0.94599179245E+02 0.17640413423E+03
 0.27235722073E+03 0.35087301003E+03 0.57081408262E+03 0.52703598716E+03 0.41337777038E+03
 0.27235722073E+03 0.14817135440E+03 0.67000329322E+02 0.30030299305E+02 0.18697850490E+02
 0.13076946913E+02 0.10346649539E+02 0.90451721472E+01 0.79546638749E+01 0.72049820920E+01
 0.70897115606E+01 0.71797709430E+01 0.70897115606E+01 0.72049820920E+01 0.79546638749E+01
 0.90451721472E+01 0.10346649539E+02 0.13076946913E+02 0.18697850490E+02 0.30030299305E+02
 0.67000329322E+02 0.14817135440E+03 0.27235722073E+03 0.41337777038E+03 0.52703598716E+03
 0.72240617395E+03 0.66816152204E+03 0.52703598716E+03 0.35087301003E+03 0.19349007002E+03
 0.87380881708E+02 0.36057443923E+02 0.19973452657E+02 0.13566265989E+02 0.10456655080E+02
 0.90389040327E+01 0.78456612592E+01 0.70897115607E+01 0.71350606101E+01 0.73357524182E+01
 0.71350606101E+01 0.70897115606E+01 0.78456612592E+01 0.90389040327E+01 0.10456655080E+02
 0.13566265989E+02 0.19973452657E+02 0.36057443923E+02 0.87380881708E+02 0.19349007002E+03
 0.35087301003E+03 0.52703598716E+03 0.66816152204E+03 0.61785869076E+03 0.57081408262E+03
 0.44857985216E+03 0.29658446663E+03 0.16204732543E+03 0.73149115505E+02 0.31809837481E+02
 0.19123640186E+02 0.13240031304E+02 0.10380670327E+02 0.90451155728E+01 0.79410209818E+01
 0.72186129650E+01 0.71797709430E+01 0.73147955319E+01 0.71797709430E+01 0.72186129650E+01
 0.79410209818E+01 0.90451155728E+01 0.10380670327E+02 0.13240031304E+02 0.19123640186E+02
 0.31809837481E+02 0.73149115505E+02 0.16204732543E+03 0.29658446663E+03 0.44857985216E+03
 0.57081408262E+03 0.57081408262E+03 0.52703598716E+03 0.41337777038E+03 0.27235722073E+03
 0.14817135440E+03 0.67000329322E+02 0.30030299305E+02 0.18697850490E+02 0.13076946913E+02
 0.10346649539E+02 0.90451721472E+01 0.79546638749E+01 0.72049820920E+01 0.70897115606E+01
 0.71797709430E+01 0.70897115606E+01 0.72049820920E+01 0.79546638749E+01 0.90451721472E+01
 0.10346649539E+02 0.13076946913E+02 0.18697850490E+02 0.30030299305E+02 0.67000329322E+02
 0.14817135440E+03 0.27235722073E+03 0.41337777038E+03 0.52703598716E+03 0.44857985216E+03