   4   4   0   0
  0.1200752E+02  0.3635000E-09  0.3635000E-09  0.3635000E-09  0.5000000E-15
  1.000000000000000E-004
  CAR 
 unknown system                          
     27.69046350     -3.82918628  301      7.21644659      1.00000000
     -3.829  0.0000E+00  0.0000E+00
     -3.724  0.0000E+00  0.0000E+00
     -3.619  0.0000E+00  0.0000E+00
     -3.514 -0.5486E-31 -0.5764E-32
     -3.409 -0.2724E-27 -0.2862E-28
     -3.304 -0.7754E-24 -0.8149E-25
     -3.199 -0.1264E-20 -0.1329E-21
     -3.094 -0.1180E-17 -0.1241E-18
     -2.989 -0.6126E-15 -0.6449E-16
     -2.884 -0.1849E-12 -0.1949E-13
     -2.779 -0.3180E-10 -0.3360E-11
     -2.673 -0.3093E-08 -0.3284E-09
     -2.568 -0.1691E-06 -0.1809E-07
     -2.463 -0.5132E-05 -0.5572E-06
     -2.358 -0.8457E-04 -0.9442E-05
     -2.253 -0.7205E-03 -0.8514E-04
     -2.148 -0.2739E-02 -0.3729E-03
     -2.043 -0.1163E-02 -0.4952E-03
     -1.938  0.2083E-01  0.1693E-02
     -1.833  0.5599E-01  0.7576E-02
     -1.728  0.5030E-01  0.1286E-01
     -1.623  0.3664E-02  0.1325E-01
     -1.518  0.3318E-01  0.1673E-01
     -1.413  0.2282E+00  0.4070E-01
     -1.308  0.3801E+00  0.8064E-01
     -1.203  0.2322E+00  0.1050E+00
     -1.097  0.4457E-01  0.1097E+00
     -0.992  0.2494E+00  0.1359E+00
     -0.887  0.6878E+00  0.2082E+00
     -0.782  0.6796E+00  0.2796E+00
     -0.677  0.2440E+00  0.3052E+00
     -0.572  0.1020E+00  0.3159E+00
     -0.467  0.3726E+00  0.3551E+00
     -0.362  0.4875E+00  0.4063E+00
     -0.257  0.2313E+00  0.4306E+00
     -0.152  0.6362E-01  0.4373E+00
     -0.047  0.2211E+00  0.4605E+00
      0.058  0.3415E+00  0.4964E+00
      0.163  0.1652E+00  0.5138E+00
      0.268  0.2169E+00  0.5366E+00
      0.373  0.9697E+00  0.6384E+00
      0.478  0.1491E+01  0.7951E+00
      0.584  0.9507E+00  0.8950E+00
      0.689  0.6322E+00  0.9614E+00
      0.794  0.1269E+01  0.1095E+01
      0.899  0.1411E+01  0.1243E+01
      1.004  0.5990E+00  0.1306E+01
      1.109 -0.4433E-02  0.1305E+01
      1.214 -0.9797E-01  0.1295E+01
      1.319 -0.7242E-01  0.1288E+01
      1.424  0.6459E-01  0.1294E+01
      1.529  0.5086E+00  0.1348E+01
      1.634  0.1242E+01  0.1478E+01
      1.739  0.1956E+01  0.1684E+01
      1.844  0.1808E+01  0.1874E+01
      1.949  0.1008E+01  0.1980E+01
      2.054  0.1209E+01  0.2107E+01
      2.160  0.2070E+01  0.2324E+01
      2.265  0.2179E+01  0.2553E+01
      2.370  0.1783E+01  0.2740E+01
      2.475  0.1666E+01  0.2916E+01
      2.580  0.2521E+01  0.3180E+01
      2.685  0.4508E+01  0.3654E+01
      2.790  0.6480E+01  0.4335E+01
      2.895  0.6683E+01  0.5037E+01
      3.000  0.5400E+01  0.5604E+01
      3.105  0.4510E+01  0.6078E+01
      3.210  0.6385E+01  0.6749E+01
      3.315  0.1002E+02  0.7802E+01
      3.420  0.1049E+02  0.8904E+01
      3.525  0.9044E+01  0.9855E+01
      3.630  0.9306E+01  0.1083E+02
      3.736  0.8597E+01  0.1174E+02
      3.841  0.7028E+01  0.1247E+02
      3.946  0.8488E+01  0.1337E+02
      4.051  0.1168E+02  0.1459E+02
      4.156  0.1410E+02  0.1607E+02
      4.261  0.1633E+02  0.1779E+02
      4.366  0.1723E+02  0.1960E+02
      4.471  0.1632E+02  0.2132E+02
      4.576  0.1444E+02  0.2283E+02
      4.681  0.1213E+02  0.2411E+02
      4.786  0.1138E+02  0.2530E+02
      4.891  0.1306E+02  0.2667E+02
      4.996  0.1456E+02  0.2820E+02
      5.101  0.1405E+02  0.2968E+02
      5.206  0.1498E+02  0.3125E+02
      5.312  0.1625E+02  0.3296E+02
      5.417  0.1379E+02  0.3441E+02
      5.522  0.1345E+02  0.3582E+02
      5.627  0.1832E+02  0.3775E+02
      5.732  0.1973E+02  0.3982E+02
      5.837  0.1345E+02  0.4123E+02
      5.942  0.6599E+01  0.4193E+02
      6.047  0.3649E+01  0.4231E+02
      6.152  0.2613E+01  0.4259E+02
      6.257  0.1820E+01  0.4278E+02
      6.362  0.8683E+00  0.4287E+02
      6.467  0.9741E-01  0.4288E+02
      6.572 -0.1178E+00  0.4287E+02
      6.677 -0.2358E-01  0.4286E+02
      6.782  0.1062E+00  0.4287E+02
      6.887  0.1587E+00  0.4289E+02
      6.993  0.9530E+00  0.4299E+02
      7.098  0.3476E+01  0.4336E+02
      7.203  0.5441E+01  0.4393E+02
      7.308  0.4154E+01  0.4436E+02
      7.413  0.1453E+01  0.4452E+02
      7.518 -0.3856E-01  0.4451E+02
      7.623 -0.2027E+00  0.4449E+02
      7.728  0.4317E+00  0.4454E+02
      7.833  0.1363E+01  0.4468E+02
      7.938  0.1426E+01  0.4483E+02
      8.043  0.5546E+00  0.4489E+02
      8.148 -0.7481E-01  0.4488E+02
      8.253 -0.9907E-01  0.4487E+02
      8.358  0.4699E+00  0.4492E+02
      8.463  0.1316E+01  0.4506E+02
      8.569  0.1314E+01  0.4520E+02
      8.674  0.8174E+00  0.4528E+02
      8.779  0.1437E+01  0.4543E+02
      8.884  0.2332E+01  0.4568E+02
      8.989  0.1720E+01  0.4586E+02
      9.094  0.4420E+00  0.4591E+02
      9.199 -0.1388E+00  0.4589E+02
      9.304 -0.1367E+00  0.4588E+02
      9.409  0.3110E+00  0.4591E+02
      9.514  0.1114E+01  0.4603E+02
      9.619  0.1435E+01  0.4618E+02
      9.724  0.1715E+01  0.4636E+02
      9.829  0.2937E+01  0.4667E+02
      9.934  0.3301E+01  0.4701E+02
     10.039  0.1856E+01  0.4721E+02
     10.145  0.4157E+00  0.4725E+02
     10.250 -0.7826E-01  0.4724E+02
     10.355 -0.8090E-01  0.4723E+02
     10.460 -0.3964E-01  0.4723E+02
     10.565 -0.4283E-01  0.4723E+02
     10.670  0.6368E-01  0.4723E+02
     10.775  0.4576E+00  0.4728E+02
     10.880  0.7791E+00  0.4736E+02
     10.985  0.5329E+00  0.4742E+02
     11.090  0.7578E-01  0.4743E+02
     11.195 -0.1181E+00  0.4741E+02
     11.300  0.1026E+00  0.4742E+02
     11.405  0.8707E+00  0.4752E+02
     11.510  0.1484E+01  0.4767E+02
     11.615  0.1357E+01  0.4781E+02
     11.721  0.1466E+01  0.4797E+02
     11.826  0.2009E+01  0.4818E+02
     11.931  0.2078E+01  0.4840E+02
     12.036  0.1456E+01  0.4855E+02
     12.141  0.8017E+00  0.4864E+02
     12.246  0.5790E+00  0.4870E+02
     12.351  0.9573E+00  0.4880E+02
     12.456  0.2322E+01  0.4904E+02
     12.561  0.2985E+01  0.4935E+02
     12.666  0.1676E+01  0.4953E+02
     12.771  0.7667E+00  0.4961E+02
     12.876  0.1260E+01  0.4974E+02
     12.981  0.1278E+01  0.4988E+02
     13.086  0.5522E+00  0.4994E+02
     13.191  0.3269E+00  0.4997E+02
     13.296  0.4543E+00  0.5002E+02
     13.402  0.2799E+00  0.5005E+02
     13.507 -0.1729E-01  0.5005E+02
     13.612 -0.1831E+00  0.5003E+02
     13.717  0.1217E+00  0.5004E+02
     13.822  0.1569E+01  0.5020E+02
     13.927  0.3059E+01  0.5053E+02
     14.032  0.2383E+01  0.5078E+02
     14.137  0.5927E+00  0.5084E+02
     14.242 -0.1601E+00  0.5082E+02
     14.347  0.1123E+00  0.5083E+02
     14.452  0.9723E+00  0.5093E+02
     14.557  0.1895E+01  0.5113E+02
     14.662  0.1837E+01  0.5133E+02
     14.767  0.9310E+00  0.5142E+02
     14.872  0.6339E+00  0.5149E+02
     14.978  0.1244E+01  0.5162E+02
     15.083  0.1570E+01  0.5179E+02
     15.188  0.1623E+01  0.5196E+02
     15.293  0.1893E+01  0.5216E+02
     15.398  0.2001E+01  0.5237E+02
     15.503  0.2564E+01  0.5264E+02
     15.608  0.3081E+01  0.5296E+02
     15.713  0.1887E+01  0.5316E+02
     15.818  0.2540E+00  0.5318E+02
     15.923 -0.1619E+00  0.5317E+02
     16.028  0.5085E+00  0.5322E+02
     16.133  0.1409E+01  0.5337E+02
     16.238  0.1305E+01  0.5351E+02
     16.343  0.4842E+00  0.5356E+02
     16.448  0.3822E+00  0.5360E+02
     16.554  0.9837E+00  0.5370E+02
     16.659  0.1360E+01  0.5384E+02
     16.764  0.1519E+01  0.5400E+02
     16.869  0.1795E+01  0.5419E+02
     16.974  0.2036E+01  0.5441E+02
     17.079  0.2299E+01  0.5465E+02
     17.184  0.2312E+01  0.5489E+02
     17.289  0.1632E+01  0.5506E+02
     17.394  0.7310E+00  0.5514E+02
     17.499  0.2449E+00  0.5516E+02
     17.604  0.3498E+00  0.5520E+02
     17.709  0.1072E+01  0.5531E+02
     17.814  0.1411E+01  0.5546E+02
     17.919  0.8793E+00  0.5555E+02
     18.024  0.1085E+01  0.5567E+02
     18.130  0.2331E+01  0.5591E+02
     18.235  0.2839E+01  0.5621E+02
     18.340  0.2068E+01  0.5643E+02
     18.445  0.8201E+00  0.5651E+02
     18.550  0.3327E+00  0.5655E+02
     18.655  0.1280E+01  0.5668E+02
     18.760  0.2519E+01  0.5695E+02
     18.865  0.2461E+01  0.5721E+02
     18.970  0.1405E+01  0.5735E+02
     19.075  0.1663E+01  0.5753E+02
     19.180  0.3692E+01  0.5792E+02
     19.285  0.4148E+01  0.5835E+02
     19.390  0.1972E+01  0.5856E+02
     19.495  0.1354E+00  0.5857E+02
     19.600 -0.2055E+00  0.5855E+02
     19.705 -0.7569E-01  0.5855E+02
     19.811 -0.1841E-01  0.5854E+02
     19.916 -0.4487E-01  0.5854E+02
     20.021 -0.1097E+00  0.5853E+02
     20.126  0.8485E-01  0.5854E+02
     20.231  0.1055E+01  0.5865E+02
     20.336  0.2393E+01  0.5890E+02
     20.441  0.2680E+01  0.5918E+02
     20.546  0.1565E+01  0.5934E+02
     20.651  0.3346E+00  0.5938E+02
     20.756 -0.9870E-01  0.5937E+02
     20.861 -0.6970E-01  0.5936E+02
     20.966 -0.1506E-01  0.5936E+02
     21.071 -0.1577E-02  0.5936E+02
     21.176 -0.8766E-04  0.5936E+02
     21.281 -0.2675E-05  0.5936E+02
     21.387 -0.4560E-07  0.5936E+02
     21.492 -0.3564E-08  0.5936E+02
     21.597 -0.2568E-06  0.5936E+02
     21.702 -0.1182E-04  0.5936E+02
     21.807 -0.3005E-03  0.5936E+02
     21.912 -0.4105E-02  0.5936E+02
     22.017 -0.2824E-01  0.5936E+02
     22.122 -0.7784E-01  0.5935E+02
     22.227  0.6002E-01  0.5935E+02
     22.332  0.7695E+00  0.5944E+02
     22.437  0.1525E+01  0.5960E+02
     22.542  0.1212E+01  0.5972E+02
     22.647  0.3271E+00  0.5976E+02
     22.752 -0.6289E-01  0.5975E+02
     22.857 -0.5325E-01  0.5975E+02
     22.963 -0.1139E-01  0.5974E+02
     23.068 -0.1146E-02  0.5974E+02
     23.173 -0.6048E-04  0.5974E+02
     23.278 -0.1745E-05  0.5974E+02
     23.383 -0.2803E-07  0.5974E+02
     23.488 -0.2536E-09  0.5974E+02
     23.593 -0.1299E-11  0.5974E+02
     23.698 -0.4058E-14  0.5974E+02
     23.803  0.0000E+00  0.5974E+02
     23.908  0.0000E+00  0.5974E+02
     24.013 -0.1643E-29  0.5974E+02
     24.118 -0.7839E-26  0.5974E+02
     24.223 -0.2144E-22  0.5974E+02
     24.328 -0.3360E-19  0.5974E+02
     24.433 -0.3013E-16  0.5974E+02
     24.538 -0.1504E-13  0.5974E+02
     24.644 -0.4355E-11  0.5974E+02
     24.749 -0.7192E-09  0.5974E+02
     24.854 -0.6716E-07  0.5974E+02
     24.959 -0.3522E-05  0.5974E+02
     25.064 -0.1024E-03  0.5974E+02
     25.169 -0.1613E-02  0.5974E+02
     25.274 -0.1307E-01  0.5974E+02
     25.379 -0.4624E-01  0.5974E+02
     25.484 -0.7507E-02  0.5974E+02
     25.589  0.3763E+00  0.5978E+02
     25.694  0.9492E+00  0.5988E+02
     25.799  0.9197E+00  0.5997E+02
     25.904  0.3352E+00  0.6001E+02
     26.009 -0.1853E-01  0.6001E+02
     26.114 -0.4383E-01  0.6000E+02
     26.220 -0.1153E-01  0.6000E+02
     26.325 -0.1353E-02  0.6000E+02
     26.430 -0.8210E-04  0.6000E+02
     26.535 -0.2705E-05  0.6000E+02
     26.640 -0.4949E-07  0.6000E+02
     26.745 -0.5087E-09  0.6000E+02
     26.850 -0.2958E-11  0.6000E+02
     26.955 -0.9739E-14  0.6000E+02
     27.060  0.0000E+00  0.6000E+02
     27.165  0.0000E+00  0.6000E+02
     27.270  0.0000E+00  0.6000E+02
     27.375  0.0000E+00  0.6000E+02
     27.480  0.0000E+00  0.6000E+02
     27.585  0.0000E+00  0.6000E+02
     27.690  0.0000E+00  0.6000E+02
