<?xml version="1.0" encoding="ISO-8859-1"?>
<modeling>
 <generator>
  <i name="program" type="string">vasp </i>
  <i name="version" type="string">6.2.0  </i>
  <i name="subversion" type="string">18Jan21 (build Mar 17 2021 09:06:54) complex                          serial </i>
  <i name="platform" type="string">LinuxIFC </i>
  <i name="date" type="string">2021 08 03 </i>
  <i name="time" type="string">10:15:05 </i>
 </generator>
 <incar>
  <i type="string" name="PREC">normal</i>
  <i type="int" name="ICHARG">     1</i>
  <i type="int" name="IBRION">    -1</i>
  <i name="EDIFF">      0.00000100</i>
  <i type="int" name="NSW">     0</i>
  <i name="ENCUT">    250.00000000</i>
  <i type="int" name="NBANDS">    30</i>
  <i type="int" name="ISMEAR">     1</i>
  <i name="SIGMA">      0.20000000</i>
  <i type="logical" name="LCHARG"> T  </i>
  <i type="int" name="KPAR">     1</i>
  <i type="int" name="NCORE">     1</i>
  <i type="string" name="GGA">PE</i>
 </incar>
 <primitive_cell>
  <structure name="primitive_cell" >
   <crystal>
    <varray name="basis" >
     <v>       1.81750000      -1.81750000       0.00000000 </v>
     <v>       1.81750000       0.00000000       1.81750000 </v>
     <v>       0.00000000      -1.81750000       1.81750000 </v>
    </varray>
    <i name="volume">     12.00751822 </i>
    <varray name="rec_basis" >
     <v>       0.27510316      -0.27510316      -0.27510316 </v>
     <v>       0.27510316       0.27510316       0.27510316 </v>
     <v>      -0.27510316      -0.27510316       0.27510316 </v>
    </varray>
   </crystal>
   <varray name="positions" >
    <v>       0.00000000       0.00000000       0.00000000 </v>
   </varray>
  </structure>
  <varray name="primitive_index" >
   <v type="int" >        1 </v>
  </varray>
 </primitive_cell>
 <kpoints>
  <generation param="Monkhorst-Pack">
   <v type="int" name="divisions">       5        5        5 </v>
   <v name="usershift">      0.00000000       0.00000000       0.00000000 </v>
   <v name="genvec1">      0.20000000       0.00000000       0.00000000 </v>
   <v name="genvec2">      0.00000000       0.20000000       0.00000000 </v>
   <v name="genvec3">      0.00000000       0.00000000       0.20000000 </v>
   <v name="shift">      0.00000000       0.00000000       0.00000000 </v>
  </generation>
  <varray name="kpointlist" >
   <v>       0.00000000       0.00000000       0.00000000 </v>
   <v>       0.20000000       0.00000000       0.00000000 </v>
   <v>       0.40000000       0.00000000       0.00000000 </v>
   <v>       0.20000000       0.20000000       0.00000000 </v>
   <v>       0.40000000       0.20000000       0.00000000 </v>
   <v>       0.40000000       0.40000000       0.00000000 </v>
   <v>       0.20000000       0.20000000       0.20000000 </v>
   <v>       0.40000000       0.20000000       0.20000000 </v>
   <v>       0.40000000       0.40000000       0.20000000 </v>
   <v>       0.40000000       0.40000000       0.40000000 </v>
  </varray>
  <varray name="weights" >
   <v>       0.00800000 </v>
   <v>       0.04800000 </v>
   <v>       0.04800000 </v>
   <v>       0.09600000 </v>
   <v>       0.19200000 </v>
   <v>       0.09600000 </v>
   <v>       0.06400000 </v>
   <v>       0.19200000 </v>
   <v>       0.19200000 </v>
   <v>       0.06400000 </v>
  </varray>
 </kpoints>
 <parameters>
  <separator name="general" >
   <i type="string" name="SYSTEM">unknown system</i>
   <i type="logical" name="LCOMPAT"> F  </i>
  </separator>
  <separator name="electronic" >
   <i type="string" name="PREC">normal</i>
   <i name="ENMAX">    250.00000000</i>
   <i name="ENAUG">    586.98000000</i>
   <i name="EDIFF">      0.00000100</i>
   <i type="int" name="IALGO">    38</i>
   <i type="int" name="IWAVPR">     0</i>
   <i type="int" name="NBANDS">    30</i>
   <i type="int" name="NBANDSLOW">    -1</i>
   <i type="int" name="NBANDSHIGH">    -1</i>
   <i name="NELECT">     44.00000000</i>
   <i type="int" name="TURBO">     0</i>
   <i type="int" name="IRESTART">     0</i>
   <i type="int" name="NREBOOT">     0</i>
   <i type="int" name="NMIN">     0</i>
   <i name="EREF">      0.00000000</i>
   <separator name="electronic smearing" >
    <i type="int" name="ISMEAR">     1</i>
    <i name="SIGMA">      0.20000000</i>
    <i name="KSPACING">      0.50000000</i>
    <i type="logical" name="KGAMMA"> T  </i>
    <i type="logical" name="KBLOWUP"> T  </i>
   </separator>
   <separator name="electronic projectors" >
    <i type="logical" name="LREAL"> F  </i>
    <v name="ROPT">      0.00000000</v>
    <i type="int" name="LMAXPAW">  -100</i>
    <i type="int" name="LMAXMIX">     2</i>
    <i type="logical" name="NLSPLINE"> F  </i>
   </separator>
   <separator name="electronic startup" >
    <i type="int" name="ISTART">     1</i>
    <i type="int" name="ICHARG">     1</i>
    <i type="int" name="INIWAV">     1</i>
   </separator>
   <separator name="electronic spin" >
    <i type="int" name="ISPIN">     1</i>
    <i type="logical" name="LNONCOLLINEAR"> F  </i>
    <v name="MAGMOM">      1.00000000      1.00000000      1.00000000      1.00000000</v>
    <i name="NUPDOWN">     -1.00000000</i>
    <i type="logical" name="LSORBIT"> F  </i>
    <v name="SAXIS">      0.00000000      0.00000000      1.00000000</v>
    <i type="logical" name="LSPIRAL"> F  </i>
    <v name="QSPIRAL">      0.00000000      0.00000000      0.00000000</v>
    <i type="logical" name="LZEROZ"> F  </i>
   </separator>
   <separator name="electronic exchange-correlation" >
    <i type="logical" name="LASPH"> F  </i>
    <i type="logical" name="LMETAGGA"> F  </i>
   </separator>
   <separator name="electronic convergence" >
    <i type="int" name="NELM">    60</i>
    <i type="int" name="NELMDL">     0</i>
    <i type="int" name="NELMIN">     2</i>
    <i name="ENINI">    250.00000000</i>
    <separator name="electronic convergence detail" >
     <i type="logical" name="LDIAG"> T  </i>
     <i type="logical" name="LSUBROT"> F  </i>
     <i name="WEIMIN">      0.00000000</i>
     <i name="EBREAK">      0.00000001</i>
     <i name="DEPER">      0.30000000</i>
     <i type="int" name="NRMM">     4</i>
     <i name="TIME">      0.40000000</i>
    </separator>
   </separator>
   <separator name="electronic mixer" >
    <i name="AMIX">      0.40000000</i>
    <i name="BMIX">      1.00000000</i>
    <i name="AMIN">      0.10000000</i>
    <i name="AMIX_MAG">      1.60000000</i>
    <i name="BMIX_MAG">      1.00000000</i>
    <separator name="electronic mixer details" >
     <i type="int" name="IMIX">     4</i>
     <i type="logical" name="MIXFIRST"> F  </i>
     <i type="int" name="MAXMIX">   -45</i>
     <i name="WC">    100.00000000</i>
     <i type="int" name="INIMIX">     1</i>
     <i type="int" name="MIXPRE">     1</i>
     <i type="int" name="MREMOVE">     5</i>
    </separator>
   </separator>
   <separator name="electronic dipolcorrection" >
    <i type="logical" name="LDIPOL"> F  </i>
    <i type="logical" name="LMONO"> F  </i>
    <i type="int" name="IDIPOL">     0</i>
    <i name="EPSILON">      1.00000000</i>
    <v name="DIPOL">   -100.00000000   -100.00000000   -100.00000000</v>
    <i name="EFIELD">      0.00000000</i>
   </separator>
  </separator>
  <separator name="grids" >
   <i type="int" name="NGX">    14</i>
   <i type="int" name="NGY">    14</i>
   <i type="int" name="NGZ">    14</i>
   <i type="int" name="NGXF">    28</i>
   <i type="int" name="NGYF">    28</i>
   <i type="int" name="NGZF">    28</i>
   <i type="logical" name="ADDGRID"> F  </i>
  </separator>
  <separator name="ionic" >
   <i type="int" name="NSW">     0</i>
   <i type="int" name="IBRION">    -1</i>
   <i type="int" name="MDALGO">     0</i>
   <i type="int" name="ISIF">     2</i>
   <i name="PSTRESS">      0.00000000</i>
   <i name="EDIFFG">      0.00001000</i>
   <i type="int" name="NFREE">     0</i>
   <i name="POTIM">      0.50000000</i>
   <i name="SMASS">     -3.00000000</i>
   <i name="SCALEE">      1.00000000</i>
  </separator>
  <separator name="ionic md" >
   <i name="TEBEG">      0.00010000</i>
   <i name="TEEND">      0.00010000</i>
   <i type="int" name="NBLOCK">     1</i>
   <i type="int" name="KBLOCK">     1</i>
   <i type="int" name="NPACO">   256</i>
   <i name="APACO">     16.00000000</i>
  </separator>
  <separator name="symmetry" >
   <i type="int" name="ISYM">     2</i>
   <i name="SYMPREC">      0.00001000</i>
  </separator>
  <separator name="dos" >
   <i type="int" name="LORBIT">     0</i>
   <v name="RWIGS">     -1.00000000</v>
   <i type="int" name="NEDOS">   301</i>
   <i name="EMIN">     10.00000000</i>
   <i name="EMAX">    -10.00000000</i>
   <i name="EFERMI">      0.00000000</i>
  </separator>
  <separator name="writing" >
   <i type="int" name="NWRITE">     2</i>
   <i type="logical" name="LWAVE"> T  </i>
   <i type="logical" name="LDOWNSAMPLE"> F  </i>
   <i type="logical" name="LCHARG"> T  </i>
   <i type="logical" name="LPARD"> F  </i>
   <i type="logical" name="LVTOT"> F  </i>
   <i type="logical" name="LVHAR"> F  </i>
   <i type="logical" name="LELF"> F  </i>
   <i type="logical" name="LOPTICS"> F  </i>
   <v name="STM">      0.00000000      0.00000000      0.00000000      0.00000000      0.00000000      0.00000000      0.00000000</v>
  </separator>
  <separator name="performance" >
   <i type="int" name="NPAR">     1</i>
   <i type="int" name="NSIM">     4</i>
   <i type="int" name="NBLK">    -1</i>
   <i type="logical" name="LPLANE"> T  </i>
   <i type="logical" name="LSCALAPACK"> F  </i>
   <i type="logical" name="LSCAAWARE"> F  </i>
   <i type="logical" name="LSCALU"> F  </i>
   <i type="logical" name="LASYNC"> F  </i>
   <i type="logical" name="LORBITALREAL"> F  </i>
  </separator>
  <separator name="miscellaneous" >
   <i type="int" name="IDIOT">     3</i>
   <i type="int" name="PHON_NSTRUCT">    -1</i>
   <i type="logical" name="LMUSIC"> F  </i>
   <v name="POMASS">     63.54600000</v>
   <v name="DARWINR">      0.00000000</v>
   <v name="DARWINV">      1.00000000</v>
   <i type="logical" name="LCORR"> T  </i>
  </separator>
  <i type="logical" name="GGA_COMPAT"> T  </i>
  <i type="logical" name="LBERRY"> F  </i>
  <i type="int" name="ICORELEVEL">     0</i>
  <i type="logical" name="LDAU"> F  </i>
  <i type="int" name="I_CONSTRAINED_M">     0</i>
  <separator name="electronic exchange-correlation" >
   <i type="string" name="GGA">PE</i>
   <i type="int" name="VOSKOWN">     0</i>
   <i type="logical" name="LHFCALC"> F  </i>
   <i type="string" name="PRECFOCK"></i>
   <i type="logical" name="LSYMGRAD"> F  </i>
   <i type="logical" name="LHFONE"> F  </i>
   <i type="logical" name="LRHFCALC"> F  </i>
   <i type="logical" name="LTHOMAS"> F  </i>
   <i type="logical" name="LMODELHF"> F  </i>
   <i type="logical" name="LFOCKACE"> F  </i>
   <i name="ENCUT4O">     -1.00000000</i>
   <i type="int" name="EXXOEP">     0</i>
   <i type="int" name="FOURORBIT">     0</i>
   <i name="AEXX">      0.00000000</i>
   <i name="HFALPHA">      0.00000000</i>
   <i name="MCALPHA">      0.00000000</i>
   <i name="ALDAX">      1.00000000</i>
   <i name="AGGAX">      1.00000000</i>
   <i name="ALDAC">      1.00000000</i>
   <i name="AGGAC">      1.00000000</i>
   <i type="int" name="NKREDX">     1</i>
   <i type="int" name="NKREDY">     1</i>
   <i type="int" name="NKREDZ">     1</i>
   <i type="logical" name="SHIFTRED"> F  </i>
   <i type="logical" name="ODDONLY"> F  </i>
   <i type="logical" name="EVENONLY"> F  </i>
   <i type="int" name="LMAXFOCK">     0</i>
   <i type="int" name="NMAXFOCKAE">     0</i>
   <i type="logical" name="LFOCKAEDFT"> F  </i>
   <i name="HFSCREEN">      0.00000000</i>
   <i name="HFSCREENC">      0.00000000</i>
   <i type="int" name="NBANDSGWLOW">     0</i>
  </separator>
  <separator name="vdW DFT" >
   <i type="logical" name="LUSE_VDW"> F  </i>
   <i name="Zab_VDW">     -0.84910000</i>
   <i name="PARAM1">      0.12340000</i>
   <i name="PARAM2">      1.00000000</i>
   <i name="PARAM3">      0.00000000</i>
  </separator>
  <separator name="model GW" >
   <i type="int" name="MODEL_GW">     0</i>
   <i name="MODEL_EPS0">      7.20451093</i>
   <i name="MODEL_ALPHA">      1.00000000</i>
  </separator>
  <separator name="linear response parameters" >
   <i type="logical" name="LEPSILON"> F  </i>
   <i type="logical" name="LRPA"> F  </i>
   <i type="logical" name="LNABLA"> F  </i>
   <i type="logical" name="LVEL"> F  </i>
   <i type="int" name="KINTER">     0</i>
   <i name="CSHIFT">      0.10000000</i>
   <i name="OMEGAMAX">     -1.00000000</i>
   <i name="DEG_THRESHOLD">      0.00200000</i>
   <i name="RTIME">     -0.10000000</i>
   <i name="WPLASMAI">      0.00000000</i>
   <v name="DFIELD">      0.00000000      0.00000000      0.00000000</v>
   <v name="WPLASMA">      0.00000000      0.00000000      0.00000000      0.00000000      0.00000000      0.00000000      0.00000000      0.00000000      0.00000000</v>
  </separator>
  <separator name="orbital magnetization" >
   <i type="logical" name="NUCIND"> F  </i>
   <v name="MAGPOS">      0.00000000      0.00000000      0.00000000</v>
   <i type="logical" name="LNICSALL"> T  </i>
   <i type="logical" name="ORBITALMAG"> F  </i>
   <i type="logical" name="LMAGBLOCH"> F  </i>
   <i type="logical" name="LCHIMAG"> F  </i>
   <i type="logical" name="LGAUGE"> T  </i>
   <i type="int" name="MAGATOM">     0</i>
   <v name="MAGDIPOL">      0.00000000      0.00000000      0.00000000</v>
   <v name="AVECCONST">      0.00000000      0.00000000      0.00000000</v>
  </separator>
  <separator name="response functions" >
   <i type="logical" name="LFINITE_TEMPERATURE"> F  </i>
   <i type="logical" name="LADDER"> F  </i>
   <i type="logical" name="LRPAFORCE"> F  </i>
   <i type="logical" name="LFXC"> F  </i>
   <i type="logical" name="LHARTREE"> T  </i>
   <i type="int" name="IBSE">     0</i>
   <v type="int" name="KPOINT">    -1     0     0     0</v>
   <i type="logical" name="LTCTC"> F  </i>
   <i type="logical" name="LTCTE"> F  </i>
   <i type="logical" name="LTETE"> F  </i>
   <i type="logical" name="LTRIPLET"> F  </i>
   <i type="logical" name="LFXCEPS"> F  </i>
   <i type="logical" name="LFXHEG"> F  </i>
   <i type="int" name="NATURALO">     2</i>
   <i type="logical" name="LHOLEGF"> F  </i>
   <i type="logical" name="L2ORDER"> F  </i>
   <i type="logical" name="LDMP1"> F  </i>
   <i type="logical" name="LMP2LT"> F  </i>
   <i type="logical" name="LSMP2LT"> F  </i>
   <i type="logical" name="LGWLF"> F  </i>
   <i name="ENCUTGW">     -2.00000000</i>
   <i name="ENCUTGWSOFT">     -2.00000000</i>
   <i name="ENCUTLF">     -1.00000000</i>
   <i type="logical" name="LESF_SPLINES"> F  </i>
   <i type="int" name="LMAXMP2">    -1</i>
   <i name="SCISSOR">      0.00000000</i>
   <i type="int" name="NOMEGA">     0</i>
   <i type="int" name="NOMEGAR">     0</i>
   <i type="int" name="NBANDSGW">    -1</i>
   <i type="int" name="NBANDSO">    -1</i>
   <i type="int" name="NBANDSV">    -1</i>
   <i type="int" name="NELM">     1</i>
   <i type="int" name="NELMHF">     1</i>
   <i type="int" name="DIM">     3</i>
   <i type="int" name="IESPILON">     4</i>
   <i type="int" name="ANTIRES">     0</i>
   <i name="OMEGAMAX">    -30.00000000</i>
   <i name="OMEGAMIN">    -30.00000000</i>
   <i name="OMEGATL">   -200.00000000</i>
   <i type="int" name="OMEGAGRID">     0</i>
   <i name="CSHIFT">     -0.10000000</i>
   <i type="logical" name="LSELFENERGY"> F  </i>
   <i type="logical" name="LSPECTRAL"> F  </i>
   <i type="logical" name="LSPECTRALGW"> F  </i>
   <i type="logical" name="LSINGLES"> F  </i>
   <i type="logical" name="LFERMIGW"> F  </i>
   <i type="logical" name="ODDONLYGW"> F  </i>
   <i type="logical" name="EVENONLYGW"> F  </i>
   <i type="int" name="NKREDLFX">     1</i>
   <i type="int" name="NKREDLFY">     1</i>
   <i type="int" name="NKREDLFZ">     1</i>
   <i type="int" name="MAXMEM">  2800</i>
   <i type="int" name="TELESCOPE">     0</i>
   <i type="int" name="NTAUPAR">    -1</i>
   <i type="int" name="NOMEGAPAR">    -1</i>
   <i name="DAMP_NEWTON">      0.80000001</i>
   <i name="LAMBDA">      1.00000000</i>
  </separator>
  <separator name="External order field" >
   <i name="OFIELD_KAPPA">      0.00000000</i>
   <v name="OFIELD_K">      0.00000000      0.00000000      0.00000000</v>
   <i name="OFIELD_Q6_NEAR">      0.00000000</i>
   <i name="OFIELD_Q6_FAR">      0.00000000</i>
   <i name="OFIELD_A">      0.00000000</i>
  </separator>
 </parameters>
 <atominfo>
  <atoms>       4 </atoms>
  <types>       1 </types>
  <array name="atoms" >
   <dimension dim="1">ion</dimension>
   <field type="string">element</field>
   <field type="int">atomtype</field>
   <set>
    <rc><c>Cu</c><c>   1</c></rc>
    <rc><c>Cu</c><c>   1</c></rc>
    <rc><c>Cu</c><c>   1</c></rc>
    <rc><c>Cu</c><c>   1</c></rc>
   </set>
  </array>
  <array name="atomtypes" >
   <dimension dim="1">type</dimension>
   <field type="int">atomspertype</field>
   <field type="string">element</field>
   <field>mass</field>
   <field>valence</field>
   <field type="string">pseudopotential</field>
   <set>
    <rc><c>   4</c><c>Cu</c><c>     63.54600000</c><c>     11.00000000</c><c>  PAW_PBE Cu 22Jun2005                  </c></rc>
   </set>
  </array>
 </atominfo>
 <structure name="initialpos" >
  <crystal>
   <varray name="basis" >
    <v>       3.63500000       0.00000000       0.00000000 </v>
    <v>       0.00000000       3.63500000       0.00000000 </v>
    <v>       0.00000000       0.00000000       3.63500000 </v>
   </varray>
   <i name="volume">     48.03007287 </i>
   <varray name="rec_basis" >
    <v>       0.27510316       0.00000000       0.00000000 </v>
    <v>       0.00000000       0.27510316       0.00000000 </v>
    <v>       0.00000000       0.00000000       0.27510316 </v>
   </varray>
  </crystal>
  <varray name="positions" >
   <v>       0.00000000       0.00000000       0.00000000 </v>
   <v>       0.50000000       0.50000000       0.00000000 </v>
   <v>       0.50000000       0.00000000       0.50000000 </v>
   <v>       0.00000000       0.50000000       0.50000000 </v>
  </varray>
 </structure>
 <calculation>
  <scstep>
   <time name="dav">    0.09    0.09</time>
   <time name="total">    0.10    0.11</time>
   <energy>
    <i name="alphaZ">    243.62337785 </i>
    <i name="ewald">  -4395.34838493 </i>
    <i name="hartreedc">  -1369.58778163 </i>
    <i name="XCdc">    178.52941271 </i>
    <i name="pawpsdc">   5270.84119127 </i>
    <i name="pawaedc">  -5698.00107349 </i>
    <i name="eentropy">     -0.02683007 </i>
    <i name="bandstr">    192.70141098 </i>
    <i name="atom">   5562.84639936 </i>
    <i name="e_fr_energy">    -14.42227797 </i>
    <i name="e_wo_entrp">    -14.39544789 </i>
    <i name="e_0_energy">    -14.41333461 </i>
   </energy>
  </scstep>
  <scstep>
   <time name="dav">    0.08    0.08</time>
   <time name="total">    0.10    0.10</time>
   <energy>
    <i name="e_fr_energy">    -14.42058497 </i>
    <i name="e_wo_entrp">    -14.39391323 </i>
    <i name="e_0_energy">    -14.41169439 </i>
   </energy>
  </scstep>
  <scstep>
   <time name="dav">    0.06    0.06</time>
   <time name="total">    0.08    0.08</time>
   <energy>
    <i name="e_fr_energy">    -14.42058319 </i>
    <i name="e_wo_entrp">    -14.39387912 </i>
    <i name="e_0_energy">    -14.41168183 </i>
   </energy>
  </scstep>
  <scstep>
   <time name="dav">    0.05    0.05</time>
   <time name="total">    0.06    0.06</time>
   <energy>
    <i name="alphaZ">    243.62337785 </i>
    <i name="ewald">  -4395.34838493 </i>
    <i name="hartreedc">  -1369.58513086 </i>
    <i name="XCdc">    178.52928920 </i>
    <i name="pawpsdc">   5270.83880399 </i>
    <i name="pawaedc">  -5698.00086289 </i>
    <i name="eentropy">     -0.02671034 </i>
    <i name="bandstr">    192.70263556 </i>
    <i name="atom">   5562.84639936 </i>
    <i name="e_fr_energy">    -14.42058306 </i>
    <i name="e_wo_entrp">    -14.39387272 </i>
    <i name="e_0_energy">    -14.41167962 </i>
   </energy>
  </scstep>
  <structure>
   <crystal>
    <varray name="basis" >
     <v>       3.63500000       0.00000000       0.00000000 </v>
     <v>       0.00000000       3.63500000       0.00000000 </v>
     <v>       0.00000000       0.00000000       3.63500000 </v>
    </varray>
    <i name="volume">     48.03007287 </i>
    <varray name="rec_basis" >
     <v>       0.27510316       0.00000000       0.00000000 </v>
     <v>       0.00000000       0.27510316       0.00000000 </v>
     <v>       0.00000000       0.00000000       0.27510316 </v>
    </varray>
   </crystal>
   <varray name="positions" >
    <v>       0.00000000       0.00000000       0.00000000 </v>
    <v>       0.50000000       0.50000000       0.00000000 </v>
    <v>       0.50000000       0.00000000       0.50000000 </v>
    <v>       0.00000000       0.50000000       0.50000000 </v>
   </varray>
  </structure>
  <varray name="forces" >
   <v>      -0.00000000      -0.00000000       0.00000000 </v>
   <v>       0.00000000       0.00000000      -0.00000000 </v>
   <v>       0.00000000       0.00000000       0.00000000 </v>
   <v>      -0.00000000       0.00000000      -0.00000000 </v>
  </varray>
  <varray name="stress" >
   <v>    -374.71104612      -0.00000000      -0.00000000 </v>
   <v>       0.00000000    -374.71104612      -0.00000000 </v>
   <v>       0.00000000       0.00000000    -374.71104612 </v>
  </varray>
  <energy>
   <i name="e_fr_energy">    -14.42058306 </i>
   <i name="e_wo_entrp">    -14.39387272 </i>
   <i name="e_0_energy">    -14.41167962 </i>
  </energy>
  <time name="totalsc">    0.46    0.46</time>
  <eigenvalues>
   <array>
    <dimension dim="1">band</dimension>
    <dimension dim="2">kpoint</dimension>
    <dimension dim="3">spin</dimension>
    <field>eigene</field>
    <field>occ</field>
    <set>
     <set comment="spin 1">
      <set comment="kpoint 1">
       <r>   -1.8292    1.0000 </r>
       <r>    2.5804    1.0000 </r>
       <r>    2.5804    1.0000 </r>
       <r>    2.5804    1.0000 </r>
       <r>    3.0615    1.0000 </r>
       <r>    3.0615    1.0000 </r>
       <r>    3.0615    1.0000 </r>
       <r>    4.3798    1.0000 </r>
       <r>    4.3798    1.0000 </r>
       <r>    4.3798    1.0000 </r>
       <r>    5.1605    1.0000 </r>
       <r>    5.1605    1.0000 </r>
       <r>    5.6848    1.0000 </r>
       <r>    5.6848    1.0000 </r>
       <r>    5.6848    1.0000 </r>
       <r>    5.8615    1.0000 </r>
       <r>    5.8615    1.0000 </r>
       <r>    5.8615    1.0000 </r>
       <r>    5.8615    1.0000 </r>
       <r>    5.8615    1.0000 </r>
       <r>    5.8615    1.0000 </r>
       <r>    8.9110   -0.0000 </r>
       <r>    8.9110   -0.0000 </r>
       <r>    8.9110   -0.0000 </r>
       <r>   14.3572    0.0000 </r>
       <r>   14.3572    0.0000 </r>
       <r>   14.3572    0.0000 </r>
       <r>   20.3530    0.0000 </r>
       <r>   20.3530    0.0000 </r>
       <r>   20.3530    0.0000 </r>
      </set>
      <set comment="kpoint 2">
       <r>   -1.3525    1.0000 </r>
       <r>    2.5393    1.0000 </r>
       <r>    2.7927    1.0000 </r>
       <r>    2.7927    1.0000 </r>
       <r>    3.1443    1.0000 </r>
       <r>    3.1705    1.0000 </r>
       <r>    3.1705    1.0000 </r>
       <r>    4.2504    1.0000 </r>
       <r>    4.4947    1.0000 </r>
       <r>    4.4947    1.0000 </r>
       <r>    5.0478    1.0000 </r>
       <r>    5.2112    1.0000 </r>
       <r>    5.2208    1.0000 </r>
       <r>    5.2208    1.0000 </r>
       <r>    5.5450    1.0000 </r>
       <r>    5.5450    1.0000 </r>
       <r>    5.6359    1.0000 </r>
       <r>    5.6714    1.0000 </r>
       <r>    5.6714    1.0000 </r>
       <r>    5.8454    1.0000 </r>
       <r>    5.8454    1.0000 </r>
       <r>    6.8295    1.0098 </r>
       <r>    9.9759   -0.0000 </r>
       <r>    9.9759   -0.0000 </r>
       <r>   14.5444    0.0000 </r>
       <r>   14.5444    0.0000 </r>
       <r>   17.4137    0.0000 </r>
       <r>   18.0966    0.0000 </r>
       <r>   18.0966    0.0000 </r>
       <r>   18.7608    0.0000 </r>
      </set>
      <set comment="kpoint 3">
       <r>    0.0036    1.0000 </r>
       <r>    1.7689    1.0000 </r>
       <r>    3.2183    1.0000 </r>
       <r>    3.2183    1.0000 </r>
       <r>    3.4659    1.0000 </r>
       <r>    3.5880    1.0000 </r>
       <r>    3.5880    1.0000 </r>
       <r>    3.9092    1.0000 </r>
       <r>    4.2766    1.0000 </r>
       <r>    4.2766    1.0000 </r>
       <r>    4.7997    1.0000 </r>
       <r>    4.7997    1.0000 </r>
       <r>    4.8138    1.0000 </r>
       <r>    4.9131    1.0000 </r>
       <r>    5.2161    1.0000 </r>
       <r>    5.2161    1.0000 </r>
       <r>    5.2632    1.0000 </r>
       <r>    5.2632    1.0000 </r>
       <r>    5.3458    1.0000 </r>
       <r>    5.5110    1.0000 </r>
       <r>    5.8469    1.0000 </r>
       <r>    5.8469    1.0000 </r>
       <r>   12.1918   -0.0000 </r>
       <r>   12.1918   -0.0000 </r>
       <r>   14.9679    0.0000 </r>
       <r>   14.9679    0.0000 </r>
       <r>   15.1895    0.0000 </r>
       <r>   15.1895    0.0000 </r>
       <r>   16.6371    0.0000 </r>
       <r>   16.6371    0.0000 </r>
      </set>
      <set comment="kpoint 4">
       <r>   -0.8879    1.0000 </r>
       <r>    2.7906    1.0000 </r>
       <r>    2.7906    1.0000 </r>
       <r>    2.9756    1.0000 </r>
       <r>    3.2878    1.0000 </r>
       <r>    3.2914    1.0000 </r>
       <r>    3.2914    1.0000 </r>
       <r>    4.1795    1.0000 </r>
       <r>    4.5298    1.0000 </r>
       <r>    4.5366    1.0000 </r>
       <r>    4.9090    1.0000 </r>
       <r>    4.9090    1.0000 </r>
       <r>    4.9134    1.0000 </r>
       <r>    5.0253    1.0000 </r>
       <r>    5.2398    1.0000 </r>
       <r>    5.4202    1.0000 </r>
       <r>    5.5462    1.0000 </r>
       <r>    5.5462    1.0000 </r>
       <r>    5.6716    1.0000 </r>
       <r>    5.6716    1.0000 </r>
       <r>    5.7458    1.0000 </r>
       <r>    7.8377   -0.0001 </r>
       <r>    7.8377   -0.0001 </r>
       <r>   10.8366   -0.0000 </r>
       <r>   14.5074    0.0000 </r>
       <r>   14.9881    0.0000 </r>
       <r>   17.7475    0.0000 </r>
       <r>   17.7475    0.0000 </r>
       <r>   18.6828    0.0000 </r>
       <r>   18.6828    0.0000 </r>
      </set>
      <set comment="kpoint 5">
       <r>    0.4251    1.0000 </r>
       <r>    2.1016    1.0000 </r>
       <r>    3.3079    1.0000 </r>
       <r>    3.3768    1.0000 </r>
       <r>    3.5312    1.0000 </r>
       <r>    3.5724    1.0000 </r>
       <r>    3.6483    1.0000 </r>
       <r>    3.9137    1.0000 </r>
       <r>    4.0613    1.0000 </r>
       <r>    4.2423    1.0000 </r>
       <r>    4.4221    1.0000 </r>
       <r>    4.5340    1.0000 </r>
       <r>    4.8179    1.0000 </r>
       <r>    4.9883    1.0000 </r>
       <r>    5.1577    1.0000 </r>
       <r>    5.2251    1.0000 </r>
       <r>    5.2665    1.0000 </r>
       <r>    5.3125    1.0000 </r>
       <r>    5.4902    1.0000 </r>
       <r>    5.6661    1.0000 </r>
       <r>    5.6728    1.0000 </r>
       <r>    6.0232    1.0000 </r>
       <r>    9.5360   -0.0000 </r>
       <r>   11.7418   -0.0000 </r>
       <r>   12.8706    0.0000 </r>
       <r>   15.5484    0.0000 </r>
       <r>   15.5618    0.0000 </r>
       <r>   17.0280    0.0000 </r>
       <r>   18.8414    0.0000 </r>
       <r>   20.2849    0.0000 </r>
      </set>
      <set comment="kpoint 6">
       <r>    1.5638    1.0000 </r>
       <r>    2.8607    1.0000 </r>
       <r>    2.8607    1.0000 </r>
       <r>    3.3803    1.0000 </r>
       <r>    3.7792    1.0000 </r>
       <r>    3.7947    1.0000 </r>
       <r>    3.7947    1.0000 </r>
       <r>    3.9269    1.0000 </r>
       <r>    4.0497    1.0000 </r>
       <r>    4.0497    1.0000 </r>
       <r>    4.0629    1.0000 </r>
       <r>    4.3694    1.0000 </r>
       <r>    4.8784    1.0000 </r>
       <r>    4.9473    1.0000 </r>
       <r>    4.9918    1.0000 </r>
       <r>    5.0506    1.0000 </r>
       <r>    5.0506    1.0000 </r>
       <r>    5.2841    1.0000 </r>
       <r>    5.2841    1.0000 </r>
       <r>    5.4301    1.0000 </r>
       <r>    6.0229    1.0000 </r>
       <r>    7.1093    0.8891 </r>
       <r>    7.1093    0.8891 </r>
       <r>    8.8834   -0.0000 </r>
       <r>   14.6495    0.0000 </r>
       <r>   16.5164    0.0000 </r>
       <r>   17.1857    0.0000 </r>
       <r>   17.1857    0.0000 </r>
       <r>   18.2882    0.0000 </r>
       <r>   18.2882    0.0000 </r>
      </set>
      <set comment="kpoint 7">
       <r>   -0.4414    1.0000 </r>
       <r>    2.9629    1.0000 </r>
       <r>    2.9629    1.0000 </r>
       <r>    2.9629    1.0000 </r>
       <r>    3.3905    1.0000 </r>
       <r>    3.3905    1.0000 </r>
       <r>    3.3905    1.0000 </r>
       <r>    4.1698    1.0000 </r>
       <r>    4.5438    1.0000 </r>
       <r>    4.5438    1.0000 </r>
       <r>    4.6712    1.0000 </r>
       <r>    4.6712    1.0000 </r>
       <r>    4.6712    1.0000 </r>
       <r>    5.1859    1.0000 </r>
       <r>    5.1859    1.0000 </r>
       <r>    5.2375    1.0000 </r>
       <r>    5.2375    1.0000 </r>
       <r>    5.2375    1.0000 </r>
       <r>    5.7663    1.0000 </r>
       <r>    5.7663    1.0000 </r>
       <r>    5.7663    1.0000 </r>
       <r>    8.4675   -0.0000 </r>
       <r>    8.4675   -0.0000 </r>
       <r>    8.4675   -0.0000 </r>
       <r>   15.2997    0.0000 </r>
       <r>   15.2997    0.0000 </r>
       <r>   15.2997    0.0000 </r>
       <r>   18.1158    0.0000 </r>
       <r>   18.1158    0.0000 </r>
       <r>   18.1158    0.0000 </r>
      </set>
      <set comment="kpoint 8">
       <r>    0.8024    1.0000 </r>
       <r>    2.3220    1.0000 </r>
       <r>    3.2822    1.0000 </r>
       <r>    3.2822    1.0000 </r>
       <r>    3.6215    1.0000 </r>
       <r>    3.6215    1.0000 </r>
       <r>    3.6961    1.0000 </r>
       <r>    4.0124    1.0000 </r>
       <r>    4.2214    1.0000 </r>
       <r>    4.2214    1.0000 </r>
       <r>    4.3449    1.0000 </r>
       <r>    4.5096    1.0000 </r>
       <r>    4.6285    1.0000 </r>
       <r>    4.8870    1.0000 </r>
       <r>    5.0119    1.0000 </r>
       <r>    5.0119    1.0000 </r>
       <r>    5.3005    1.0000 </r>
       <r>    5.4569    1.0000 </r>
       <r>    5.6822    1.0000 </r>
       <r>    5.6854    1.0000 </r>
       <r>    5.6854    1.0000 </r>
       <r>    6.2104    1.0000 </r>
       <r>    9.8316   -0.0000 </r>
       <r>    9.8316   -0.0000 </r>
       <r>   12.4923   -0.0000 </r>
       <r>   12.4923   -0.0000 </r>
       <r>   16.8317    0.0000 </r>
       <r>   19.1403    0.0000 </r>
       <r>   19.2185    0.0000 </r>
       <r>   19.2185    0.0000 </r>
      </set>
      <set comment="kpoint 9">
       <r>    1.7562    1.0000 </r>
       <r>    2.7258    1.0000 </r>
       <r>    2.7258    1.0000 </r>
       <r>    3.0311    1.0000 </r>
       <r>    3.9258    1.0000 </r>
       <r>    4.0299    1.0000 </r>
       <r>    4.0299    1.0000 </r>
       <r>    4.1920    1.0000 </r>
       <r>    4.2685    1.0000 </r>
       <r>    4.2685    1.0000 </r>
       <r>    4.3927    1.0000 </r>
       <r>    4.3943    1.0000 </r>
       <r>    4.5740    1.0000 </r>
       <r>    4.7263    1.0000 </r>
       <r>    4.7263    1.0000 </r>
       <r>    4.7380    1.0000 </r>
       <r>    5.3229    1.0000 </r>
       <r>    5.5743    1.0000 </r>
       <r>    5.5743    1.0000 </r>
       <r>    5.5931    1.0000 </r>
       <r>    5.9072    1.0000 </r>
       <r>    7.1494    0.7667 </r>
       <r>    7.1494    0.7667 </r>
       <r>    8.8149   -0.0000 </r>
       <r>   11.9228   -0.0000 </r>
       <r>   13.8978    0.0000 </r>
       <r>   13.8978    0.0000 </r>
       <r>   16.1264    0.0000 </r>
       <r>   20.4252    0.0000 </r>
       <r>   22.4099    0.0000 </r>
      </set>
      <set comment="kpoint 10">
       <r>    2.1438    1.0000 </r>
       <r>    2.5581    1.0000 </r>
       <r>    2.5581    1.0000 </r>
       <r>    2.5581    1.0000 </r>
       <r>    4.2402    1.0000 </r>
       <r>    4.2402    1.0000 </r>
       <r>    4.2402    1.0000 </r>
       <r>    4.4125    1.0000 </r>
       <r>    4.4125    1.0000 </r>
       <r>    4.4666    1.0000 </r>
       <r>    4.4666    1.0000 </r>
       <r>    4.4666    1.0000 </r>
       <r>    4.9422    1.0000 </r>
       <r>    4.9422    1.0000 </r>
       <r>    4.9422    1.0000 </r>
       <r>    5.1781    1.0000 </r>
       <r>    5.6196    1.0000 </r>
       <r>    5.6196    1.0000 </r>
       <r>    5.7206    1.0000 </r>
       <r>    5.7206    1.0000 </r>
       <r>    5.7206    1.0000 </r>
       <r>    7.2697    0.2834 </r>
       <r>    7.2697    0.2834 </r>
       <r>    7.2697    0.2834 </r>
       <r>   11.4649   -0.0000 </r>
       <r>   11.4649   -0.0000 </r>
       <r>   11.4649   -0.0000 </r>
       <r>   13.2348    0.0000 </r>
       <r>   25.6905    0.0000 </r>
       <r>   25.6905    0.0000 </r>
      </set>
     </set>
    </set>
   </array>
  </eigenvalues>
  <separator name="orbital magnetization" >
   <v name="MAGDIPOLOUT">      0.00000000      0.00000000      0.00000000</v>
  </separator>
  <dos>
   <i name="efermi">      7.21644659 </i>
   <total>
    <array>
     <dimension dim="1">gridpoints</dimension>
     <dimension dim="2">spin</dimension>
     <field>energy</field>
     <field>total</field>
     <field>integrated</field>
     <set>
      <set comment="spin 1">
       <r>    -3.8292     0.0000     0.0000 </r>
       <r>    -3.7241     0.0000     0.0000 </r>
       <r>    -3.6191     0.0000     0.0000 </r>
       <r>    -3.5140    -0.0000    -0.0000 </r>
       <r>    -3.4089    -0.0000    -0.0000 </r>
       <r>    -3.3039    -0.0000    -0.0000 </r>
       <r>    -3.1988    -0.0000    -0.0000 </r>
       <r>    -3.0937    -0.0000    -0.0000 </r>
       <r>    -2.9887    -0.0000    -0.0000 </r>
       <r>    -2.8836    -0.0000    -0.0000 </r>
       <r>    -2.7785    -0.0000    -0.0000 </r>
       <r>    -2.6735    -0.0000    -0.0000 </r>
       <r>    -2.5684    -0.0000    -0.0000 </r>
       <r>    -2.4633    -0.0000    -0.0000 </r>
       <r>    -2.3583    -0.0001    -0.0000 </r>
       <r>    -2.2532    -0.0007    -0.0001 </r>
       <r>    -2.1481    -0.0027    -0.0004 </r>
       <r>    -2.0431    -0.0012    -0.0005 </r>
       <r>    -1.9380     0.0208     0.0017 </r>
       <r>    -1.8329     0.0560     0.0076 </r>
       <r>    -1.7279     0.0503     0.0129 </r>
       <r>    -1.6228     0.0037     0.0132 </r>
       <r>    -1.5177     0.0332     0.0167 </r>
       <r>    -1.4127     0.2282     0.0407 </r>
       <r>    -1.3076     0.3801     0.0806 </r>
       <r>    -1.2025     0.2322     0.1050 </r>
       <r>    -1.0975     0.0446     0.1097 </r>
       <r>    -0.9924     0.2494     0.1359 </r>
       <r>    -0.8874     0.6878     0.2082 </r>
       <r>    -0.7823     0.6796     0.2796 </r>
       <r>    -0.6772     0.2440     0.3052 </r>
       <r>    -0.5722     0.1020     0.3159 </r>
       <r>    -0.4671     0.3726     0.3551 </r>
       <r>    -0.3620     0.4875     0.4063 </r>
       <r>    -0.2570     0.2313     0.4306 </r>
       <r>    -0.1519     0.0636     0.4373 </r>
       <r>    -0.0468     0.2211     0.4605 </r>
       <r>     0.0582     0.3415     0.4964 </r>
       <r>     0.1633     0.1652     0.5138 </r>
       <r>     0.2684     0.2169     0.5366 </r>
       <r>     0.3734     0.9697     0.6384 </r>
       <r>     0.4785     1.4914     0.7951 </r>
       <r>     0.5836     0.9507     0.8950 </r>
       <r>     0.6886     0.6322     0.9614 </r>
       <r>     0.7937     1.2693     1.0948 </r>
       <r>     0.8988     1.4105     1.2430 </r>
       <r>     1.0038     0.5990     1.3059 </r>
       <r>     1.1089    -0.0044     1.3055 </r>
       <r>     1.2140    -0.0980     1.2952 </r>
       <r>     1.3190    -0.0724     1.2876 </r>
       <r>     1.4241     0.0646     1.2944 </r>
       <r>     1.5292     0.5086     1.3478 </r>
       <r>     1.6342     1.2420     1.4783 </r>
       <r>     1.7393     1.9558     1.6838 </r>
       <r>     1.8444     1.8079     1.8737 </r>
       <r>     1.9494     1.0079     1.9796 </r>
       <r>     2.0545     1.2094     2.1067 </r>
       <r>     2.1595     2.0701     2.3242 </r>
       <r>     2.2646     2.1786     2.5531 </r>
       <r>     2.3697     1.7832     2.7404 </r>
       <r>     2.4747     1.6664     2.9155 </r>
       <r>     2.5798     2.5211     3.1804 </r>
       <r>     2.6849     4.5076     3.6540 </r>
       <r>     2.7899     6.4797     4.3348 </r>
       <r>     2.8950     6.6827     5.0369 </r>
       <r>     3.0001     5.3999     5.6042 </r>
       <r>     3.1051     4.5096     6.0780 </r>
       <r>     3.2102     6.3854     6.7489 </r>
       <r>     3.3153    10.0233     7.8020 </r>
       <r>     3.4203    10.4909     8.9043 </r>
       <r>     3.5254     9.0444     9.8545 </r>
       <r>     3.6305     9.3063    10.8323 </r>
       <r>     3.7355     8.5965    11.7355 </r>
       <r>     3.8406     7.0280    12.4739 </r>
       <r>     3.9457     8.4885    13.3657 </r>
       <r>     4.0507    11.6825    14.5931 </r>
       <r>     4.1558    14.0963    16.0742 </r>
       <r>     4.2609    16.3313    17.7900 </r>
       <r>     4.3659    17.2335    19.6007 </r>
       <r>     4.4710    16.3192    21.3153 </r>
       <r>     4.5761    14.4381    22.8322 </r>
       <r>     4.6811    12.1284    24.1065 </r>
       <r>     4.7862    11.3823    25.3024 </r>
       <r>     4.8913    13.0550    26.6740 </r>
       <r>     4.9963    14.5619    28.2040 </r>
       <r>     5.1014    14.0513    29.6803 </r>
       <r>     5.2064    14.9821    31.2544 </r>
       <r>     5.3115    16.2498    32.9617 </r>
       <r>     5.4166    13.7896    34.4105 </r>
       <r>     5.5216    13.4546    35.8241 </r>
       <r>     5.6267    18.3167    37.7486 </r>
       <r>     5.7318    19.7267    39.8212 </r>
       <r>     5.8368    13.4514    41.2344 </r>
       <r>     5.9419     6.5986    41.9277 </r>
       <r>     6.0470     3.6490    42.3111 </r>
       <r>     6.1520     2.6130    42.5856 </r>
       <r>     6.2571     1.8200    42.7768 </r>
       <r>     6.3622     0.8683    42.8681 </r>
       <r>     6.4672     0.0974    42.8783 </r>
       <r>     6.5723    -0.1178    42.8659 </r>
       <r>     6.6774    -0.0236    42.8635 </r>
       <r>     6.7824     0.1062    42.8746 </r>
       <r>     6.8875     0.1587    42.8913 </r>
       <r>     6.9926     0.9530    42.9914 </r>
       <r>     7.0976     3.4758    43.3566 </r>
       <r>     7.2027     5.4406    43.9282 </r>
       <r>     7.3078     4.1539    44.3646 </r>
       <r>     7.4128     1.4531    44.5173 </r>
       <r>     7.5179    -0.0386    44.5133 </r>
       <r>     7.6230    -0.2027    44.4920 </r>
       <r>     7.7280     0.4317    44.5373 </r>
       <r>     7.8331     1.3633    44.6806 </r>
       <r>     7.9381     1.4256    44.8304 </r>
       <r>     8.0432     0.5546    44.8886 </r>
       <r>     8.1483    -0.0748    44.8808 </r>
       <r>     8.2533    -0.0991    44.8704 </r>
       <r>     8.3584     0.4699    44.9197 </r>
       <r>     8.4635     1.3164    45.0580 </r>
       <r>     8.5685     1.3139    45.1961 </r>
       <r>     8.6736     0.8174    45.2820 </r>
       <r>     8.7787     1.4374    45.4330 </r>
       <r>     8.8837     2.3323    45.6780 </r>
       <r>     8.9888     1.7202    45.8588 </r>
       <r>     9.0939     0.4420    45.9052 </r>
       <r>     9.1989    -0.1388    45.8906 </r>
       <r>     9.3040    -0.1367    45.8763 </r>
       <r>     9.4091     0.3110    45.9089 </r>
       <r>     9.5141     1.1143    46.0260 </r>
       <r>     9.6192     1.4353    46.1768 </r>
       <r>     9.7243     1.7150    46.3570 </r>
       <r>     9.8293     2.9369    46.6656 </r>
       <r>     9.9344     3.3010    47.0124 </r>
       <r>    10.0395     1.8558    47.2074 </r>
       <r>    10.1445     0.4157    47.2510 </r>
       <r>    10.2496    -0.0783    47.2428 </r>
       <r>    10.3547    -0.0809    47.2343 </r>
       <r>    10.4597    -0.0396    47.2302 </r>
       <r>    10.5648    -0.0428    47.2257 </r>
       <r>    10.6699     0.0637    47.2323 </r>
       <r>    10.7749     0.4576    47.2804 </r>
       <r>    10.8800     0.7791    47.3623 </r>
       <r>    10.9850     0.5329    47.4183 </r>
       <r>    11.0901     0.0758    47.4262 </r>
       <r>    11.1952    -0.1181    47.4138 </r>
       <r>    11.3002     0.1026    47.4246 </r>
       <r>    11.4053     0.8707    47.5161 </r>
       <r>    11.5104     1.4837    47.6720 </r>
       <r>    11.6154     1.3567    47.8145 </r>
       <r>    11.7205     1.4657    47.9685 </r>
       <r>    11.8256     2.0085    48.1795 </r>
       <r>    11.9306     2.0782    48.3979 </r>
       <r>    12.0357     1.4559    48.5508 </r>
       <r>    12.1408     0.8017    48.6351 </r>
       <r>    12.2458     0.5790    48.6959 </r>
       <r>    12.3509     0.9573    48.7965 </r>
       <r>    12.4560     2.3223    49.0405 </r>
       <r>    12.5610     2.9851    49.3541 </r>
       <r>    12.6661     1.6762    49.5302 </r>
       <r>    12.7712     0.7667    49.6108 </r>
       <r>    12.8762     1.2604    49.7432 </r>
       <r>    12.9813     1.2782    49.8775 </r>
       <r>    13.0864     0.5522    49.9355 </r>
       <r>    13.1914     0.3269    49.9699 </r>
       <r>    13.2965     0.4543    50.0176 </r>
       <r>    13.4016     0.2799    50.0470 </r>
       <r>    13.5066    -0.0173    50.0452 </r>
       <r>    13.6117    -0.1831    50.0260 </r>
       <r>    13.7168     0.1217    50.0388 </r>
       <r>    13.8218     1.5692    50.2036 </r>
       <r>    13.9269     3.0590    50.5250 </r>
       <r>    14.0319     2.3827    50.7754 </r>
       <r>    14.1370     0.5927    50.8376 </r>
       <r>    14.2421    -0.1601    50.8208 </r>
       <r>    14.3471     0.1123    50.8326 </r>
       <r>    14.4522     0.9723    50.9348 </r>
       <r>    14.5573     1.8945    51.1338 </r>
       <r>    14.6623     1.8372    51.3268 </r>
       <r>    14.7674     0.9310    51.4247 </r>
       <r>    14.8725     0.6339    51.4913 </r>
       <r>    14.9775     1.2441    51.6220 </r>
       <r>    15.0826     1.5698    51.7869 </r>
       <r>    15.1877     1.6235    51.9575 </r>
       <r>    15.2927     1.8934    52.1564 </r>
       <r>    15.3978     2.0009    52.3666 </r>
       <r>    15.5029     2.5641    52.6360 </r>
       <r>    15.6079     3.0807    52.9597 </r>
       <r>    15.7130     1.8873    53.1580 </r>
       <r>    15.8181     0.2540    53.1847 </r>
       <r>    15.9231    -0.1619    53.1677 </r>
       <r>    16.0282     0.5085    53.2211 </r>
       <r>    16.1333     1.4086    53.3691 </r>
       <r>    16.2383     1.3054    53.5063 </r>
       <r>    16.3434     0.4842    53.5571 </r>
       <r>    16.4485     0.3822    53.5973 </r>
       <r>    16.5535     0.9837    53.7006 </r>
       <r>    16.6586     1.3604    53.8436 </r>
       <r>    16.7637     1.5187    54.0031 </r>
       <r>    16.8687     1.7952    54.1917 </r>
       <r>    16.9738     2.0358    54.4056 </r>
       <r>    17.0788     2.2989    54.6472 </r>
       <r>    17.1839     2.3116    54.8900 </r>
       <r>    17.2890     1.6322    55.0615 </r>
       <r>    17.3940     0.7310    55.1383 </r>
       <r>    17.4991     0.2449    55.1641 </r>
       <r>    17.6042     0.3498    55.2008 </r>
       <r>    17.7092     1.0716    55.3134 </r>
       <r>    17.8143     1.4107    55.4616 </r>
       <r>    17.9194     0.8793    55.5540 </r>
       <r>    18.0244     1.0848    55.6680 </r>
       <r>    18.1295     2.3314    55.9129 </r>
       <r>    18.2346     2.8393    56.2112 </r>
       <r>    18.3396     2.0676    56.4285 </r>
       <r>    18.4447     0.8201    56.5146 </r>
       <r>    18.5498     0.3327    56.5496 </r>
       <r>    18.6548     1.2796    56.6840 </r>
       <r>    18.7599     2.5191    56.9487 </r>
       <r>    18.8650     2.4605    57.2072 </r>
       <r>    18.9700     1.4053    57.3549 </r>
       <r>    19.0751     1.6628    57.5296 </r>
       <r>    19.1802     3.6921    57.9175 </r>
       <r>    19.2852     4.1484    58.3533 </r>
       <r>    19.3903     1.9720    58.5605 </r>
       <r>    19.4954     0.1354    58.5748 </r>
       <r>    19.6004    -0.2055    58.5532 </r>
       <r>    19.7055    -0.0757    58.5452 </r>
       <r>    19.8106    -0.0184    58.5433 </r>
       <r>    19.9156    -0.0449    58.5386 </r>
       <r>    20.0207    -0.1097    58.5270 </r>
       <r>    20.1257     0.0848    58.5360 </r>
       <r>    20.2308     1.0551    58.6468 </r>
       <r>    20.3359     2.3930    58.8982 </r>
       <r>    20.4409     2.6803    59.1798 </r>
       <r>    20.5460     1.5654    59.3443 </r>
       <r>    20.6511     0.3346    59.3795 </r>
       <r>    20.7561    -0.0987    59.3691 </r>
       <r>    20.8612    -0.0697    59.3618 </r>
       <r>    20.9663    -0.0151    59.3602 </r>
       <r>    21.0713    -0.0016    59.3600 </r>
       <r>    21.1764    -0.0001    59.3600 </r>
       <r>    21.2815    -0.0000    59.3600 </r>
       <r>    21.3865    -0.0000    59.3600 </r>
       <r>    21.4916    -0.0000    59.3600 </r>
       <r>    21.5967    -0.0000    59.3600 </r>
       <r>    21.7017    -0.0000    59.3600 </r>
       <r>    21.8068    -0.0003    59.3600 </r>
       <r>    21.9119    -0.0041    59.3595 </r>
       <r>    22.0169    -0.0282    59.3566 </r>
       <r>    22.1220    -0.0778    59.3484 </r>
       <r>    22.2271     0.0600    59.3547 </r>
       <r>    22.3321     0.7695    59.4355 </r>
       <r>    22.4372     1.5255    59.5958 </r>
       <r>    22.5423     1.2120    59.7232 </r>
       <r>    22.6473     0.3271    59.7575 </r>
       <r>    22.7524    -0.0629    59.7509 </r>
       <r>    22.8575    -0.0533    59.7453 </r>
       <r>    22.9625    -0.0114    59.7441 </r>
       <r>    23.0676    -0.0011    59.7440 </r>
       <r>    23.1726    -0.0001    59.7440 </r>
       <r>    23.2777    -0.0000    59.7440 </r>
       <r>    23.3828    -0.0000    59.7440 </r>
       <r>    23.4878    -0.0000    59.7440 </r>
       <r>    23.5929    -0.0000    59.7440 </r>
       <r>    23.6980    -0.0000    59.7440 </r>
       <r>    23.8030     0.0000    59.7440 </r>
       <r>    23.9081     0.0000    59.7440 </r>
       <r>    24.0132    -0.0000    59.7440 </r>
       <r>    24.1182    -0.0000    59.7440 </r>
       <r>    24.2233    -0.0000    59.7440 </r>
       <r>    24.3284    -0.0000    59.7440 </r>
       <r>    24.4334    -0.0000    59.7440 </r>
       <r>    24.5385    -0.0000    59.7440 </r>
       <r>    24.6436    -0.0000    59.7440 </r>
       <r>    24.7486    -0.0000    59.7440 </r>
       <r>    24.8537    -0.0000    59.7440 </r>
       <r>    24.9588    -0.0000    59.7440 </r>
       <r>    25.0638    -0.0001    59.7440 </r>
       <r>    25.1689    -0.0016    59.7438 </r>
       <r>    25.2740    -0.0131    59.7424 </r>
       <r>    25.3790    -0.0462    59.7376 </r>
       <r>    25.4841    -0.0075    59.7368 </r>
       <r>    25.5892     0.3763    59.7763 </r>
       <r>    25.6942     0.9492    59.8761 </r>
       <r>    25.7993     0.9197    59.9727 </r>
       <r>    25.9044     0.3352    60.0079 </r>
       <r>    26.0094    -0.0185    60.0060 </r>
       <r>    26.1145    -0.0438    60.0014 </r>
       <r>    26.2195    -0.0115    60.0002 </r>
       <r>    26.3246    -0.0014    60.0000 </r>
       <r>    26.4297    -0.0001    60.0000 </r>
       <r>    26.5347    -0.0000    60.0000 </r>
       <r>    26.6398    -0.0000    60.0000 </r>
       <r>    26.7449    -0.0000    60.0000 </r>
       <r>    26.8499    -0.0000    60.0000 </r>
       <r>    26.9550    -0.0000    60.0000 </r>
       <r>    27.0601     0.0000    60.0000 </r>
       <r>    27.1651     0.0000    60.0000 </r>
       <r>    27.2702     0.0000    60.0000 </r>
       <r>    27.3753     0.0000    60.0000 </r>
       <r>    27.4803     0.0000    60.0000 </r>
       <r>    27.5854     0.0000    60.0000 </r>
       <r>    27.6905     0.0000    60.0000 </r>
      </set>
     </set>
    </array>
   </total>
  </dos>
 </calculation>
 <structure name="finalpos" >
  <crystal>
   <varray name="basis" >
    <v>       3.63500000       0.00000000       0.00000000 </v>
    <v>       0.00000000       3.63500000       0.00000000 </v>
    <v>       0.00000000       0.00000000       3.63500000 </v>
   </varray>
   <i name="volume">     48.03007287 </i>
   <varray name="rec_basis" >
    <v>       0.27510316       0.00000000       0.00000000 </v>
    <v>       0.00000000       0.27510316       0.00000000 </v>
    <v>       0.00000000       0.00000000       0.27510316 </v>
   </varray>
  </crystal>
  <varray name="positions" >
   <v>       0.00000000       0.00000000       0.00000000 </v>
   <v>       0.50000000       0.50000000       0.00000000 </v>
   <v>       0.50000000       0.00000000       0.50000000 </v>
   <v>       0.00000000       0.50000000       0.50000000 </v>
  </varray>
 </structure>
</modeling>
