unknown system                          
   1.00000000000000     
     2.399900    0.000000    0.000000
    -1.199950    2.078374    0.000000
     0.000000    0.000000    4.307460
   Fe
     2
Direct
  0.000000  0.000000  0.000000
  0.333333  0.666667  0.500000
 
   20   20   36
  180.67      170.65      143.83      108.20      72.561      43.407      23.786      13.526      9.8626      8.7545    
  8.3869      8.7551      9.8631      13.525      23.786      43.407      72.562      108.20      143.83      170.65    
  170.66      170.65      152.26      121.27      86.148      54.514      31.018      17.002      10.902      9.1002    
  8.3849      8.3839      9.0991      10.903      17.003      31.017      54.512      86.154      121.29      152.29    
  143.84      152.25      143.83      121.27      91.202      61.092      36.581      20.373      12.208      9.4182    
  8.4195      8.0789      8.4171      9.4175      12.211      20.373      36.575      61.087      91.207      121.28    
  108.19      121.21      121.21      108.20      86.148      61.091      38.668      22.450      13.333      9.7225    
  8.4768      7.8674      7.8667      8.4760      9.7232      13.335      22.449      38.662      61.081      86.138    
  72.541      86.048      91.077      86.065      72.562      54.513      36.581      22.450      13.779      9.9322    
  8.5309      7.7472      7.4925      7.7479      8.5312      9.9328      13.782      22.455      36.581      54.502    
  43.405      54.438      60.961      60.966      54.448      43.406      31.018      20.373      13.333      9.9320    
  8.5532      7.6966      7.2856      7.2866      7.6974      8.5514      9.9311      13.340      20.386      31.028    
  23.801      31.009      36.525      38.587      36.519      30.998      23.786      17.002      12.209      9.7221    
  8.5310      7.6967      7.2206      7.0730      7.2221      7.6956      8.5256      9.7170      12.211      17.013    
  13.524      17.031      20.402      22.462      22.456      20.389      17.021      13.526      10.902      9.4177    
  8.4768      7.7474      7.2854      7.0730      7.0740      7.2872      7.7468      8.4707      9.4066      10.892    
  9.8465      10.928      12.271      13.412      13.858      13.408      12.271      10.939      9.8628      9.1000    
  8.4193      7.8678      7.4924      7.2865      7.2224      7.2873      7.4962      7.8731      8.4189      9.0891    
  8.7543      9.1307      9.4841      9.8216      10.051      10.053      9.8281      9.4950      9.1403      8.7547    
  8.3847      8.0792      7.8670      7.7476      7.6977      7.6958      7.7463      7.8729      8.0917      8.3947    
  8.4016      8.4384      8.5048      8.5919      8.6714      8.7063      8.6769      8.5971      8.5033      8.4280    
  8.3868      8.3838      8.4174      8.4757      8.5310      8.5515      8.5253      8.4704      8.4195      8.3949    
  8.7537      8.4382      8.1811      8.0055      7.9128      7.8808      7.8824      7.9135      7.9991      8.1687    
  8.4288      8.7547      9.0992      9.4174      9.7228      9.9329      9.9313      9.7169      9.4070      9.0894    
  9.8461      9.1304      8.5054      8.0056      7.6701      7.4905      7.4365      7.4901      7.6665      7.9999    
  8.5051      9.1411      9.8629      10.903      12.210      13.335      13.782      13.340      12.210      10.892    
  13.524      10.928      9.4846      8.5920      7.9123      7.4905      7.2993      7.2984      7.4890      7.9133    
  8.5981      9.4952      10.938      13.526      17.003      20.373      22.449      22.455      20.386      17.013    
  23.801      17.031      12.271      9.8215      8.6711      7.8808      7.4368      7.2983      7.4347      7.8815    
  8.6769      9.8274      12.269      17.020      23.786      31.017      36.575      38.662      36.581      31.028    
  43.405      31.009      20.402      13.412      10.051      8.7065      7.8826      7.4899      7.4888      7.8817    
  8.7080      10.052      13.406      20.389      30.999      43.406      54.511      61.087      61.081      54.502    
  72.541      54.438      36.524      22.462      13.859      10.053      8.6766      7.9134      7.6664      7.9136    
  8.6770      10.052      13.854      22.457      36.525      54.450      72.562      86.154      91.208      86.138    
  108.19      86.048      60.961      38.588      22.456      13.408      9.8277      8.5973      7.9993      8.0000    
  8.5981      9.8271      13.406      22.457      38.594      60.971      86.058      108.20      121.29      121.28    
  143.84      121.21      91.077      60.967      36.519      20.388      12.271      9.4954      8.5036      8.1683    
  8.5048      9.4952      12.269      20.389      36.525      60.971      91.071      121.19      143.83      152.29    
  170.66      152.25      121.21      86.064      54.447      30.998      17.022      10.939      9.1403      8.4275    
  8.4285      9.1415      10.938      17.020      30.999      54.450      86.058      121.19      152.23      170.65    
  170.65      161.19      135.86      102.18      68.467      40.935      22.516      13.004      9.6643      8.6025    
  8.2461      8.6031      9.6648      13.004      22.516      40.935      68.467      102.18      135.86      161.19    
  161.20      161.19      143.83      114.53      81.308      51.400      29.273      16.196      10.599      8.9327    
  8.2387      8.2377      8.9316      10.600      16.197      29.272      51.399      81.314      114.55      143.85    
  135.88      143.82      135.86      114.53      86.086      57.607      34.488      19.313      11.776      9.2327    
  8.2678      7.9390      8.2654      9.2320      11.778      19.313      34.483      57.602      86.091      114.55    
  102.17      114.49      114.49      102.18      81.308      57.606      36.448      21.240      12.796      9.5047    
  8.3201      7.7326      7.7320      8.3193      9.5053      12.797      21.239      36.443      57.597      81.299    
  68.449      81.234      85.995      81.249      68.467      51.400      34.488      21.241      13.201      9.6898    
  8.3705      7.6153      7.3711      7.6161      8.3708      9.6903      13.204      21.245      34.488      51.389    
  40.933      51.353      57.522      57.527      51.362      40.935      29.273      19.313      12.796      9.6897    
  8.3914      7.5660      7.1723      7.1733      7.5668      8.3898      9.6888      12.802      19.325      29.282    
  22.529      29.288      34.478      36.422      34.473      29.278      22.516      16.196      11.776      9.5043    
  8.3706      7.5661      7.1099      6.9690      7.1114      7.5652      8.3657      9.4997      11.778      16.206    
  13.003      16.244      19.381      21.304      21.298      19.368      16.235      13.004      10.599      9.2322    
  8.3201      7.6156      7.1721      6.9689      6.9698      7.1737      7.6150      8.3145      9.2220      10.590    
  9.6494      10.641      11.870      12.917      13.328      12.913      11.870      10.651      9.6645      8.9325    
  8.2676      7.7330      7.3710      7.1732      7.1117      7.1738      7.3744      7.7378      8.2672      8.9225    
  8.6023      8.9761      9.3234      9.6379      9.8478      9.8494      9.6437      9.3334      8.9848      8.6027    
  8.2384      7.9393      7.7322      7.6158      7.5671      7.5653      7.6145      7.7376      7.9508      8.2476    
  8.2596      8.3017      8.3727      8.4623      8.5426      8.5773      8.5475      8.4671      8.3712      8.2921    
  8.2461      8.2376      8.2658      8.3190      8.3706      8.3899      8.3654      8.3143      8.2678      8.2478    
  8.6017      8.3016      8.0582      7.8927      7.8058      7.7759      7.7774      7.8065      7.8869      8.0467    
  8.2929      8.6027      8.9317      9.2319      9.5049      9.6904      9.6890      9.4996      9.2224      8.9228    
  9.6490      8.9758      8.3732      7.8929      7.5707      7.3982      7.3463      7.3980      7.5675      7.8876    
  8.3729      8.9857      9.6646      10.600      11.778      12.798      13.204      12.802      11.778      10.590    
  13.003      10.641      9.3238      8.4625      7.8054      7.3982      7.2136      7.2129      7.3969      7.8063    
  8.4681      9.3336      10.650      13.004      16.197      19.313      21.240      21.245      19.325      16.206    
  22.530      16.245      11.869      9.6377      8.5422      7.7760      7.3466      7.2127      7.3445      7.7765    
  8.5475      9.6431      11.868      16.234      22.516      29.272      34.483      36.442      34.488      29.282    
  40.934      29.288      19.380      12.917      9.8480      8.5774      7.7776      7.3977      7.3967      7.7767    
  8.5788      9.8488      12.912      19.368      29.279      40.935      51.398      57.602      57.597      51.390    
  68.448      51.352      34.478      21.304      13.328      9.8495      8.5473      7.8064      7.5674      7.8066    
  8.5476      9.8486      13.324      21.299      34.478      51.363      68.467      81.314      86.091      81.299    
  102.17      81.234      57.522      36.423      21.298      12.913      9.6433      8.4672      7.8871      7.8877    
  8.4681      9.6428      12.912      21.299      36.428      57.531      81.243      102.18      114.55      114.55    
  135.88      114.49      85.995      57.527      34.473      19.368      11.869      9.3338      8.3715      8.0464    
  8.3727      9.3336      11.868      19.369      34.478      57.531      85.990      114.47      135.86      143.85    
  161.20      143.82      114.49      81.249      51.361      29.277      16.236      10.651      8.9849      8.2917    
  8.2927      8.9860      10.650      16.234      29.279      51.363      81.243      114.47      143.80      161.19    
  143.83      135.86      114.50      85.999      57.482      34.356      19.195      11.675      9.1430      8.1879    
  7.8646      8.1885      9.1435      11.675      19.194      34.356      57.482      86.000      114.50      135.86    
  135.87      135.86      121.22      96.441      68.309      43.078      24.667      14.117      9.8268      8.4707    
  7.8393      7.8385      8.4698      9.8278      14.119      24.667      43.076      68.314      96.454      121.24    
  114.51      121.22      114.50      96.442      72.343      48.274      28.940      16.555      10.675      8.7287    
  7.8508      7.5560      7.8487      8.7280      10.677      16.556      28.937      48.271      72.346      96.453    
  85.995      96.437      96.439      86.000      68.309      48.274      30.554      18.082      11.423      8.9316    
  7.8870      7.3619      7.3613      7.8862      8.9319      11.424      18.081      30.550      48.267      68.302    
  57.468      68.303      72.341      68.314      57.482      43.077      28.940      18.083      11.723      9.0596    
  7.9256      7.2513      7.0360      7.2520      7.9259      9.0597      11.725      18.086      28.940      43.069    
  34.355      43.105      48.311      48.315      43.112      34.356      24.667      16.556      11.423      9.0594    
  7.9420      7.2044      6.8584      6.8593      7.2053      7.9409      9.0587      11.427      16.565      24.675    
  19.205      24.747      29.053      30.674      29.049      24.739      19.195      14.118      10.675      8.9313    
  7.9257      7.2044      6.8028      6.6797      6.8041      7.2039      7.9221      8.9279      10.677      14.125    
  11.674      14.219      16.729      18.286      18.281      16.719      14.212      11.675      9.8270      8.7283    
  7.8870      7.2515      6.8582      6.6796      6.6803      6.8593      7.2510      7.8828      8.7205      9.8198    
  9.1314      9.9158      10.858      11.666      11.985      11.663      10.858      9.9236      9.1432      8.4705    
  7.8506      7.3622      7.0359      6.8592      6.8044      6.8594      7.0382      7.3657      7.8503      8.4627    
  8.1878      8.5544      8.8969      9.1709      9.3394      9.3405      9.1752      8.9043      8.5611      8.1881    
  7.8391      7.5562      7.3615      7.2517      7.2055      7.2041      7.2506      7.3656      7.5651      7.8462    
  7.8751      7.9351      8.0220      8.1225      8.2075      8.2427      8.2111      8.1259      8.0207      7.9276    
  7.8646      7.8384      7.8490      7.8860      7.9257      7.9411      7.9218      7.8826      7.8508      7.8464    
  8.1873      7.9349      7.7356      7.6047      7.5395      7.5191      7.5203      7.5402      7.6003      7.7268    
  7.9283      8.1882      8.4699      8.7279      8.9315      9.0598      9.0589      8.9279      8.7209      8.4630    
  9.1310      8.5542      8.0225      7.6049      7.3282      7.1815      7.1377      7.1816      7.3260      7.6009    
  8.0222      8.5618      9.1433      9.8280      10.677      11.424      11.726      11.428      10.677      9.8198    
  11.674      9.9159      8.8972      8.1226      7.5391      7.1815      7.0204      7.0199      7.1807      7.5399    
  8.1268      8.9046      9.9226      11.675      14.119      16.556      18.082      18.086      16.565      14.125    
  19.206      14.219      10.857      9.1708      8.2072      7.5191      7.1380      7.0198      7.1362      7.5193    
  8.2111      9.1748      10.856      14.211      19.195      24.667      28.936      30.550      28.940      24.675    
  34.355      24.747      16.728      11.666      9.3396      8.2428      7.5205      7.1814      7.1805      7.5194    
  8.2437      9.3403      11.662      16.719      24.740      34.356      43.076      48.271      48.267      43.070    
  57.468      43.104      29.053      18.286      11.985      9.3406      8.2109      7.5401      7.3259      7.5402    
  8.2112      9.3401      11.983      18.282      29.053      43.113      57.482      68.314      72.347      68.302    
  85.995      68.302      48.312      30.675      18.282      11.663      9.1748      8.1260      7.6005      7.6010    
  8.1268      9.1746      11.662      18.283      30.679      48.319      68.310      86.000      96.455      96.453    
  114.51      96.437      72.342      48.316      29.049      16.719      10.857      8.9047      8.0210      7.7265    
  8.0220      8.9046      10.856      16.720      29.053      48.319      72.338      96.426      114.50      121.23    
  135.87      121.22      96.439      68.314      43.111      24.739      14.212      9.9239      8.5612      7.9272    
  7.9281      8.5622      9.9229      14.211      24.740      43.113      68.310      96.426      121.21      135.86    
  108.17      102.15      85.980      64.395      42.905      25.798      15.044      10.095      8.4384      7.6152    
  7.3433      7.6157      8.4388      10.095      15.044      25.798      42.905      64.396      85.980      102.15    
  102.16      102.15      91.062      72.276      50.996      32.138      18.793      11.592      8.8828      7.8205    
  7.2873      7.2866      7.8197      8.8837      11.594      18.793      32.137      50.998      72.284      91.073    
  85.987      91.085      85.980      72.276      54.020      35.956      21.789      13.148      9.3577      8.0138    
  7.2677      7.0237      7.2661      8.0131      9.3591      13.149      21.787      35.953      54.022      72.283    
  64.393      72.325      72.326      64.396      50.996      35.955      22.933      14.146      9.7781      8.1614    
  7.2753      6.8423      6.8419      7.2747      8.1614      9.7784      14.145      22.929      35.951      50.991    
  42.897      51.076      54.136      51.083      42.905      32.138      21.789      14.146      9.9495      8.2408    
  7.2927      6.7368      6.5628      6.7374      7.2929      8.2405      9.9500      14.147      21.789      32.133    
  25.798      32.263      36.151      36.154      32.267      25.798      18.793      13.148      9.7780      8.2406    
  7.3012      6.6907      6.4112      6.4120      6.6917      7.3007      8.2401      9.7807      13.154      18.798    
  15.050      18.959      22.064      23.245      22.062      18.955      15.044      11.592      9.3578      8.1612    
  7.2928      6.6907      6.3640      6.2648      6.3649      6.6907      7.2908      8.1593      9.3591      11.598    
  10.094      11.768      13.466      14.540      14.538      13.461      11.764      10.095      8.8830      8.0134    
  7.2753      6.7369      6.4111      6.2648      6.2651      6.4116      6.7366      7.2728      8.0087      8.8784    
  8.4309      9.0417      9.6714      10.199      10.407      10.197      9.6713      9.0468      8.4386      7.8203    
  7.2675      6.8426      6.5627      6.4119      6.3652      6.4117      6.5637      6.8445      7.2673      7.8153    
  7.6152      7.9690      8.3058      8.5698      8.7145      8.7151      8.5721      8.3102      7.9732      7.6154    
  7.2871      7.0240      6.8420      6.7372      6.6919      6.6908      6.7362      6.8444      7.0295      7.2916    
  7.3499      7.4398      7.5532      7.6722      7.7663      7.8033      7.7683      7.6740      7.5522      7.4350    
  7.3433      7.2866      7.2663      7.2745      7.2928      7.3008      7.2906      7.2726      7.2677      7.2918    
  7.6147      7.4396      7.3117      7.2382      7.2108      7.2079      7.2088      7.2114      7.2355      7.3062    
  7.4355      7.6154      7.8198      8.0131      8.1611      8.2405      8.2402      8.1593      8.0090      7.8155    
  8.4306      7.9688      7.5536      7.2383      7.0374      6.9355      6.9063      6.9361      7.0366      7.2360    
  7.5534      7.9737      8.4386      8.8838      9.3590      9.7784      9.9504      9.7807      9.3589      8.8784    
  10.094      9.0418      8.3061      7.6723      7.2105      6.9355      6.8145      6.8144      6.9352      7.2111    
  7.6748      8.3105      9.0459      10.095      11.594      13.149      14.145      14.147      13.154      11.597    
  15.051      11.768      9.6712      8.5697      7.7660      7.2079      6.9065      6.8143      6.9051      7.2077    
  7.7683      8.5722      9.6701      11.763      15.044      18.793      21.787      22.929      21.789      18.798    
  25.798      18.959      13.466      10.199      8.7147      7.8034      7.2089      6.9359      6.9351      7.2078    
  7.8037      8.7152      10.196      13.460      18.954      25.798      32.137      35.953      35.951      32.133    
  42.896      32.263      22.064      14.540      10.407      8.7151      7.7681      7.2113      7.0365      7.2113    
  7.7684      8.7151      10.406      14.538      22.064      32.268      42.905      50.998      54.023      50.991    
  64.393      51.076      36.152      23.246      14.538      10.196      8.5718      7.6741      7.2356      7.2361    
  7.6748      8.5720      10.196      14.539      23.248      36.156      51.081      64.396      72.284      72.283    
  85.987      72.325      54.136      36.154      22.062      13.460      9.6712      8.3105      7.5524      7.3059    
  7.5532      8.3105      9.6702      13.460      22.064      36.156      54.134      72.318      85.980      91.072    
  102.16      91.086      72.326      51.083      32.267      18.954      11.764      9.0470      7.9732      7.4347    
  7.4354      7.9740      9.0461      11.763      18.954      32.268      51.080      72.318      91.075      102.15    
  72.411      68.326      57.368      42.834      28.619      17.743      11.402      8.7666      7.6624      7.0060    
  6.7958      7.0064      7.6626      8.7665      11.402      17.743      28.619      42.834      57.368      68.326    
  68.328      68.326      60.795      48.089      33.870      21.631      13.459      9.4607      7.9673      7.1158    
  6.7019      6.7014      7.1153      7.9680      9.4621      13.459      21.631      33.871      48.093      60.800    
  57.371      60.835      57.368      48.089      35.850      24.020      15.170      10.207      8.2060      7.2244    
  6.6409      6.4555      6.6397      7.2239      8.2070      10.208      15.169      24.018      35.851      48.092    
  42.833      48.189      48.189      42.834      33.870      24.020      15.836      10.704      8.3781      7.3094    
  6.6089      6.2807      6.2804      6.6084      7.3091      8.3780      10.703      15.834      24.017      33.868    
  28.615      34.033      36.077      34.036      28.619      21.630      15.170      10.704      8.4460      7.3553    
  6.5966      6.1737      6.0442      6.1742      6.5968      7.3548      8.4456      10.705      15.170      21.629    
  17.743      21.849      24.367      24.368      21.851      17.743      13.458      10.208      8.3781      7.3552    
  6.5940      6.1243      5.9149      5.9155      6.1252      6.5940      7.3548      8.3792      10.211      13.461    
  11.405      13.709      15.602      16.335      15.602      13.707      11.402      9.4609      8.2061      7.3091    
  6.5967      6.1243      5.8743      5.7991      5.8749      6.1246      6.5961      7.3086      8.2070      9.4636    
  8.7658      9.7129      10.673      11.290      11.289      10.670      9.7115      8.7666      7.9675      7.2242    
  6.6089      6.1738      5.9148      5.7991      5.7991      5.9148      6.1736      6.6079      7.2221      7.9652    
  7.6586      8.2022      8.6604      8.9872      9.1102      8.9861      8.6603      8.2048      7.6625      7.1157    
  6.6407      6.2809      6.0441      5.9155      5.8751      5.9149      6.0441      6.2816      6.6406      7.1132    
  7.0060      7.3378      7.6559      7.9075      8.0462      8.0462      7.9081      7.6577      7.3397      7.0061    
  6.7017      6.4557      6.2805      6.1741      6.1253      6.1247      6.1733      6.2815      6.4583      6.7039    
  6.7990      6.9213      7.0597      7.1932      7.2925      7.3298      7.2932      7.1937      7.0590      6.9190    
  6.7958      6.7014      6.6399      6.6082      6.5967      6.5941      6.5959      6.6077      6.6409      6.7040    
  7.0057      6.9212      6.8723      6.8590      6.8695      6.8835      6.8840      6.8700      6.8578      6.8697    
  6.9194      7.0062      7.1153      7.2239      7.3088      7.3549      7.3550      7.3085      7.2223      7.1134    
  7.6584      7.3377      7.0600      6.8591      6.7395      6.6840      6.6695      6.6848      6.7396      6.8582    
  7.0598      7.3401      7.6625      7.9681      8.2069      8.3780      8.4459      8.3792      8.2068      7.9652    
  8.7660      8.2023      7.6561      7.1933      6.8692      6.6840      6.6056      6.6056      6.6841      6.8697    
  7.1943      7.6579      8.2042      8.7666      9.4622      10.208      10.704      10.705      10.210      9.4634    
  11.405      9.7131      8.6602      7.9074      7.2923      6.8835      6.6697      6.6056      6.6687      6.8830    
  7.2932      7.9084      8.6595      9.7102      11.402      13.459      15.169      15.834      15.170      13.461    
  17.743      13.709      10.672      8.9871      8.0463      7.3299      6.8841      6.6847      6.6840      6.8831    
  7.3298      8.0466      8.9861      10.669      13.706      17.743      21.631      24.018      24.017      21.629    
  28.615      21.848      15.602      11.290      9.1105      8.0462      7.2931      6.8699      6.7396      6.8698    
  7.2932      8.0465      9.1103      11.290      15.602      21.851      28.619      33.871      35.851      33.868    
  42.833      34.033      24.367      16.335      11.289      8.9859      7.9079      7.1938      6.8580      6.8582    
  7.1943      7.9082      8.9861      11.290      16.336      24.369      34.035      42.834      48.093      48.092    
  57.371      48.189      36.077      24.368      15.601      10.670      8.6602      7.6579      7.0591      6.8695    
  7.0597      7.6580      8.6595      10.670      15.602      24.369      36.076      48.186      57.368      60.800    
  68.328      60.836      48.189      34.036      21.850      13.707      9.7116      8.2050      7.3398      6.9188    
  6.9192      7.3403      8.2043      9.7101      13.706      21.851      34.035      48.186      60.831      68.326    
  42.976      40.534      34.033      25.578      17.636      11.989      9.0468      7.7744      6.9388      6.4597    
  6.3104      6.4600      6.9390      7.7743      9.0466      11.989      17.636      25.579      34.033      40.534    
  40.534      40.534      36.042      28.567      20.453      13.856      9.8579      8.0739      7.1095      6.4742    
  6.1793      6.1791      6.4739      7.1099      8.0749      9.8587      13.856      20.453      28.568      36.043    
  34.033      36.095      34.033      28.568      21.533      15.045      10.572      8.3202      7.2422      6.4930    
  6.0738      5.9443      6.0731      6.4926      7.2428      8.3211      10.572      15.044      21.533      28.568    
  25.578      28.704      28.705      25.579      20.453      15.044      10.859      8.4802      7.3217      6.5083    
  5.9976      5.7675      5.7674      5.9973      6.5079      7.3214      8.4797      10.858      15.044      20.452    
  17.635      20.675      21.840      20.675      17.636      13.855      10.572      8.4803      7.3474      6.5162    
  5.9520      5.6514      5.5611      5.6518      5.9521      6.5156      7.3467      8.4799      10.572      13.855    
  11.989      14.141      15.501      15.501      14.141      11.989      9.8578      8.3204      7.3217      6.5161    
  5.9369      5.5943      5.4446      5.4450      5.5950      5.9371      6.5159      7.3218      8.3214      9.8590    
  9.0474      10.173      11.122      11.496      11.122      10.173      9.0467      8.0741      7.2422      6.5081    
  5.9520      5.5943      5.4071      5.3508      5.4075      5.5947      5.9522      6.5083      7.2428      8.0749    
  7.7738      8.3886      8.9025      9.2167      9.2165      8.9022      8.3887      7.7744      7.1096      6.4928    
  5.9976      5.6515      5.4445      5.3508      5.3507      5.4443      5.6514      5.9975      6.4925      7.1089    
  6.9376      7.4099      7.8165      8.0893      8.1847      8.0888      7.8164      7.4108      6.9389      6.4741    
  6.0737      5.7677      5.5611      5.4449      5.4076      5.4443      5.5605      5.7676      6.0736      6.4733    
  6.4598      6.7611      7.0468      7.2717      7.3956      7.3954      7.2714      7.0469      6.7615      6.4598    
  6.1793      5.9444      5.7675      5.6517      5.5950      5.5947      5.6512      5.7675      5.9450      6.1798    
  6.3113      6.4598      6.6120      6.7480      6.8436      6.8782      6.8435      6.7477      6.6116      6.4592    
  6.3104      6.1791      6.0732      5.9972      5.9520      5.9371      5.9521      5.9974      6.0738      6.1799    
  6.4595      6.4597      6.4777      6.5094      6.5440      6.5670      6.5672      6.5443      6.5092      6.4771    
  6.4594      6.4598      6.4739      6.4926      6.5077      6.5157      6.5160      6.5083      6.4926      6.4734    
  6.9375      6.7610      6.6123      6.5095      6.4529      6.4298      6.4249      6.4306      6.4535      6.5094    
  6.6121      6.7617      6.9389      7.1100      7.2427      7.3214      7.3469      7.3219      7.2427      7.1089    
  7.7740      7.4100      7.0470      6.7481      6.5439      6.4298      6.3827      6.3829      6.4302      6.5441    
  6.7482      7.0471      7.4104      7.7744      8.0750      8.3211      8.4798      8.4799      8.3212      8.0748    
  9.0477      8.3887      7.8164      7.2717      6.8435      6.5670      6.4250      6.3828      6.4244      6.5664    
  6.8435      7.2718      7.8159      8.3877      9.0467      9.8587      10.572      10.858      10.572      9.8590    
  11.989      10.173      8.9023      8.0892      7.3957      6.8782      6.5673      6.4305      6.4301      6.5665    
  6.8779      7.3959      8.0891      8.9015      10.172      11.989      13.855      15.044      15.044      13.855    
  17.635      14.140      11.122      9.2168      8.1849      7.3954      6.8434      6.5443      6.4535      6.5442    
  6.8435      7.3958      8.1853      9.2170      11.122      14.141      17.636      20.453      21.533      20.452    
  25.578      20.674      15.501      11.496      9.2166      8.0887      7.2713      6.7478      6.5093      6.5094    
  6.7482      7.2717      8.0891      9.2170      11.497      15.502      20.675      25.579      28.568      28.568    
  34.033      28.705      21.840      15.501      11.122      8.9020      7.8164      7.0471      6.6118      6.4769    
  6.6120      7.0472      7.8160      8.9016      11.122      15.502      21.840      28.704      34.033      36.043    
  40.535      36.095      28.705      20.675      14.141      10.173      8.3888      7.4109      6.7616      6.4590    
  6.4593      6.7619      7.4105      8.3876      10.172      14.141      20.675      28.704      36.094      40.534    
  22.979      21.765      18.593      14.633      11.176      8.9636      7.7963      6.9494      6.3582      6.0359    
  5.9374      6.0360      6.3583      6.9493      7.7961      8.9636      11.176      14.633      18.593      21.765    
  21.765      21.765      19.546      15.962      12.287      9.5622      8.0427      7.1095      6.4033      5.9679    
  5.7727      5.7725      5.9678      6.4035      7.1101      8.0433      9.5623      12.287      15.962      19.546    
  18.592      19.605      18.593      15.962      12.726      9.9629      8.2243      7.2144      6.4345      5.9079    