unknown system                          
   1.00000000000000     
     2.399900    0.000000    0.000000
    -1.199950    2.078374    0.000000
     0.000000    0.000000    4.307460
   Fe
     2
Direct
  0.000000  0.000000  0.000000
  0.333333  0.666667  0.500000
 
   20   20   36
 0.18067439180E+03 0.17064768073E+03 0.14382844947E+03 0.10819722609E+03 0.72561380378E+02
 0.43406940532E+02 0.23786432642E+02 0.13525542135E+02 0.98626077994E+01 0.87544747736E+01
 0.83868501101E+01 0.87551307113E+01 0.98631118785E+01 0.13525294007E+02 0.23785759882E+02
 0.43406634145E+02 0.72561711870E+02 0.10819772178E+03 0.14382860828E+03 0.17064757874E+03
 0.17065750546E+03 0.17064710400E+03 0.15226478067E+03 0.12126714932E+03 0.86147858187E+02
 0.54514031995E+02 0.31018444637E+02 0.17001591884E+02 0.10901522254E+02 0.91001674299E+01
 0.83849158326E+01 0.83838958792E+01 0.90990550055E+01 0.10902645209E+02 0.17003029496E+02
 0.31016814170E+02 0.54511853523E+02 0.86153845772E+02 0.12128586579E+03 0.15228758518E+03
 0.14384337041E+03 0.15225118039E+03 0.14382852220E+03 0.12126770886E+03 0.91202375133E+02
 0.61091806685E+02 0.36580658679E+02 0.20372682893E+02 0.12208457251E+02 0.94181593035E+01
 0.84195000495E+01 0.80788710722E+01 0.84170806247E+01 0.94174516629E+01 0.12210509364E+02
 0.20372711091E+02 0.36575380807E+02 0.61086837609E+02 0.91207473965E+02 0.12128380839E+03
 0.10819137041E+03 0.12120684715E+03 0.12120919993E+03 0.10819830688E+03 0.86147805511E+02
 0.61091353081E+02 0.38668383093E+02 0.22449729577E+02 0.13333387620E+02 0.97224544662E+01
 0.84768262162E+01 0.78674492810E+01 0.78667458109E+01 0.84759554766E+01 0.97232097831E+01
 0.13334960969E+02 0.22448705047E+02 0.38662213731E+02 0.61081204868E+02 0.86137567678E+02
 0.72541368192E+02 0.86048428722E+02 0.91076736866E+02 0.86064731898E+02 0.72561534000E+02
 0.54513120167E+02 0.36580702708E+02 0.22450031232E+02 0.13778500923E+02 0.99321511310E+01
 0.85308658321E+01 0.77471877421E+01 0.74924846489E+01 0.77479066719E+01 0.85312145307E+01
 0.99327854150E+01 0.13781726992E+02 0.22455056419E+02 0.36580962364E+02 0.54501926801E+02
 0.43404951572E+02 0.54438166226E+02 0.60960865072E+02 0.60966382354E+02 0.54447838443E+02
 0.43406418902E+02 0.31018320747E+02 0.20373341018E+02 0.13333324551E+02 0.99319958088E+01
 0.85531672363E+01 0.76966353473E+01 0.72856425447E+01 0.72866492150E+01 0.76974152984E+01
 0.85513639802E+01 0.99311028415E+01 0.13339629767E+02 0.20386377778E+02 0.31028423465E+02
 0.23800522004E+02 0.31009238794E+02 0.36524643606E+02 0.38587358139E+02 0.36519046809E+02
 0.30997782814E+02 0.23786103356E+02 0.17002091724E+02 0.12208528233E+02 0.97220519624E+01
 0.85309902856E+01 0.76966951543E+01 0.72206040212E+01 0.70730256445E+01 0.72220874697E+01
 0.76956279892E+01 0.85256329740E+01 0.97169631466E+01 0.12210509364E+02 0.17012851482E+02
 0.13524205814E+02 0.17031093042E+02 0.20402273728E+02 0.22462200844E+02 0.22455807901E+02
 0.20388567432E+02 0.17021376773E+02 0.13525551892E+02 0.10901788840E+02 0.94177117451E+01
 0.84768364916E+01 0.77474067390E+01 0.72854123291E+01 0.70729873180E+01 0.70740091016E+01
 0.72872435958E+01 0.77468184791E+01 0.84706922972E+01 0.94065557419E+01 0.10891630294E+02
 0.98465047482E+01 0.10927944169E+02 0.12271200662E+02 0.13412465914E+02 0.13858083356E+02
 0.13407871629E+02 0.12271118177E+02 0.10938640125E+02 0.98628283177E+01 0.90999621902E+01
 0.84192730237E+01 0.78678161855E+01 0.74923653214E+01 0.72865005219E+01 0.72224490298E+01
 0.72873251183E+01 0.74962211970E+01 0.78730971831E+01 0.84189256333E+01 0.90891282834E+01
 0.87542748937E+01 0.91307170674E+01 0.94841461131E+01 0.98216061790E+01 0.10051059013E+02
 0.10052902675E+02 0.98281199495E+01 0.94950285788E+01 0.91402564486E+01 0.87546788683E+01
 0.83846546655E+01 0.80791657582E+01 0.78669603678E+01 0.77476391141E+01 0.76976557075E+01
 0.76958085914E+01 0.77463319245E+01 0.78729448356E+01 0.80917110036E+01 0.83946784190E+01
 0.84016122317E+01 0.84384093158E+01 0.85048234567E+01 0.85918543286E+01 0.86714221789E+01
 0.87063120674E+01 0.86768572165E+01 0.85971172387E+01 0.85032697877E+01 0.84279504315E+01
 0.83868456271E+01 0.83838393818E+01 0.84174280151E+01 0.84757077649E+01 0.85309902856E+01
 0.85515251967E+01 0.85252842754E+01 0.84704343100E+01 0.84195000495E+01 0.83948830887E+01
 0.87536719941E+01 0.84382064439E+01 0.81810830920E+01 0.80054897266E+01 0.79127968592E+01
 0.78807941306E+01 0.78823806895E+01 0.79135302684E+01 0.79990889052E+01 0.81686528104E+01
 0.84287937451E+01 0.87547319064E+01 0.90991594106E+01 0.94174263319E+01 0.97227500064E+01
 0.99328756028E+01 0.99313483514E+01 0.97169058737E+01 0.94069779693E+01 0.90894379282E+01
 0.98460587466E+01 0.91304354760E+01 0.85053861735E+01 0.80056243899E+01 0.76701162884E+01
 0.74904975176E+01 0.74364542911E+01 0.74901014587E+01 0.76664563598E+01 0.79998916848E+01
 0.85050567189E+01 0.91411122663E+01 0.98628863951E+01 0.10902877033E+02 0.12210315165E+02
 0.13335007125E+02 0.13782295548E+02 0.13339738992E+02 0.12210244182E+02 0.10891595532E+02
 0.13524477819E+02 0.10928049197E+02 0.94845593200E+01 0.85920106430E+01 0.79123328207E+01
 0.74904801790E+01 0.72992946611E+01 0.72984336934E+01 0.74890371420E+01 0.79132687313E+01
 0.85981410213E+01 0.94952370778E+01 0.10937575809E+02 0.13525575768E+02 0.17003260776E+02
 0.20372722761E+02 0.22448966915E+02 0.22455016633E+02 0.20385731323E+02 0.17012582923E+02
 0.23801194763E+02 0.17031416218E+02 0.12270938962E+02 0.98214593115E+01 0.86710915062E+01
 0.78808312669E+01 0.74367897736E+01 0.72983280410E+01 0.74346673599E+01 0.78814802134E+01
 0.86768572165E+01 0.98273618284E+01 0.12269273169E+02 0.17020190884E+02 0.23786103356E+02
 0.31016735870E+02 0.36575121152E+02 0.38661934024E+02 0.36580658679E+02 0.31028469055E+02
 0.43405269790E+02 0.31009148190E+02 0.20401636533E+02 0.13412218233E+02 0.10051298156E+02
 0.87064690334E+01 0.78825997056E+01 0.74898737534E+01 0.74888267754E+01 0.78816620932E+01
 0.87080233436E+01 0.10052087750E+02 0.13406200887E+02 0.20389149982E+02 0.30999348821E+02
 0.43406430733E+02 0.54511449424E+02 0.61086672451E+02 0.61081493314E+02 0.54502434531E+02
 0.72541069631E+02 0.54437526937E+02 0.36524342411E+02 0.22462384023E+02 0.13858631625E+02
 0.10052968898E+02 0.86766401314E+01 0.79133971374E+01 0.76663545944E+01 0.79135996388E+01
 0.86769708041E+01 0.10051914831E+02 0.13854379740E+02 0.22456896094E+02 0.36524595434E+02
 0.54449521017E+02 0.72561566932E+02 0.86154156884E+02 0.91207923759E+02 0.86137931465E+02
 0.10819090207E+03 0.86047979517E+02 0.60961149067E+02 0.38588007825E+02 0.22456060009E+02
 0.13407564961E+02 0.98276856293E+01 0.85972703406E+01 0.79993003756E+01 0.79999684919E+01
 0.85981378088E+01 0.98270743756E+01 0.13406141900E+02 0.22456965023E+02 0.38593786889E+02
 0.60971023794E+02 0.86058407884E+02 0.10819833424E+03 0.12128601699E+03 0.12128340006E+03
 0.14384321159E+03 0.12120732576E+03 0.91077187389E+02 0.60966775671E+02 0.36518793786E+02
 0.20388015172E+02 0.12270938962E+02 0.94954456222E+01 0.85035992423E+01 0.81683296936E+01
 0.85048234567E+01 0.94952409143E+01 0.12269355654E+02 0.20389234916E+02 0.36524643606E+02
 0.60971133117E+02 0.91071155310E+02 0.12119089794E+03 0.14382852220E+03 0.15228665801E+03
 0.17065759381E+03 0.15225227567E+03 0.12120936329E+03 0.86064216618E+02 0.54447440023E+02
 0.30997564361E+02 0.17021600828E+02 0.10939026601E+02 0.91403485628E+01 0.84274905775E+01
 0.84285367631E+01 0.91414859718E+01 0.10937857255E+02 0.17020091763E+02 0.30999220971E+02
 0.54449761886E+02 0.86058341809E+02 0.12119058269E+03 0.15222928319E+03 0.17064709037E+03
 0.17064873361E+03 0.16118841027E+03 0.13586306772E+03 0.10217628686E+03 0.68466862035E+02
 0.40935110887E+02 0.22516266720E+02 0.13003954237E+02 0.96643072007E+01 0.86024553137E+01
 0.82460559569E+01 0.86030882175E+01 0.96647930945E+01 0.13003713528E+02 0.22515615824E+02
 0.40934813796E+02 0.68467181255E+02 0.10217676527E+03 0.13586322138E+03 0.16118831216E+03
 0.16119744307E+03 0.16118785133E+03 0.14383048242E+03 0.11453146578E+03 0.81308167933E+02
 0.51400485129E+02 0.29273126374E+02 0.16195681476E+02 0.10598879300E+02 0.89326931387E+01
 0.82386635862E+01 0.82376885144E+01 0.89316280631E+01 0.10599977676E+02 0.16197175696E+02
 0.29271780693E+02 0.51398517822E+02 0.81313628894E+02 0.11454865576E+03 0.14385148739E+03
 0.13587680639E+03 0.14382193645E+03 0.13586313732E+03 0.11453200770E+03 0.86086452002E+02
 0.57606559084E+02 0.34488017763E+02 0.19312608486E+02 0.11776178467E+02 0.92326696807E+01
 0.82677723175E+01 0.79390129720E+01 0.82654492758E+01 0.92319619798E+01 0.11778148649E+02
 0.19312789848E+02 0.34483243915E+02 0.57601942525E+02 0.86091054028E+02 0.11454678077E+03
 0.10217095267E+03 0.11448652124E+03 0.11448868336E+03 0.10217733361E+03 0.81308118175E+02
 0.57606120135E+02 0.36448380934E+02 0.21240394934E+02 0.12796114820E+02 0.95046752457E+01
 0.83201050794E+01 0.77326330258E+01 0.77319653700E+01 0.83192512750E+01 0.95053034767E+01
 0.12797495861E+02 0.21239391780E+02 0.36442654183E+02 0.57596749218E+02 0.81298685381E+02
 0.68448529361E+02 0.81234082352E+02 0.85994752642E+02 0.81249052954E+02 0.68467011937E+02
 0.51399602749E+02 0.34488058989E+02 0.21240686558E+02 0.13201141381E+02 0.96898066494E+01
 0.83704637273E+01 0.76153481658E+01 0.73710950124E+01 0.76160680551E+01 0.83707997837E+01
 0.96902895756E+01 0.13203945415E+02 0.21245204379E+02 0.34488310802E+02 0.51389386909E+02
 0.40933327696E+02 0.51352821515E+02 0.57521530034E+02 0.57526612030E+02 0.51361706935E+02
 0.40934606024E+02 0.29273005319E+02 0.19313244988E+02 0.12796055553E+02 0.96896569295E+01
 0.83913817391E+01 0.75660103810E+01 0.71723352175E+01 0.71733220132E+01 0.75668438244E+01
 0.83897777003E+01 0.96888034761E+01 0.12801822361E+02 0.19325281853E+02 0.29282397706E+02
 0.22529200830E+02 0.29288020845E+02 0.34477861610E+02 0.36421968939E+02 0.34472777773E+02
 0.29277550217E+02 0.22515948280E+02 0.16196165497E+02 0.11776248661E+02 0.95042865044E+01
 0.83705820298E+01 0.75660673606E+01 0.71099417021E+01 0.69689512628E+01 0.71113613439E+01
 0.75651653273E+01 0.83657328966E+01 0.94996832753E+01 0.11778148649E+02 0.16206114211E+02
 0.13002648355E+02 0.16244226229E+02 0.19380568539E+02 0.21303990399E+02 0.21298135741E+02
 0.19368035127E+02 0.16235389443E+02 0.13003964593E+02 0.10599136950E+02 0.92322359620E+01
 0.83201129777E+01 0.76155587701E+01 0.71721143685E+01 0.69689150844E+01 0.69698240388E+01
 0.71737429392E+01 0.76150028816E+01 0.83145038496E+01 0.92220212475E+01 0.10589781589E+02
 0.96494399596E+01 0.10641217667E+02 0.11869606985E+02 0.12917485257E+02 0.13327682916E+02
 0.12913230311E+02 0.11869527089E+02 0.10651105822E+02 0.96645191038E+01 0.89324926807E+01
 0.82675525747E+01 0.77329885685E+01 0.73709815937E+01 0.71731795420E+01 0.71117098304E+01
 0.71738213170E+01 0.73743937711E+01 0.77377779690E+01 0.82672174042E+01 0.89224971497E+01
 0.86022731587E+01 0.89760849853E+01 0.93234458831E+01 0.96378505453E+01 0.98477800376E+01
 0.98494235196E+01 0.96437317539E+01 0.93333740413E+01 0.89848398420E+01 0.86026516203E+01
 0.82384124371E+01 0.79393004929E+01 0.77321735097E+01 0.76158088849E+01 0.75670748169E+01
 0.75653393403E+01 0.76145331070E+01 0.77376305660E+01 0.79508339366E+01 0.82476344867E+01
 0.82596409635E+01 0.83017491721E+01 0.83726685467E+01 0.84623058793E+01 0.85425678380E+01
 0.85772518680E+01 0.85474954183E+01 0.84670545927E+01 0.83711811143E+01 0.82921148632E+01
 0.82460530241E+01 0.82376357396E+01 0.82657844464E+01 0.83190094428E+01 0.83705820298E+01
 0.83899340009E+01 0.83653968402E+01 0.83142541192E+01 0.82677723175E+01 0.82478328610E+01
 0.86016905144E+01 0.83015523072E+01 0.80581650696E+01 0.78927324635E+01 0.78058061726E+01
 0.77759490406E+01 0.77774332902E+01 0.78065279799E+01 0.78868716383E+01 0.80467395603E+01
 0.82929180238E+01 0.86027018798E+01 0.89317278814E+01 0.92319355878E+01 0.95048589061E+01
 0.96903782296E+01 0.96890418501E+01 0.94996274461E+01 0.92224285742E+01 0.89227974259E+01
 0.96490093720E+01 0.89758114496E+01 0.83732123857E+01 0.78928634066E+01 0.75707299922E+01
 0.73981874224E+01 0.73462583983E+01 0.73979565592E+01 0.75675038235E+01 0.78876364376E+01
 0.83728939364E+01 0.89856549008E+01 0.96645744101E+01 0.10600202124E+02 0.11777961483E+02
 0.12797541653E+02 0.13204495446E+02 0.12801927419E+02 0.11777891289E+02 0.10589748386E+02
 0.13002912149E+02 0.10641318761E+02 0.93238449817E+01 0.84624583954E+01 0.78053579984E+01
 0.73981702391E+01 0.72136061274E+01 0.72128509792E+01 0.73969144709E+01 0.78062506909E+01
 0.84680583197E+01 0.93336010708E+01 0.10650063734E+02 0.13003987678E+02 0.16197399983E+02
 0.19312800977E+02 0.21239644469E+02 0.21245165444E+02 0.19324656480E+02 0.16205854477E+02
 0.22529851726E+02 0.16244539091E+02 0.11869353464E+02 0.96377091646E+01 0.85422485925E+01
 0.77759840460E+01 0.73465820842E+01 0.72127487226E+01 0.73445455763E+01 0.77764838074E+01
 0.85474954183E+01 0.96431013786E+01 0.11867758960E+02 0.16234139586E+02 0.22515948280E+02
 0.29271703903E+02 0.34482992102E+02 0.36442383652E+02 0.34488017763E+02 0.29282441971E+02
 0.40933635043E+02 0.29287933279E+02 0.19379952071E+02 0.12917245462E+02 0.98480113748E+01
 0.85774028984E+01 0.77776445729E+01 0.73977364839E+01 0.73967115789E+01 0.77766600848E+01
 0.85787660728E+01 0.98487627349E+01 0.12911754467E+02 0.19368445797E+02 0.29278833663E+02
 0.40934616280E+02 0.51398126905E+02 0.57601783379E+02 0.57597029022E+02 0.51389878372E+02
 0.68448239859E+02 0.51352202649E+02 0.34477570355E+02 0.21304167314E+02 0.13328213015E+02
 0.98494872183E+01 0.85472857616E+01 0.78064000867E+01 0.75674056451E+01 0.78065709719E+01
 0.85476050072E+01 0.98485950964E+01 0.13324413875E+02 0.21299200914E+02 0.34477814942E+02
 0.51363193034E+02 0.68467041655E+02 0.81313930774E+02 0.86091489171E+02 0.81299037020E+02
 0.10217049919E+03 0.81233647768E+02 0.57521805091E+02 0.36422597623E+02 0.21298379647E+02
 0.12912933638E+02 0.96433121481E+01 0.84672039740E+01 0.78870757396E+01 0.78877095959E+01
 0.84680551849E+01 0.96428231534E+01 0.12911697590E+02 0.21299267906E+02 0.36427949003E+02
 0.57530913598E+02 0.81243265287E+02 0.10217735854E+03 0.11454880127E+03 0.11454638436E+03
 0.13587665273E+03 0.11448698555E+03 0.85995189185E+02 0.57526992683E+02 0.34472533186E+02
 0.19367500969E+02 0.11869353464E+02 0.93337781520E+01 0.83714995636E+01 0.80464250117E+01
 0.83726685467E+01 0.93336060829E+01 0.11867838857E+02 0.19368528107E+02 0.34477861610E+02
 0.57531019193E+02 0.85989685755E+02 0.11447189551E+03 0.13586313732E+03 0.14385058859E+03
 0.16119752868E+03 0.14382299807E+03 0.11448884239E+03 0.81248553850E+02 0.51361321064E+02
 0.29277339020E+02 0.16235605359E+02 0.10651479265E+02 0.89849298649E+01 0.82916690927E+01
 0.82926691182E+01 0.89860184593E+01 0.10650336082E+02 0.16234042640E+02 0.29278710033E+02
 0.51363426029E+02 0.81243200767E+02 0.11447159023E+03 0.14380181213E+03 0.16118783884E+03
 0.14383104495E+03 0.13586478468E+03 0.11449615144E+03 0.85999402143E+02 0.57482013842E+02
 0.34356017461E+02 0.19195004205E+02 0.11675298446E+02 0.91430235277E+01 0.81879456322E+01
 0.78645889443E+01 0.81885127892E+01 0.91434568614E+01 0.11675077720E+02 0.19194415369E+02
 0.34355748616E+02 0.57482301022E+02 0.85999833319E+02 0.11449629044E+03 0.13586469682E+03
 0.13587174790E+03 0.13586427651E+03 0.12121889138E+03 0.96441165896E+02 0.68309412695E+02
 0.43077617841E+02 0.24667390868E+02 0.14117096806E+02 0.98268146118E+01 0.84707024336E+01
 0.78393104344E+01 0.78384606196E+01 0.84697693933E+01 0.98278319292E+01 0.14118697286E+02
 0.24666751559E+02 0.43076192007E+02 0.68313507871E+02 0.96454374545E+02 0.12123518966E+03
 0.11450679714E+03 0.12122386231E+03 0.11449621222E+03 0.96441657664E+02 0.72342889597E+02
 0.48274412736E+02 0.28940020217E+02 0.16555338942E+02 0.10675195624E+02 0.87286703562E+01
 0.78507537806E+01 0.75559756202E+01 0.78487049003E+01 0.87279757957E+01 0.10676933427E+02
 0.16555885148E+02 0.28936543929E+02 0.48270725849E+02 0.72346211582E+02 0.96452971587E+02
 0.85995421044E+02 0.96437047961E+02 0.96438713236E+02 0.86000352023E+02 0.68309371216E+02
 0.48274015384E+02 0.30554434091E+02 0.18082251539E+02 0.11423095593E+02 0.89316185674E+01
 0.78870277904E+01 0.73618593815E+01 0.73612913760E+01 0.78862333801E+01 0.89319327162E+01
 0.11423990886E+02 0.18081319127E+02 0.30549876637E+02 0.48266684080E+02 0.68302044510E+02
 0.57468055135E+02 0.68302521989E+02 0.72341252415E+02 0.68314015519E+02 0.57482153036E+02
 0.43076819022E+02 0.28940053392E+02 0.18082514710E+02 0.11723404114E+02 0.90595661888E+01
 0.79255548721E+01 0.72512657190E+01 0.70360468592E+01 0.72519754309E+01 0.79258552634E+01
 0.90596771491E+01 0.11725143100E+02 0.18085731402E+02 0.28940283119E+02 0.43069140922E+02
 0.34354760201E+02 0.43104901254E+02 0.48311353080E+02 0.48315295130E+02 0.43111731612E+02
 0.34355560132E+02 0.24667277813E+02 0.16555914065E+02 0.11423047107E+02 0.90594323167E+01
 0.79420293309E+01 0.72043624343E+01 0.68583848312E+01 0.68593040020E+01 0.72053053485E+01
 0.79409305240E+01 0.90586887338E+01 0.11427414746E+02 0.16565327606E+02 0.24674791060E+02
 0.19204922066E+02 0.24747188412E+02 0.29052800746E+02 0.30674257814E+02 0.29049042488E+02
 0.24739278226E+02 0.19194716611E+02 0.14117535892E+02 0.10675263564E+02 0.89312688628E+01
 0.79256559806E+01 0.72044115216E+01 0.68028247910E+01 0.66796647617E+01 0.68040622742E+01
 0.72039199343E+01 0.79221160728E+01 0.89279174401E+01 0.10676933427E+02 0.14125351372E+02
 0.11674089035E+02 0.14218670110E+02 0.16728920079E+02 0.18285916809E+02 0.18281463003E+02
 0.16719435084E+02 0.14212109390E+02 0.11675310510E+02 0.98270469092E+01 0.87282760743E+01
 0.78870292136E+01 0.72514526920E+01 0.68581902299E+01 0.66796345285E+01 0.66802564473E+01
 0.68593037327E+01 0.72509867464E+01 0.78828097896E+01 0.87205104367E+01 0.98197921591E+01
 0.91314010354E+01 0.99158394018E+01 0.10857631115E+02 0.11666252112E+02 0.11984811087E+02
 0.11662891395E+02 0.10857558567E+02 0.99236028744E+01 0.91432110919E+01 0.84705157873E+01
 0.78505547393E+01 0.73621825893E+01 0.70359498718E+01 0.68591789144E+01 0.68043739200E+01
 0.68593732465E+01 0.70382369208E+01 0.73657036511E+01 0.78502540293E+01 0.84627183076E+01
 0.81878114377E+01 0.85544103686E+01 0.88968761217E+01 0.91709031609E+01 0.93394017300E+01
 0.93405350097E+01 0.91751578550E+01 0.89043283307E+01 0.85611168632E+01 0.81881198813E+01
 0.78390874394E+01 0.75562424309E+01 0.73614812378E+01 0.72517400250E+01 0.72055098720E+01
 0.72040753706E+01 0.72505643674E+01 0.73655703050E+01 0.75651310152E+01 0.78462130568E+01
 0.78750956412E+01 0.79350795424E+01 0.80220358441E+01 0.81224776113E+01 0.82074529749E+01
 0.82426696691E+01 0.82110706210E+01 0.81259040833E+01 0.80207362397E+01 0.79276048932E+01
 0.78645900062E+01 0.78384181005E+01 0.78490056103E+01 0.78860085164E+01 0.79256559806E+01
 0.79410729284E+01 0.79218156815E+01 0.78825835027E+01 0.78507537806E+01 0.78463935328E+01
 0.81872862812E+01 0.79348997547E+01 0.77355793771E+01 0.76047364093E+01 0.75395338611E+01
 0.75190929240E+01 0.75203030090E+01 0.75402129287E+01 0.76002812286E+01 0.77267805060E+01
 0.79282962569E+01 0.81881618819E+01 0.84698564363E+01 0.87279467407E+01 0.89315312149E+01
 0.90597613810E+01 0.90589068379E+01 0.89278656433E+01 0.87208756637E+01 0.84629919970E+01
 0.91310141675E+01 0.85541596798E+01 0.80225258946E+01 0.76048567533E+01 0.73281622199E+01
 0.71814777062E+01 0.71377335068E+01 0.71816474326E+01 0.73260369761E+01 0.76009405796E+01
 0.80222389030E+01 0.85618182148E+01 0.91432575576E+01 0.98280355937E+01 0.10676766228E+02
 0.11424035522E+02 0.11725640642E+02 0.11427507868E+02 0.10676698287E+02 0.98197635261E+01
 0.11674329473E+02 0.99159291887E+01 0.88972350011E+01 0.81226193164E+01 0.75391309621E+01
 0.71814609556E+01 0.70203815087E+01 0.70198946395E+01 0.71806784595E+01 0.75399033065E+01
 0.81268410437E+01 0.89045959523E+01 0.99226339013E+01 0.11675330221E+02 0.14118901864E+02
 0.16555894623E+02 0.18081545737E+02 0.18085694841E+02 0.16564761959E+02 0.14125116864E+02
 0.19205510902E+02 0.14218953530E+02 0.10857400850E+02 0.91707774255E+01 0.82071663642E+01
 0.75191218575E+01 0.71380235036E+01 0.70198021357E+01 0.71362308435E+01 0.75192540579E+01
 0.82110706210E+01 0.91748461036E+01 0.10856009438E+02 0.14210731105E+02 0.19194716611E+02
 0.24666678998E+02 0.28936314201E+02 0.30549632216E+02 0.28940020217E+02 0.24674831554E+02
 0.34355036745E+02 0.24747109507E+02 0.16728362614E+02 0.11666034818E+02 0.93396108586E+01
 0.82428038337E+01 0.75204921741E+01 0.71814492123E+01 0.71804969898E+01 0.75194142895E+01
 0.82436823983E+01 0.93402556448E+01 0.11661910679E+02 0.16719427116E+02 0.24739861943E+02
 0.34355567831E+02 0.43075838306E+02 0.48270583825E+02 0.48266939409E+02 0.43069586038E+02
 0.57467791431E+02 0.43104340607E+02 0.29052537750E+02 0.18286075934E+02 0.11985289411E+02
 0.93405915750E+01 0.82108820782E+01 0.75400999353E+01 0.73259491692E+01 0.75401932120E+01
 0.82111686889E+01 0.93401030815E+01 0.11982644502E+02 0.18282451687E+02 0.29052758202E+02
 0.43112720027E+02 0.57482176513E+02 0.68313783491E+02 0.72346605311E+02 0.68302361610E+02
 0.85995009797E+02 0.68302129014E+02 0.48311602593E+02 0.30674826704E+02 0.18281683588E+02
 0.11662623189E+02 0.91747801711E+01 0.81260426890E+01 0.76004644075E+01 0.76010034145E+01
 0.81268379443E+01 0.91745941551E+01 0.11661859767E+02 0.18282513148E+02 0.30679047159E+02
 0.48318699060E+02 0.68309623173E+02 0.86000371953E+02 0.96454504053E+02 0.96452609328E+02
 0.11450665813E+03 0.96437471366E+02 0.72341648987E+02 0.48315639677E+02 0.29048822036E+02
 0.16718952468E+02 0.10857400850E+02 0.89046954576E+01 0.80210232314E+01 0.77264905966E+01
 0.80220358441E+01 0.89046041997E+01 0.10856081986E+02 0.16719501965E+02 0.29052800746E+02
 0.48318794094E+02 0.72337513225E+02 0.96425871532E+02 0.11449621222E+03 0.12123437190E+03
 0.13587182571E+03 0.12122482784E+03 0.96438859768E+02 0.68313562387E+02 0.43111381634E+02
 0.24739087764E+02 0.14212302103E+02 0.99239391888E+01 0.85612007068E+01 0.79271993768E+01
 0.79280705282E+01 0.85621527471E+01 0.99228804287E+01 0.14210640399E+02 0.24739750386E+02
 0.43112930696E+02 0.68309563016E+02 0.96425594659E+02 0.12120836724E+03 0.13586426646E+03
 0.10817318488E+03 0.10215358347E+03 0.85980295921E+02 0.64395228940E+02 0.42905064827E+02
 0.25798174506E+02 0.15044034439E+02 0.10094954223E+02 0.84384465034E+01 0.76152297246E+01
 0.73433027397E+01 0.76156992617E+01 0.84388008459E+01 0.10094761668E+02 0.15043538172E+02
 0.25797951681E+02 0.42905310397E+02 0.64395593833E+02 0.85980413073E+02 0.10215350910E+03
 0.10215795063E+03 0.10215315175E+03 0.91062144353E+02 0.72275865959E+02 0.50995712218E+02
 0.32138179376E+02 0.18793158173E+02 0.11592057717E+02 0.88828044674E+01 0.78204806650E+01
 0.72872949501E+01 0.72866251086E+01 0.78197375096E+01 0.88836734825E+01 0.11593674565E+02
 0.18793298702E+02 0.32137404023E+02 0.50998123557E+02 0.72284101576E+02 0.91072526142E+02
 0.85987052127E+02 0.91084988247E+02 0.85980343798E+02 0.72276282595E+02 0.54020480105E+02
 0.35955737539E+02 0.21788786536E+02 0.13147657767E+02 0.93577427444E+01 0.80137641214E+01
 0.72677037228E+01 0.70237281014E+01 0.72660610919E+01 0.80131226691E+01 0.93591366795E+01
 0.13148561526E+02 0.21786883231E+02 0.35953241623E+02 0.54022248587E+02 0.72283277990E+02
 0.64392917077E+02 0.72325044060E+02 0.72326089801E+02 0.64396033740E+02 0.50995683055E+02
 0.35955402209E+02 0.22932540142E+02 0.14145554137E+02 0.97780688381E+01 0.81614449031E+01
 0.72753475586E+01 0.68422957219E+01 0.68418688794E+01 0.72746682921E+01 0.81614141835E+01
 0.97784015945E+01 0.14144752629E+02 0.22929485495E+02 0.35950653263E+02 0.50991005273E+02
 0.42896549816E+02 0.51076016620E+02 0.54135944988E+02 0.51083163634E+02 0.42905187677E+02
 0.32137505105E+02 0.21788807450E+02 0.14145774938E+02 0.99495182570E+01 0.82407546968E+01
 0.72926887913E+01 0.67367798219E+01 0.65627552934E+01 0.67374406004E+01 0.72929366545E+01
 0.82404655179E+01 0.99500281930E+01 0.14147429385E+02 0.21789004758E+02 0.32132962495E+02
 0.25797543903E+02 0.32263064511E+02 0.36151451198E+02 0.36153956612E+02 0.32267320303E+02
 0.25797787833E+02 0.18793056950E+02 0.13148141417E+02 0.97780363421E+01 0.82406442926E+01
 0.73012101383E+01 0.66906893528E+01 0.64112477800E+01 0.64120388427E+01 0.66916862183E+01
 0.73007035497E+01 0.82400577398E+01 0.97806705720E+01 0.13154234419E+02 0.18798148008E+02
 0.15050177226E+02 0.18959356175E+02 0.22063949991E+02 0.23245129445E+02 0.22061812235E+02
 0.18954616378E+02 0.15043793100E+02 0.11592429651E+02 0.93578072243E+01 0.81611532942E+01
 0.72927650343E+01 0.66907270754E+01 0.63639501192E+01 0.62648158228E+01 0.63649171654E+01
 0.66906926287E+01 0.72908151273E+01 0.81593232394E+01 0.93591366795E+01 0.11597530281E+02
 0.10093914123E+02 0.11767849849E+02 0.13466474579E+02 0.14540359961E+02 0.14537646866E+02
 0.13460766361E+02 0.11764080927E+02 0.10094968779E+02 0.88829990196E+01 0.80134290566E+01
 0.72753401464E+01 0.67369321344E+01 0.64110913259E+01 0.62647939902E+01 0.62650775561E+01
 0.64115990760E+01 0.67365930556E+01 0.72728390813E+01 0.80087050990E+01 0.88783844097E+01
 0.84309372192E+01 0.90417004825E+01 0.96713892511E+01 0.10198858153E+02 0.10406852281E+02
 0.10196640118E+02 0.96713276749E+01 0.90467603111E+01 0.84385981265E+01 0.78203153324E+01
 0.72675356336E+01 0.68425704752E+01 0.65626817955E+01 0.64119388706E+01 0.63651746918E+01
 0.64116555581E+01 0.65636522481E+01 0.68445456349E+01 0.72672856644E+01 0.78152959817E+01
 0.76151600899E+01 0.79690257440E+01 0.83057835713E+01 0.85698354208E+01 0.87145457419E+01
 0.87150754425E+01 0.85721247466E+01 0.83101809416E+01 0.79731684374E+01 0.76153712479E+01
 0.72871131236E+01 0.70239629466E+01 0.68420313035E+01 0.67372405074E+01 0.66918520587E+01
 0.66908207464E+01 0.67362406502E+01 0.68444333057E+01 0.70295323880E+01 0.72916058083E+01
 0.73499417939E+01 0.74397645203E+01 0.75532088337E+01 0.76721869969E+01 0.77662629040E+01
 0.78032599960E+01 0.77682834143E+01 0.76740159277E+01 0.75521866408E+01 0.74350126248E+01
 0.73433086264E+01 0.72865969869E+01 0.72663110610E+01 0.72744695666E+01 0.72927650343E+01
 0.73008253953E+01 0.72905672641E+01 0.72726477680E+01 0.72677037228E+01 0.72917595130E+01
 0.76147206109E+01 0.74396102810E+01 0.73116631562E+01 0.72382046037E+01 0.72108231374E+01
 0.72079108547E+01 0.72087579577E+01 0.72114137389E+01 0.72354970535E+01 0.73061615562E+01
 0.74355447735E+01 0.76154013059E+01 0.78198062187E+01 0.80130906255E+01 0.81610765964E+01
 0.82405429569E+01 0.82402455830E+01 0.81592772612E+01 0.80090081202E+01 0.78155300233E+01
 0.84306154407E+01 0.79688091182E+01 0.75536181467E+01 0.72383090212E+01 0.70374239160E+01
 0.69354797850E+01 0.69062749877E+01 0.69360634960E+01 0.70365867577E+01 0.72360061672E+01
 0.75533786493E+01 0.79737076092E+01 0.84386306906E+01 0.88838465644E+01 0.93589992328E+01
 0.97784441201E+01 0.99504477757E+01 0.97807455937E+01 0.93589347529E+01 0.88783629394E+01
 0.10094119617E+02 0.90417730193E+01 0.83060820438E+01 0.76723124591E+01 0.72104884175E+01
 0.69354636591E+01 0.68145417011E+01 0.68143679017E+01 0.69352288897E+01 0.72110882463E+01
 0.76748274990E+01 0.83104763761E+01 0.90459257048E+01 0.10094981717E+02 0.11593850069E+02
 0.13148568245E+02 0.14144940332E+02 0.14147396286E+02 0.13153757488E+02 0.11597333851E+02
 0.15050673493E+02 0.11768088902E+02 0.96711938140E+01 0.85697331966E+01 0.77660255051E+01
 0.72079306539E+01 0.69065141791E+01 0.68142902622E+01 0.69050829793E+01 0.72076656765E+01
 0.77682834143E+01 0.85721687423E+01 0.96701031024E+01 0.11762650215E+02 0.15043793100E+02
 0.18793232339E+02 0.21786685923E+02 0.22929280219E+02 0.21788786536E+02 0.18798182868E+02
 0.25797774665E+02 0.18959290299E+02 0.13466005570E+02 0.10198674750E+02 0.87147215902E+01
 0.78033689613E+01 0.72089136628E+01 0.69358984239E+01 0.69350799435E+01 0.72078015824E+01
 0.78036828725E+01 0.87152147727E+01 0.10196240277E+02 0.13460318658E+02 0.18954430408E+02
 0.25797795770E+02 0.32137105264E+02 0.35953125295E+02 0.35950872266E+02 0.32133338006E+02
 0.42896324827E+02 0.32262591338E+02 0.22063729272E+02 0.14540492536E+02 0.10407252875E+02
 0.87151214317E+01 0.77681264512E+01 0.72113230238E+01 0.70365149784E+01 0.72113322511E+01
 0.77683638500E+01 0.87150849137E+01 0.10405975908E+02 0.14538494411E+02 0.22063913181E+02
 0.32267728081E+02 0.42905208258E+02 0.50998359811E+02 0.54022581051E+02 0.50991270690E+02
 0.64392568969E+02 0.51075685990E+02 0.36151662127E+02 0.23245608676E+02 0.14537832564E+02
 0.10196414620E+02 0.85718100011E+01 0.76741378247E+01 0.72356490493E+01 0.72360537456E+01
 0.76748239338E+01 0.85719562209E+01 0.10196198182E+02 0.14538547534E+02 0.23248375229E+02
 0.36156208805E+02 0.51080503662E+02 0.64396050524E+02 0.72284207682E+02 0.72282967458E+02
 0.85986934975E+02 0.72325405644E+02 0.54136281167E+02 0.36154246879E+02 0.22061628326E+02
 0.13460361005E+02 0.96711938140E+01 0.83104921616E+01 0.75524261382E+01 0.73059093185E+01
 0.75532088337E+01 0.83104891236E+01 0.96701646785E+01 0.13460382310E+02 0.22063949991E+02
 0.36156288144E+02 0.54133823461E+02 0.72318168321E+02 0.85980343798E+02 0.91071830604E+02
 0.10215801673E+03 0.91085809013E+02 0.72326217113E+02 0.51082779217E+02 0.32267024593E+02
 0.18954457202E+02 0.11764238814E+02 0.90470408811E+01 0.79732423738E+01 0.74346679117E+01
 0.74353542997E+01 0.79739981713E+01 0.90461337381E+01 0.11762569049E+02 0.18954337108E+02
 0.32267905545E+02 0.51080449876E+02 0.72317934049E+02 0.91075289877E+02 0.10215314348E+03
 0.72410598421E+02 0.68326299227E+02 0.57368151333E+02 0.42833796016E+02 0.28618545240E+02
 0.17743005571E+02 0.11401895045E+02 0.87666192500E+01 0.76623829775E+01 0.70060408337E+01
 0.67958219418E+01 0.70063981141E+01 0.76626466345E+01 0.87664601651E+01 0.11401508287E+02
 0.17742840650E+02 0.28618747861E+02 0.42834087005E+02 0.57368242634E+02 0.68326238770E+02
 0.68328349722E+02 0.68325959161E+02 0.60795203246E+02 0.48088791478E+02 0.33870307099E+02
 0.21631010457E+02 0.13458553415E+02 0.94606552295E+01 0.79673201425E+01 0.71158307244E+01