   2   2   0   0
  0.1074257E+02  0.2399900E-09  0.2399900E-09  0.4307460E-09  0.5000000E-15
  1.000000000000000E-004
  CAR 
 unknown system                          
     70.12467778     -5.72412593  301      6.31942021      1.00000000
     -5.724  0.0000E+00  0.0000E+00
     -5.471  0.0000E+00  0.0000E+00
     -5.218  0.0000E+00  0.0000E+00
     -4.966  0.0000E+00  0.0000E+00
     -4.713  0.0000E+00  0.0000E+00
     -4.460  0.0000E+00  0.0000E+00
     -4.207  0.0000E+00  0.0000E+00
     -3.954 -0.3834E-32 -0.9694E-33
     -3.701 -0.1079E-23 -0.2727E-24
     -3.449 -0.1180E-16 -0.2984E-17
     -3.196 -0.5195E-11 -0.1313E-11
     -2.943 -0.8938E-07 -0.2260E-07
     -2.690 -0.5584E-04 -0.1414E-04
     -2.437 -0.4278E-03 -0.1223E-03
     -2.185  0.8817E-02  0.2107E-02
     -1.932  0.5845E-01  0.1688E-01
     -1.679  0.1070E+00  0.4393E-01
     -1.426  0.6171E-01  0.5953E-01
     -1.173  0.1603E+00  0.1001E+00
     -0.920  0.1882E+00  0.1477E+00
     -0.668  0.1966E+00  0.1974E+00
     -0.415  0.8874E-01  0.2198E+00
     -0.162  0.2623E+00  0.2861E+00
      0.091  0.2942E+00  0.3605E+00
      0.344  0.3316E+00  0.4443E+00
      0.597  0.2909E+00  0.5179E+00
      0.849  0.2440E+00  0.5796E+00
      1.102  0.4154E+00  0.6846E+00
      1.355  0.6859E+00  0.8580E+00
      1.608  0.8451E+00  0.1072E+01
      1.861  0.1259E+01  0.1390E+01
      2.114  0.1995E+01  0.1894E+01
      2.366  0.2753E+01  0.2590E+01
      2.619  0.2282E+01  0.3167E+01
      2.872  0.3043E+01  0.3937E+01
      3.125  0.2491E+01  0.4567E+01
      3.378  0.3402E+01  0.5427E+01
      3.631  0.3381E+01  0.6282E+01
      3.883  0.3394E+01  0.7140E+01
      4.136  0.2578E+01  0.7792E+01
      4.389  0.2880E+01  0.8520E+01
      4.642  0.4459E+01  0.9647E+01
      4.895  0.4023E+01  0.1066E+02
      5.148  0.4045E+01  0.1169E+02
      5.400  0.3583E+01  0.1259E+02
      5.653  0.3973E+01  0.1360E+02
      5.906  0.3603E+01  0.1451E+02
      6.159  0.3764E+01  0.1546E+02
      6.412  0.3264E+01  0.1629E+02
      6.665  0.3668E+01  0.1721E+02
      6.917  0.5201E+01  0.1853E+02
      7.170  0.5035E+01  0.1980E+02
      7.423  0.4399E+01  0.2091E+02
      7.676  0.1335E+01  0.2125E+02
      7.929  0.3024E+00  0.2133E+02
      8.181  0.5882E+00  0.2148E+02
      8.434  0.8024E+00  0.2168E+02
      8.687  0.8959E+00  0.2190E+02
      8.940  0.5942E+00  0.2205E+02
      9.193  0.4106E+00  0.2216E+02
      9.446  0.4250E+00  0.2227E+02
      9.698  0.4926E+00  0.2239E+02
      9.951  0.4265E+00  0.2250E+02
     10.204  0.6555E+00  0.2266E+02
     10.457  0.5645E+00  0.2281E+02
     10.710  0.4446E+00  0.2292E+02
     10.963  0.5001E+00  0.2305E+02
     11.215  0.5042E+00  0.2317E+02
     11.468  0.1569E+00  0.2321E+02
     11.721  0.3918E+00  0.2331E+02
     11.974  0.3593E+00  0.2340E+02
     12.227  0.4703E+00  0.2352E+02
     12.480  0.2087E+00  0.2357E+02
     12.732  0.3259E+00  0.2366E+02
     12.985  0.5785E+00  0.2380E+02
     13.238  0.5814E+00  0.2395E+02
     13.491  0.3242E+00  0.2403E+02
     13.744  0.1931E+00  0.2408E+02
     13.997  0.2246E+00  0.2414E+02
     14.249  0.1009E+00  0.2416E+02
     14.502  0.1256E+00  0.2420E+02
     14.755  0.3103E+00  0.2427E+02
     15.008  0.2757E+00  0.2434E+02
     15.261  0.3261E+00  0.2443E+02
     15.514  0.7565E+00  0.2462E+02
     15.766  0.9675E+00  0.2486E+02
     16.019  0.8725E+00  0.2508E+02
     16.272  0.7628E+00  0.2527E+02
     16.525  0.5990E+00  0.2543E+02
     16.778  0.4437E+00  0.2554E+02
     17.031  0.7431E+00  0.2573E+02
     17.283  0.8735E+00  0.2595E+02
     17.536  0.6911E+00  0.2612E+02
     17.789  0.7912E+00  0.2632E+02
     18.042  0.9473E+00  0.2656E+02
     18.295  0.4375E+00  0.2667E+02
     18.547  0.4538E+00  0.2679E+02
     18.800  0.8868E+00  0.2701E+02
     19.053  0.6340E+00  0.2717E+02
     19.306  0.7137E+00  0.2735E+02
     19.559  0.4812E+00  0.2747E+02
     19.812  0.6779E+00  0.2764E+02
     20.064  0.5496E+00  0.2778E+02
     20.317  0.3481E+00  0.2787E+02
     20.570  0.8737E+00  0.2809E+02
     20.823  0.6617E+00  0.2826E+02
     21.076  0.5936E+00  0.2841E+02
     21.329  0.8610E+00  0.2863E+02
     21.581  0.5458E+00  0.2877E+02
     21.834  0.6039E+00  0.2892E+02
     22.087  0.7804E+00  0.2912E+02
     22.340  0.1376E+01  0.2946E+02
     22.593  0.8971E+00  0.2969E+02
     22.846  0.5693E+00  0.2983E+02
     23.098  0.1210E+01  0.3014E+02
     23.351  0.6394E+00  0.3030E+02
     23.604  0.6437E+00  0.3046E+02
     23.857  0.1171E+01  0.3076E+02
     24.110  0.1022E+01  0.3102E+02
     24.363  0.9509E+00  0.3126E+02
     24.615  0.7587E+00  0.3145E+02
     24.868  0.9840E+00  0.3170E+02
     25.121  0.1184E+01  0.3200E+02
     25.374  0.1387E+01  0.3235E+02
     25.627  0.8996E+00  0.3258E+02
     25.880  0.4569E+00  0.3269E+02
     26.132  0.9282E+00  0.3293E+02
     26.385  0.8355E+00  0.3314E+02
     26.638  0.7683E+00  0.3333E+02
     26.891  0.1102E+01  0.3361E+02
     27.144  0.6317E+00  0.3377E+02
     27.397  0.7702E+00  0.3397E+02
     27.649  0.1060E+01  0.3423E+02
     27.902  0.7194E+00  0.3442E+02
     28.155  0.6339E+00  0.3458E+02
     28.408  0.5649E+00  0.3472E+02
     28.661  0.4549E+00  0.3483E+02
     28.913  0.6022E+00  0.3499E+02
     29.166  0.8674E+00  0.3521E+02
     29.419  0.9003E+00  0.3543E+02
     29.672  0.7996E+00  0.3564E+02
     29.925  0.7465E+00  0.3582E+02
     30.178  0.7371E+00  0.3601E+02
     30.430  0.8091E+00  0.3622E+02
     30.683  0.1214E+01  0.3652E+02
     30.936  0.9462E+00  0.3676E+02
     31.189  0.7015E+00  0.3694E+02
     31.442  0.5942E+00  0.3709E+02
     31.695  0.8201E+00  0.3730E+02
     31.947  0.7299E+00  0.3748E+02
     32.200  0.7765E+00  0.3768E+02
     32.453  0.1143E+01  0.3797E+02
     32.706  0.9291E+00  0.3820E+02
     32.959  0.9544E+00  0.3844E+02
     33.212  0.9123E+00  0.3867E+02
     33.464  0.1141E+01  0.3896E+02
     33.717  0.8623E+00  0.3918E+02
     33.970  0.1143E+01  0.3947E+02
     34.223  0.1334E+01  0.3981E+02
     34.476  0.1006E+01  0.4006E+02
     34.729  0.1297E+01  0.4039E+02
     34.981  0.9830E+00  0.4064E+02
     35.234  0.8236E+00  0.4084E+02
     35.487  0.8516E+00  0.4106E+02
     35.740  0.7855E+00  0.4126E+02
     35.993  0.7379E+00  0.4145E+02
     36.246  0.4658E+00  0.4156E+02
     36.498  0.8667E+00  0.4178E+02
     36.751  0.6602E+00  0.4195E+02
     37.004  0.4142E+00  0.4205E+02
     37.257  0.9936E+00  0.4231E+02
     37.510  0.1218E+01  0.4261E+02
     37.763  0.1115E+01  0.4290E+02
     38.015  0.8449E+00  0.4311E+02
     38.268  0.8256E+00  0.4332E+02
     38.521  0.8328E+00  0.4353E+02
     38.774  0.6556E+00  0.4369E+02
     39.027  0.1019E+01  0.4395E+02
     39.279  0.1010E+01  0.4421E+02
     39.532  0.7742E+00  0.4440E+02
     39.785  0.1214E+01  0.4471E+02
     40.038  0.1461E+01  0.4508E+02
     40.291  0.8230E+00  0.4529E+02
     40.544  0.9756E+00  0.4553E+02
     40.796  0.1181E+01  0.4583E+02
     41.049  0.9037E+00  0.4606E+02
     41.302  0.9933E+00  0.4631E+02
     41.555  0.1206E+01  0.4662E+02
     41.808  0.1112E+01  0.4690E+02
     42.061  0.1197E+01  0.4720E+02
     42.313  0.1010E+01  0.4746E+02
     42.566  0.1229E+01  0.4777E+02
     42.819  0.1278E+01  0.4809E+02
     43.072  0.9306E+00  0.4832E+02
     43.325  0.7949E+00  0.4853E+02
     43.578  0.7397E+00  0.4871E+02
     43.830  0.1267E+01  0.4903E+02
     44.083  0.9619E+00  0.4928E+02
     44.336  0.6740E+00  0.4945E+02
     44.589  0.8755E+00  0.4967E+02
     44.842  0.1099E+01  0.4995E+02
     45.095  0.1223E+01  0.5025E+02
     45.347  0.1451E+01  0.5062E+02
     45.600  0.6500E+00  0.5079E+02
     45.853  0.7383E+00  0.5097E+02
     46.106  0.8329E+00  0.5118E+02
     46.359  0.1293E+01  0.5151E+02
     46.612  0.1166E+01  0.5180E+02
     46.864  0.1049E+01  0.5207E+02
     47.117  0.8891E+00  0.5229E+02
     47.370  0.8299E+00  0.5250E+02
     47.623  0.9870E+00  0.5275E+02
     47.876  0.1227E+01  0.5306E+02
     48.129  0.1581E+01  0.5346E+02
     48.381  0.1702E+01  0.5389E+02
     48.634  0.1029E+01  0.5415E+02
     48.887  0.1276E+01  0.5448E+02
     49.140  0.1224E+01  0.5479E+02
     49.393  0.9733E+00  0.5503E+02
     49.646  0.7386E+00  0.5522E+02
     49.898  0.1441E+01  0.5558E+02
     50.151  0.1229E+01  0.5589E+02
     50.404  0.5229E+00  0.5603E+02
     50.657  0.1207E+01  0.5633E+02
     50.910  0.9537E+00  0.5657E+02
     51.162  0.1111E+01  0.5685E+02
     51.415  0.1415E+01  0.5721E+02
     51.668  0.1116E+01  0.5749E+02
     51.921  0.1422E+01  0.5785E+02
     52.174  0.1492E+01  0.5823E+02
     52.427  0.1345E+01  0.5857E+02
     52.679  0.1348E+01  0.5891E+02
     52.932  0.1405E+01  0.5927E+02
     53.185  0.1267E+01  0.5959E+02
     53.438  0.8956E+00  0.5981E+02
     53.691  0.9669E+00  0.6006E+02
     53.944  0.9669E+00  0.6030E+02
     54.196  0.1398E+01  0.6066E+02
     54.449  0.1845E+01  0.6112E+02
     54.702  0.1567E+01  0.6152E+02
     54.955  0.1775E+01  0.6197E+02
     55.208  0.1391E+01  0.6232E+02
     55.461  0.1210E+01  0.6262E+02
     55.713  0.1107E+01  0.6290E+02
     55.966  0.1587E+01  0.6331E+02
     56.219  0.1924E+01  0.6379E+02
     56.472  0.1231E+01  0.6410E+02
     56.725  0.1281E+01  0.6443E+02
     56.978  0.1742E+01  0.6487E+02
     57.230  0.1398E+01  0.6522E+02
     57.483  0.1533E+01  0.6561E+02
     57.736  0.1489E+01  0.6598E+02
     57.989  0.1789E+01  0.6644E+02
     58.242  0.1990E+01  0.6694E+02
     58.495  0.1425E+01  0.6730E+02
     58.747  0.1208E+01  0.6761E+02
     59.000  0.1413E+01  0.6796E+02
     59.253  0.1807E+01  0.6842E+02
     59.506  0.1342E+01  0.6876E+02
     59.759  0.9769E+00  0.6901E+02
     60.012  0.1938E+01  0.6950E+02
     60.264  0.1690E+01  0.6992E+02
     60.517  0.1961E+01  0.7042E+02
     60.770  0.1331E+01  0.7076E+02
     61.023  0.1591E+01  0.7116E+02
     61.276  0.1334E+01  0.7150E+02
     61.528  0.2134E+01  0.7203E+02
     61.781  0.1459E+01  0.7240E+02
     62.034  0.1842E+01  0.7287E+02
     62.287  0.2153E+01  0.7341E+02
     62.540  0.1503E+01  0.7379E+02
     62.793  0.1314E+01  0.7413E+02
     63.045  0.1724E+01  0.7456E+02
     63.298  0.2353E+01  0.7516E+02
     63.551  0.1921E+01  0.7564E+02
     63.804  0.2016E+01  0.7615E+02
     64.057  0.2003E+01  0.7666E+02
     64.310  0.1758E+01  0.7710E+02
     64.562  0.2451E+01  0.7772E+02
     64.815  0.2026E+01  0.7823E+02
     65.068  0.1165E+01  0.7853E+02
     65.321  0.1847E+01  0.7900E+02
     65.574  0.1539E+01  0.7939E+02
     65.827  0.7622E+00  0.7958E+02
     66.079  0.1187E+01  0.7988E+02
     66.332  0.3296E+00  0.7996E+02
     66.585  0.8806E-01  0.7998E+02
     66.838  0.6424E-01  0.8000E+02
     67.091  0.8577E-04  0.8000E+02
     67.344 -0.4564E-03  0.8000E+02
     67.596 -0.9194E-06  0.8000E+02
     67.849 -0.5864E-10  0.8000E+02
     68.102 -0.1425E-15  0.8000E+02
     68.355  0.0000E+00  0.8000E+02
     68.608  0.0000E+00  0.8000E+02
     68.861  0.0000E+00  0.8000E+02
     69.113  0.0000E+00  0.8000E+02
     69.366  0.0000E+00  0.8000E+02
     69.619  0.0000E+00  0.8000E+02
     69.872  0.0000E+00  0.8000E+02
     70.125  0.0000E+00  0.8000E+02
