       N       E                     dE             d eps       ncg     rms          rms(c)
DAV:   1     0.605330976516E+02    0.60533E+02   -0.27624E+03  9216   0.317E+02
DAV:   2    -0.146143921707E+02   -0.75147E+02   -0.63630E+02  7928   0.943E+01
DAV:   3    -0.191303046002E+02   -0.45159E+01   -0.42690E+01  9504   0.241E+01
DAV:   4    -0.191524605153E+02   -0.22156E-01   -0.22140E-01  9176   0.177E+00
DAV:   5    -0.191524969095E+02   -0.36394E-04   -0.36393E-04  9232   0.677E-02    0.162E+01
DAV:   6    -0.162885341331E+02    0.28640E+01   -0.20738E+00 11160   0.260E+01    0.324E+00
DAV:   7    -0.160277908313E+02    0.26074E+00   -0.16374E-01 10184   0.643E+00    0.102E+00
DAV:   8    -0.160026268948E+02    0.25164E-01   -0.45102E-03 10136   0.449E-01    0.466E-01
DAV:   9    -0.159921242750E+02    0.10503E-01   -0.89769E-04 11256   0.169E-01    0.620E-02
DAV:  10    -0.159921520231E+02   -0.27748E-04   -0.38538E-05  9144   0.247E-02    0.284E-02
DAV:  11    -0.159921469068E+02    0.51164E-05   -0.60357E-07  9288   0.611E-03    0.187E-03
DAV:  12    -0.159921464172E+02    0.48953E-06   -0.33200E-08  5984   0.963E-04
   1 F= -.15992146E+02 E0= -.15993326E+02  d E =0.353756E-02
