 vasp.6.2.0 18Jan21 (build Mar 17 2021 09:06:54) complex                        
  
 executed on             LinuxIFC date 2021.09.09  12:09:20
 serial version


--------------------------------------------------------------------------------------------------------


 INCAR:
   ENCUT = 280.000000
   SIGMA = 0.200000
   EDIFF = 1.00e-06
   GGA = PE
   PREC = normal
   IBRION = 1
   ICHARG = 1
   ISIF = 2
   ISMEAR = 1
   KPAR = 1
   NBANDS = 40
   NSW = 0
   NCORE = 1
   LCHARG = .TRUE.

 POTCAR:    PAW_PBE Fe 06Sep2000                  
 POTCAR:    PAW_PBE Fe 06Sep2000                  
   SHA256 =  cd5a22d9368cc8b5cc476bea79732366149640da08ac9009b0e1b7fc627eea28 Fe/POTCAR             
   COPYR  = (c) Copyright 06Sep2000 Georg Kresse                                                    
   COPYR  = This file is part of the software VASP. Any use, copying, and all other rights are regul
   COPYR  = If you do not have a valid VASP license, you may not use, copy or distribute this file. 
   VRHFIN =Fe:  d7 s1                                                                               
   LEXCH  = PE                                                                                      
   EATOM  =   594.3153 eV,   43.6809 Ry                                                             
                                                                                                    
   TITEL  = PAW_PBE Fe 06Sep2000                                                                    
   LULTRA =        F    use ultrasoft PP ?                                                          
   IUNSCR =        1    unscreen: 0-lin 1-nonlin 2-no                                               
   RPACOR =    2.000    partial core radius                                                         
   POMASS =   55.847; ZVAL   =    8.000    mass and valenz                                          
   RCORE  =    2.300    outmost cutoff radius                                                       
   RWIGS  =    2.460; RWIGS  =    1.302    wigner-seitz radius (au A)                               
   ENMAX  =  267.882; ENMIN  =  200.911 eV                                                          
   RCLOC  =    1.701    cutoff for local pot                                                        
   LCOR   =        T    correct aug charges                                                         
   LPAW   =        T    paw PP                                                                      
   EAUG   =  511.368                                                                                
   DEXC   =    0.000                                                                                
   RMAX   =    2.356    core radius for proj-oper                                                   
   RAUG   =    1.300    factor for augmentation sphere                                              
   RDEP   =    2.442    radius for radial grids                                                     
   RDEPT  =    1.890    core radius for aug-charge                                                  
                                                                                                    
   Atomic configuration                                                                             
    9 entries                                                                                       
     n  l   j            E        occ.                                                              
     1  0  0.50     -6993.8440   2.0000                                                             
     2  0  0.50      -814.6047   2.0000                                                             
     2  1  1.50      -693.3689   6.0000                                                             
     3  0  0.50       -89.4732   2.0000                                                             
     3  1  1.50       -55.6373   6.0000                                                             
     3  2  2.50        -3.8151   7.0000                                                             
     4  0  0.50        -4.2551   1.0000                                                             
     4  1  1.50        -3.4015   0.0000                                                             
     4  3  2.50        -1.3606   0.0000                                                             
   Description                                                                                      
     l       E           TYP  RCUT    TYP  RCUT                                                     
     2     -3.8151135     23  2.300                                                                 
     2     -5.1756961     23  2.300                                                                 
     0     -4.2550963     23  2.300                                                                 
     0      7.2035603     23  2.300                                                                 
     1     -2.7211652     23  2.300                                                                 
     1     18.4316424     23  2.300                                                                 
  local pseudopotential read in
  partial core-charges read in
  partial kinetic energy density read in
  atomic valenz-charges read in
  non local Contribution for L=           2  read in
    real space projection operators read in
  non local Contribution for L=           2  read in
    real space projection operators read in
  non local Contribution for L=           0  read in
    real space projection operators read in
  non local Contribution for L=           0  read in
    real space projection operators read in
  non local Contribution for L=           1  read in
    real space projection operators read in
  non local Contribution for L=           1  read in
    real space projection operators read in
    PAW grid and wavefunctions read in
 
   number of l-projection  operators is LMAX  =           6
   number of lm-projection operators is LMMAX =          18
 
  PAW_PBE Fe 06Sep2000                  :
 energy of atom  1       EATOM= -594.3153
 kinetic energy error for atom=    0.0278 (will be added to EATOM!!)
 
 
 POSCAR: Fe
  positions in cartesian coordinates
  No initial velocities read in
 exchange correlation table for  LEXCH =        8
   RHO(1)=    0.500       N(1)  =     2000
   RHO(2)=  100.500       N(2)  =     4000
 


--------------------------------------------------------------------------------------------------------


 ion  position               nearest neighbor table
   1  0.000  0.000  0.000-   2 2.56   2 2.56   2 2.56   2 2.56   2 2.56   2 2.56
   2  0.333  0.667  0.500-   1 2.56   1 2.56   1 2.56   1 2.56   1 2.56   1 2.56
 
  LATTYP: Found a hexagonal cell.
 ALAT       =     2.3999000000
 C/A-ratio  =     1.7948497854
  
  Lattice vectors:
  
 A1 = (   2.3999000000,   0.0000000000,   0.0000000000)
 A2 = (  -1.1999500000,   2.0783743665,   0.0000000000)
 A3 = (   0.0000000000,   0.0000000000,   4.3074600000)


Analysis of symmetry for initial positions (statically):
=====================================================================
 Subroutine PRICEL returns:
 Original cell was already a primitive cell.
 

 Routine SETGRP: Setting up the symmetry group for a 
 hexagonal supercell.


 Subroutine GETGRP returns: Found 24 space group operations
 (whereof 12 operations were pure point group operations)
 out of a pool of 24 trial point group operations.


The static configuration has the point symmetry D_3h.
 The point group associated with its full space group is D_6h.


Analysis of symmetry for dynamics (positions and initial velocities):
=====================================================================
 Subroutine PRICEL returns:
 Original cell was already a primitive cell.
 

 Routine SETGRP: Setting up the symmetry group for a 
 hexagonal supercell.


 Subroutine GETGRP returns: Found 24 space group operations
 (whereof 12 operations were pure point group operations)
 out of a pool of 24 trial point group operations.


The dynamic configuration has the point symmetry D_3h.
 The point group associated with its full space group is D_6h.


 Subroutine INISYM returns: Found 24 space group operations
 (whereof 12 operations are pure point group operations),
 and found     1 'primitive' translations


----------------------------------------------------------------------------------------

                                     Primitive cell                                     

  volume of cell :      21.4851

  direct lattice vectors                    reciprocal lattice vectors
     2.399900000  0.000000000  0.000000000     0.416684029  0.240572636  0.000000000
    -1.199950000  2.078374367  0.000000000     0.000000000  0.481145272  0.000000000
     0.000000000  0.000000000  4.307460000     0.000000000  0.000000000  0.232155377

  length of vectors
     2.399900000  2.399900000  4.307460000     0.481145272  0.481145272  0.232155377

  position of ions in fractional coordinates (direct lattice)
     0.000000000  0.000000000  0.000000000
     0.333333333  0.666666667  0.500000000

  ion indices of the primitive-cell ions
   primitive index   ion index
                 1           1
                 2           2

----------------------------------------------------------------------------------------

 
 
 KPOINTS: KPOINTS created by Atomic Simulation Env

Automatic generation of k-mesh.
 Grid dimensions read from file:
 generate k-points for:   11   11   11

 Generating k-lattice:

  Cartesian coordinates                     Fractional coordinates (reciprocal lattice)
     0.037880366  0.021870240  0.000000000     0.090909091 -0.000000000  0.000000000
     0.000000000  0.043740479  0.000000000     0.000000000  0.090909091  0.000000000
     0.000000000  0.000000000  0.021105034     0.000000000  0.000000000  0.090909091

  Length of vectors
     0.043740479  0.043740479  0.021105034

  Shift w.r.t. Gamma in fractional coordinates (k-lattice)
     0.000000000  0.000000000  0.000000000

 
 Subroutine IBZKPT returns following result:
 ===========================================
 
 Found     96 irreducible k-points:
 
 Following reciprocal coordinates:
            Coordinates               Weight
  0.000000  0.000000  0.000000      1.000000
  0.090909 -0.000000  0.000000      6.000000
  0.181818 -0.000000  0.000000      6.000000
  0.272727 -0.000000  0.000000      6.000000
  0.363636 -0.000000  0.000000      6.000000
  0.454545 -0.000000  0.000000      6.000000
  0.090909  0.090909  0.000000      6.000000
  0.181818  0.090909  0.000000     12.000000
  0.272727  0.090909  0.000000     12.000000
  0.363636  0.090909  0.000000     12.000000
  0.454545  0.090909  0.000000      6.000000
  0.181818  0.181818  0.000000      6.000000
  0.272727  0.181818  0.000000     12.000000
  0.363636  0.181818  0.000000     12.000000
  0.272727  0.272727  0.000000      6.000000
  0.363636  0.272727  0.000000      6.000000
  0.000000  0.000000  0.090909      2.000000
  0.090909 -0.000000  0.090909     12.000000
  0.181818 -0.000000  0.090909     12.000000
  0.272727 -0.000000  0.090909     12.000000
  0.363636 -0.000000  0.090909     12.000000
  0.454545 -0.000000  0.090909     12.000000
  0.090909  0.090909  0.090909     12.000000
  0.181818  0.090909  0.090909     24.000000
  0.272727  0.090909  0.090909     24.000000
  0.363636  0.090909  0.090909     24.000000
  0.454545  0.090909  0.090909     12.000000
  0.181818  0.181818  0.090909     12.000000
  0.272727  0.181818  0.090909     24.000000
  0.363636  0.181818  0.090909     24.000000
  0.272727  0.272727  0.090909     12.000000
  0.363636  0.272727  0.090909     12.000000
  0.000000  0.000000  0.181818      2.000000
  0.090909 -0.000000  0.181818     12.000000
  0.181818 -0.000000  0.181818     12.000000
  0.272727 -0.000000  0.181818     12.000000
  0.363636 -0.000000  0.181818     12.000000
  0.454545 -0.000000  0.181818     12.000000
  0.090909  0.090909  0.181818     12.000000
  0.181818  0.090909  0.181818     24.000000
  0.272727  0.090909  0.181818     24.000000
  0.363636  0.090909  0.181818     24.000000
  0.454545  0.090909  0.181818     12.000000
  0.181818  0.181818  0.181818     12.000000
  0.272727  0.181818  0.181818     24.000000
  0.363636  0.181818  0.181818     24.000000
  0.272727  0.272727  0.181818     12.000000
  0.363636  0.272727  0.181818     12.000000
  0.000000  0.000000  0.272727      2.000000
  0.090909 -0.000000  0.272727     12.000000
  0.181818 -0.000000  0.272727     12.000000
  0.272727 -0.000000  0.272727     12.000000
  0.363636 -0.000000  0.272727     12.000000
  0.454545 -0.000000  0.272727     12.000000
  0.090909  0.090909  0.272727     12.000000
  0.181818  0.090909  0.272727     24.000000
  0.272727  0.090909  0.272727     24.000000
  0.363636  0.090909  0.272727     24.000000
  0.454545  0.090909  0.272727     12.000000
  0.181818  0.181818  0.272727     12.000000
  0.272727  0.181818  0.272727     24.000000
  0.363636  0.181818  0.272727     24.000000
  0.272727  0.272727  0.272727     12.000000
  0.363636  0.272727  0.272727     12.000000
  0.000000  0.000000  0.363636      2.000000
  0.090909 -0.000000  0.363636     12.000000
  0.181818 -0.000000  0.363636     12.000000
  0.272727 -0.000000  0.363636     12.000000
  0.363636 -0.000000  0.363636     12.000000
  0.454545 -0.000000  0.363636     12.000000
  0.090909  0.090909  0.363636     12.000000
  0.181818  0.090909  0.363636     24.000000
  0.272727  0.090909  0.363636     24.000000
  0.363636  0.090909  0.363636     24.000000
  0.454545  0.090909  0.363636     12.000000
  0.181818  0.181818  0.363636     12.000000
  0.272727  0.181818  0.363636     24.000000
  0.363636  0.181818  0.363636     24.000000
  0.272727  0.272727  0.363636     12.000000
  0.363636  0.272727  0.363636     12.000000
  0.000000  0.000000  0.454545      2.000000
  0.090909 -0.000000  0.454545     12.000000
  0.181818 -0.000000  0.454545     12.000000
  0.272727 -0.000000  0.454545     12.000000
  0.363636 -0.000000  0.454545     12.000000
  0.454545 -0.000000  0.454545     12.000000
  0.090909  0.090909  0.454545     12.000000
  0.181818  0.090909  0.454545     24.000000
  0.272727  0.090909  0.454545     24.000000
  0.363636  0.090909  0.454545     24.000000
  0.454545  0.090909  0.454545     12.000000
  0.181818  0.181818  0.454545     12.000000
  0.272727  0.181818  0.454545     24.000000
  0.363636  0.181818  0.454545     24.000000
  0.272727  0.272727  0.454545     12.000000
  0.363636  0.272727  0.454545     12.000000
 
 Following cartesian coordinates:
            Coordinates               Weight
  0.000000  0.000000  0.000000      1.000000
  0.037880  0.021870  0.000000      6.000000
  0.075761  0.043740  0.000000      6.000000
  0.113641  0.065611  0.000000      6.000000
  0.151521  0.087481  0.000000      6.000000
  0.189402  0.109351  0.000000      6.000000
  0.037880  0.065611  0.000000      6.000000
  0.075761  0.087481  0.000000     12.000000
  0.113641  0.109351  0.000000     12.000000
  0.151521  0.131221  0.000000     12.000000
  0.189402  0.153092  0.000000      6.000000
  0.075761  0.131221  0.000000      6.000000
  0.113641  0.153092  0.000000     12.000000
  0.151521  0.174962  0.000000     12.000000
  0.113641  0.196832  0.000000      6.000000
  0.151521  0.218702  0.000000      6.000000
  0.000000  0.000000  0.021105      2.000000
  0.037880  0.021870  0.021105     12.000000
  0.075761  0.043740  0.021105     12.000000
  0.113641  0.065611  0.021105     12.000000
  0.151521  0.087481  0.021105     12.000000
  0.189402  0.109351  0.021105     12.000000
  0.037880  0.065611  0.021105     12.000000
  0.075761  0.087481  0.021105     24.000000
  0.113641  0.109351  0.021105     24.000000
  0.151521  0.131221  0.021105     24.000000
  0.189402  0.153092  0.021105     12.000000
  0.075761  0.131221  0.021105     12.000000
  0.113641  0.153092  0.021105     24.000000
  0.151521  0.174962  0.021105     24.000000
  0.113641  0.196832  0.021105     12.000000
  0.151521  0.218702  0.021105     12.000000
  0.000000  0.000000  0.042210      2.000000
  0.037880  0.021870  0.042210     12.000000
  0.075761  0.043740  0.042210     12.000000
  0.113641  0.065611  0.042210     12.000000
  0.151521  0.087481  0.042210     12.000000
  0.189402  0.109351  0.042210     12.000000
  0.037880  0.065611  0.042210     12.000000
  0.075761  0.087481  0.042210     24.000000
  0.113641  0.109351  0.042210     24.000000
  0.151521  0.131221  0.042210     24.000000
  0.189402  0.153092  0.042210     12.000000
  0.075761  0.131221  0.042210     12.000000
  0.113641  0.153092  0.042210     24.000000
  0.151521  0.174962  0.042210     24.000000
  0.113641  0.196832  0.042210     12.000000
  0.151521  0.218702  0.042210     12.000000
  0.000000  0.000000  0.063315      2.000000
  0.037880  0.021870  0.063315     12.000000
  0.075761  0.043740  0.063315     12.000000
  0.113641  0.065611  0.063315     12.000000
  0.151521  0.087481  0.063315     12.000000
  0.189402  0.109351  0.063315     12.000000
  0.037880  0.065611  0.063315     12.000000
  0.075761  0.087481  0.063315     24.000000
  0.113641  0.109351  0.063315     24.000000
  0.151521  0.131221  0.063315     24.000000
  0.189402  0.153092  0.063315     12.000000
  0.075761  0.131221  0.063315     12.000000
  0.113641  0.153092  0.063315     24.000000
  0.151521  0.174962  0.063315     24.000000
  0.113641  0.196832  0.063315     12.000000
  0.151521  0.218702  0.063315     12.000000
  0.000000  0.000000  0.084420      2.000000
  0.037880  0.021870  0.084420     12.000000
  0.075761  0.043740  0.084420     12.000000
  0.113641  0.065611  0.084420     12.000000
  0.151521  0.087481  0.084420     12.000000
  0.189402  0.109351  0.084420     12.000000
  0.037880  0.065611  0.084420     12.000000
  0.075761  0.087481  0.084420     24.000000
  0.113641  0.109351  0.084420     24.000000
  0.151521  0.131221  0.084420     24.000000
  0.189402  0.153092  0.084420     12.000000
  0.075761  0.131221  0.084420     12.000000
  0.113641  0.153092  0.084420     24.000000
  0.151521  0.174962  0.084420     24.000000
  0.113641  0.196832  0.084420     12.000000
  0.151521  0.218702  0.084420     12.000000
  0.000000  0.000000  0.105525      2.000000
  0.037880  0.021870  0.105525     12.000000
  0.075761  0.043740  0.105525     12.000000
  0.113641  0.065611  0.105525     12.000000
  0.151521  0.087481  0.105525     12.000000
  0.189402  0.109351  0.105525     12.000000
  0.037880  0.065611  0.105525     12.000000
  0.075761  0.087481  0.105525     24.000000
  0.113641  0.109351  0.105525     24.000000
  0.151521  0.131221  0.105525     24.000000
  0.189402  0.153092  0.105525     12.000000
  0.075761  0.131221  0.105525     12.000000
  0.113641  0.153092  0.105525     24.000000
  0.151521  0.174962  0.105525     24.000000
  0.113641  0.196832  0.105525     12.000000
  0.151521  0.218702  0.105525     12.000000
 


--------------------------------------------------------------------------------------------------------




 Dimension of arrays:
   k-points           NKPTS =     96   k-points in BZ     NKDIM =     96   number of bands    NBANDS=     40
   number of dos      NEDOS =    301   number of ions     NIONS =      2
   non local maximal  LDIM  =      6   non local SUM 2l+1 LMDIM =     18
   total plane-waves  NPLWV =   1800
   max r-space proj   IRMAX =      1   max aug-charges    IRDMAX=   3184
   dimension x,y,z NGX =    10 NGY =   10 NGZ =   18
   dimension x,y,z NGXF=    20 NGYF=   20 NGZF=   36
   support grid    NGXF=    20 NGYF=   20 NGZF=   36
   ions per type =               2
   NGX,Y,Z   is equivalent  to a cutoff of   6.93,  6.93,  6.95 a.u.
   NGXF,Y,Z  is equivalent  to a cutoff of  13.85, 13.85, 13.89 a.u.

 SYSTEM =  unknown system                          
 POSCAR =  Fe                                      

 Startparameter for this run:
   NWRITE =      2    write-flag & timer
   PREC   = normal    normal or accurate (medium, high low for compatibility)
   ISTART =      0    job   : 0-new  1-cont  2-samecut
   ICHARG =      1    charge: 1-file 2-atom 10-const
   ISPIN  =      1    spin polarized calculation?
   LNONCOLLINEAR =      F non collinear calculations
   LSORBIT =      F    spin-orbit coupling
   INIWAV =      1    electr: 0-lowe 1-rand  2-diag
   LASPH  =      F    aspherical Exc in radial PAW
   METAGGA=      F    non-selfconsistent MetaGGA calc.

 Electronic Relaxation 1
   ENCUT  =  280.0 eV  20.58 Ry    4.54 a.u.   3.27  3.27  5.88*2*pi/ulx,y,z
   ENINI  =  280.0     initial cutoff
   ENAUG  =  511.4 eV  augmentation charge cutoff
   NELM   =     60;   NELMIN=  2; NELMDL= -5     # of ELM steps 
   EDIFF  = 0.1E-05   stopping-criterion for ELM
   LREAL  =      F    real-space projection
   NLSPLINE    = F    spline interpolate recip. space projectors
   LCOMPAT=      F    compatible to vasp.4.4
   GGA_COMPAT  = T    GGA compatible to vasp.4.4-vasp.4.6
   LMAXPAW     = -100 max onsite density
   LMAXMIX     =    2 max onsite mixed and CHGCAR
   VOSKOWN=      0    Vosko Wilk Nusair interpolation
   ROPT   =    0.00000
 Ionic relaxation
   EDIFFG = 0.1E-04   stopping-criterion for IOM
   NSW    =      0    number of steps for IOM
   NBLOCK =      1;   KBLOCK =      1    inner block; outer block 
   IBRION =     -1    ionic relax: 0-MD 1-quasi-New 2-CG
   NFREE  =      0    steps in history (QN), initial steepest desc. (CG)
   ISIF   =      2    stress and relaxation
   IWAVPR =      0    prediction:  0-non 1-charg 2-wave 3-comb
   ISYM   =      2    0-nonsym 1-usesym 2-fastsym
   LCORR  =      T    Harris-Foulkes like correction to forces

   POTIM  = 0.5000    time-step for ionic-motion
   TEIN   =    0.0    initial temperature
   TEBEG  =    0.0;   TEEND  =   0.0 temperature during run
   SMASS  =  -3.00    Nose mass-parameter (am)
   estimated Nose-frequenzy (Omega)   =  0.10E-29 period in steps = 0.13E+47 mass=  -0.132E-27a.u.
   SCALEE = 1.0000    scale energy and forces
   NPACO  =    256;   APACO  = 16.0  distance and # of slots for P.C.
   PSTRESS=    0.0 pullay stress

  Mass of Ions in am
   POMASS =  55.85
  Ionic Valenz
   ZVAL   =   8.00
  Atomic Wigner-Seitz radii
   RWIGS  =  -1.00
  virtual crystal weights 
   VCA    =   1.00
   NELECT =      16.0000    total number of electrons
   NUPDOWN=      -1.0000    fix difference up-down

 DOS related values:
   EMIN   =  10.00;   EMAX   =-10.00  energy-range for DOS
   EFERMI =   0.00
   ISMEAR =     1;   SIGMA  =   0.20  broadening in eV -4-tet -1-fermi 0-gaus

 Electronic relaxation 2 (details)
   IALGO  =     38    algorithm
   LDIAG  =      T    sub-space diagonalisation (order eigenvalues)
   LSUBROT=      F    optimize rotation matrix (better conditioning)
   TURBO    =      0    0=normal 1=particle mesh
   IRESTART =      0    0=no restart 2=restart with 2 vectors
   NREBOOT  =      0    no. of reboots
   NMIN     =      0    reboot dimension
   EREF     =   0.00    reference energy to select bands
   IMIX   =      4    mixing-type and parameters
     AMIX     =   0.40;   BMIX     =  1.00
     AMIX_MAG =   1.60;   BMIX_MAG =  1.00
     AMIN     =   0.10
     WC   =   100.;   INIMIX=   1;  MIXPRE=   1;  MAXMIX= -45

 Intra band minimization:
   WEIMIN = 0.0000     energy-eigenvalue tresh-hold
   EBREAK =  0.62E-08  absolut break condition
   DEPER  =   0.30     relativ break condition  

   TIME   =   0.40     timestep for ELM

  volume/ion in A,a.u.               =      10.74        72.49
  Fermi-wavevector in a.u.,A,eV,Ry     =   1.483891  2.804148 29.959124  2.201934
  Thomas-Fermi vector in A             =   2.597496
 
 Write flags
   LWAVE        =      T    write WAVECAR
   LDOWNSAMPLE  =      F    k-point downsampling of WAVECAR
   LCHARG       =      T    write CHGCAR
   LVTOT        =      F    write LOCPOT, total local potential
   LVHAR        =      F    write LOCPOT, Hartree potential only
   LELF         =      F    write electronic localiz. function (ELF)
   LORBIT       =      0    0 simple, 1 ext, 2 COOP (PROOUT), +10 PAW based schemes


 Dipole corrections
   LMONO  =      F    monopole corrections only (constant potential shift)
   LDIPOL =      F    correct potential (dipole corrections)
   IDIPOL =      0    1-x, 2-y, 3-z, 4-all directions 
   EPSILON=  1.0000000 bulk dielectric constant

 Exchange correlation treatment:
   GGA     =    PE    GGA type
   LEXCH   =     8    internal setting for exchange type
   VOSKOWN=      0    Vosko Wilk Nusair interpolation
   LHFCALC =     F    Hartree Fock is set to
   LHFONE  =     F    Hartree Fock one center treatment
   AEXX    =    0.0000 exact exchange contribution

 Linear response parameters
   LEPSILON=     F    determine dielectric tensor
   LRPA    =     F    only Hartree local field effects (RPA)
   LNABLA  =     F    use nabla operator in PAW spheres
   LVEL    =     F    velocity operator in full k-point grid
   LINTERFAST=   F  fast interpolation
   KINTER  =     0    interpolate to denser k-point grid
   CSHIFT  =0.1000    complex shift for real part using Kramers Kronig
   OMEGAMAX=  -1.0    maximum frequency
   DEG_THRESHOLD= 0.2000000E-02 threshold for treating states as degnerate
   RTIME   =   -0.100 relaxation time in fs
  (WPLASMAI=    0.000 imaginary part of plasma frequency in eV, 0.658/RTIME)
   DFIELD  = 0.0000000 0.0000000 0.0000000 field for delta impulse in time
 
 Orbital magnetization related:
   ORBITALMAG=     F  switch on orbital magnetization
   LCHIMAG   =     F  perturbation theory with respect to B field
   DQ        =  0.001000  dq finite difference perturbation B field
   LLRAUG    =     F  two centre corrections for induced B field



--------------------------------------------------------------------------------------------------------


 Static calculation
 charge density and potential will be updated during run
 non-spin polarized calculation
 Variant of blocked Davidson
 Davidson routine will perform the subspace rotation
 perform sub-space diagonalisation
    after iterative eigenvector-optimisation
 modified Broyden-mixing scheme, WC =      100.0
 initial mixing is a Kerker type mixing with AMIX =  0.4000 and BMIX =      1.0000
 Hartree-type preconditioning will be used
 using additional bands           32
 reciprocal scheme for non local part
 use partial core corrections
 calculate Harris-corrections to forces 
   (improved forces if not selfconsistent)
 use gradient corrections 
 use of overlap-Matrix (Vanderbilt PP)
 Methfessel and Paxton  Order N= 1 SIGMA  =   0.20


--------------------------------------------------------------------------------------------------------


  energy-cutoff  :      280.00
  volume of cell :       21.49
      direct lattice vectors                 reciprocal lattice vectors
     2.399900000  0.000000000  0.000000000     0.416684029  0.240572636  0.000000000
    -1.199950000  2.078374367  0.000000000     0.000000000  0.481145272  0.000000000
     0.000000000  0.000000000  4.307460000     0.000000000  0.000000000  0.232155377

  length of vectors
     2.399900000  2.399900000  4.307460000     0.481145272  0.481145272  0.232155377


 
 k-points in units of 2pi/SCALE and weight: KPOINTS created by Atomic Simulation Env
   0.00000000  0.00000000  0.00000000       0.001
   0.03788037  0.02187024  0.00000000       0.005
   0.07576073  0.04374048  0.00000000       0.005
   0.11364110  0.06561072  0.00000000       0.005
   0.15152146  0.08748096  0.00000000       0.005
   0.18940183  0.10935120  0.00000000       0.005
   0.03788037  0.06561072  0.00000000       0.005
   0.07576073  0.08748096  0.00000000       0.009
   0.11364110  0.10935120  0.00000000       0.009
   0.15152146  0.13122144  0.00000000       0.009
   0.18940183  0.15309168  0.00000000       0.005
   0.07576073  0.13122144  0.00000000       0.005
   0.11364110  0.15309168  0.00000000       0.009
   0.15152146  0.17496192  0.00000000       0.009
   0.11364110  0.19683216  0.00000000       0.005
   0.15152146  0.21870240  0.00000000       0.005
   0.00000000  0.00000000  0.02110503       0.002
   0.03788037  0.02187024  0.02110503       0.009
   0.07576073  0.04374048  0.02110503       0.009
   0.11364110  0.06561072  0.02110503       0.009
   0.15152146  0.08748096  0.02110503       0.009
   0.18940183  0.10935120  0.02110503       0.009
   0.03788037  0.06561072  0.02110503       0.009
   0.07576073  0.08748096  0.02110503       0.018
   0.11364110  0.10935120  0.02110503       0.018
   0.15152146  0.13122144  0.02110503       0.018
   0.18940183  0.15309168  0.02110503       0.009
   0.07576073  0.13122144  0.02110503       0.009
   0.11364110  0.15309168  0.02110503       0.018
   0.15152146  0.17496192  0.02110503       0.018
   0.11364110  0.19683216  0.02110503       0.009
   0.15152146  0.21870240  0.02110503       0.009
   0.00000000  0.00000000  0.04221007       0.002
   0.03788037  0.02187024  0.04221007       0.009
   0.07576073  0.04374048  0.04221007       0.009
   0.11364110  0.06561072  0.04221007       0.009
   0.15152146  0.08748096  0.04221007       0.009
   0.18940183  0.10935120  0.04221007       0.009
   0.03788037  0.06561072  0.04221007       0.009
   0.07576073  0.08748096  0.04221007       0.018
   0.11364110  0.10935120  0.04221007       0.018
   0.15152146  0.13122144  0.04221007       0.018
   0.18940183  0.15309168  0.04221007       0.009
   0.07576073  0.13122144  0.04221007       0.009
   0.11364110  0.15309168  0.04221007       0.018
   0.15152146  0.17496192  0.04221007       0.018
   0.11364110  0.19683216  0.04221007       0.009
   0.15152146  0.21870240  0.04221007       0.009
   0.00000000  0.00000000  0.06331510       0.002
   0.03788037  0.02187024  0.06331510       0.009
   0.07576073  0.04374048  0.06331510       0.009
   0.11364110  0.06561072  0.06331510       0.009
   0.15152146  0.08748096  0.06331510       0.009
   0.18940183  0.10935120  0.06331510       0.009
   0.03788037  0.06561072  0.06331510       0.009
   0.07576073  0.08748096  0.06331510       0.018
   0.11364110  0.10935120  0.06331510       0.018
   0.15152146  0.13122144  0.06331510       0.018
   0.18940183  0.15309168  0.06331510       0.009
   0.07576073  0.13122144  0.06331510       0.009
   0.11364110  0.15309168  0.06331510       0.018
   0.15152146  0.17496192  0.06331510       0.018
   0.11364110  0.19683216  0.06331510       0.009
   0.15152146  0.21870240  0.06331510       0.009
   0.00000000  0.00000000  0.08442014       0.002
   0.03788037  0.02187024  0.08442014       0.009
   0.07576073  0.04374048  0.08442014       0.009
   0.11364110  0.06561072  0.08442014       0.009
   0.15152146  0.08748096  0.08442014       0.009
   0.18940183  0.10935120  0.08442014       0.009
   0.03788037  0.06561072  0.08442014       0.009
   0.07576073  0.08748096  0.08442014       0.018
   0.11364110  0.10935120  0.08442014       0.018
   0.15152146  0.13122144  0.08442014       0.018
   0.18940183  0.15309168  0.08442014       0.009
   0.07576073  0.13122144  0.08442014       0.009
   0.11364110  0.15309168  0.08442014       0.018
   0.15152146  0.17496192  0.08442014       0.018
   0.11364110  0.19683216  0.08442014       0.009
   0.15152146  0.21870240  0.08442014       0.009
   0.00000000  0.00000000  0.10552517       0.002
   0.03788037  0.02187024  0.10552517       0.009
   0.07576073  0.04374048  0.10552517       0.009
   0.11364110  0.06561072  0.10552517       0.009
   0.15152146  0.08748096  0.10552517       0.009
   0.18940183  0.10935120  0.10552517       0.009
   0.03788037  0.06561072  0.10552517       0.009
   0.07576073  0.08748096  0.10552517       0.018
   0.11364110  0.10935120  0.10552517       0.018
   0.15152146  0.13122144  0.10552517       0.018
   0.18940183  0.15309168  0.10552517       0.009
   0.07576073  0.13122144  0.10552517       0.009
   0.11364110  0.15309168  0.10552517       0.018
   0.15152146  0.17496192  0.10552517       0.018
   0.11364110  0.19683216  0.10552517       0.009
   0.15152146  0.21870240  0.10552517       0.009
 
 k-points in reciprocal lattice and weights: KPOINTS created by Atomic Simulation Env
   0.00000000  0.00000000  0.00000000       0.001
   0.09090909 -0.00000000  0.00000000       0.005
   0.18181818 -0.00000000  0.00000000       0.005
   0.27272727 -0.00000000  0.00000000       0.005
   0.36363636 -0.00000000  0.00000000       0.005
   0.45454545 -0.00000000  0.00000000       0.005
   0.09090909  0.09090909  0.00000000       0.005
   0.18181818  0.09090909  0.00000000       0.009
   0.27272727  0.09090909  0.00000000       0.009
   0.36363636  0.09090909  0.00000000       0.009
   0.45454545  0.09090909  0.00000000       0.005
   0.18181818  0.18181818  0.00000000       0.005
   0.27272727  0.18181818  0.00000000       0.009
   0.36363636  0.18181818  0.00000000       0.009
   0.27272727  0.27272727  0.00000000       0.005
   0.36363636  0.27272727  0.00000000       0.005
   0.00000000  0.00000000  0.09090909       0.002
   0.09090909 -0.00000000  0.09090909       0.009
   0.18181818 -0.00000000  0.09090909       0.009
   0.27272727 -0.00000000  0.09090909       0.009
   0.36363636 -0.00000000  0.09090909       0.009
   0.45454545 -0.00000000  0.09090909       0.009
   0.09090909  0.09090909  0.09090909       0.009
   0.18181818  0.09090909  0.09090909       0.018
   0.27272727  0.09090909  0.09090909       0.018
   0.36363636  0.09090909  0.09090909       0.018
   0.45454545  0.09090909  0.09090909       0.009
   0.18181818  0.18181818  0.09090909       0.009
   0.27272727  0.18181818  0.09090909       0.018
   0.36363636  0.18181818  0.09090909       0.018
   0.27272727  0.27272727  0.09090909       0.009
   0.36363636  0.27272727  0.09090909       0.009
   0.00000000  0.00000000  0.18181818       0.002
   0.09090909 -0.00000000  0.18181818       0.009
   0.18181818 -0.00000000  0.18181818       0.009
   0.27272727 -0.00000000  0.18181818       0.009
   0.36363636 -0.00000000  0.18181818       0.009
   0.45454545 -0.00000000  0.18181818       0.009
   0.09090909  0.09090909  0.18181818       0.009
   0.18181818  0.09090909  0.18181818       0.018
   0.27272727  0.09090909  0.18181818       0.018
   0.36363636  0.09090909  0.18181818       0.018
   0.45454545  0.09090909  0.18181818       0.009
   0.18181818  0.18181818  0.18181818       0.009
   0.27272727  0.18181818  0.18181818       0.018
   0.36363636  0.18181818  0.18181818       0.018
   0.27272727  0.27272727  0.18181818       0.009
   0.36363636  0.27272727  0.18181818       0.009
   0.00000000  0.00000000  0.27272727       0.002
   0.09090909 -0.00000000  0.27272727       0.009
   0.18181818 -0.00000000  0.27272727       0.009
   0.27272727 -0.00000000  0.27272727       0.009
   0.36363636 -0.00000000  0.27272727       0.009
   0.45454545 -0.00000000  0.27272727       0.009
   0.09090909  0.09090909  0.27272727       0.009
   0.18181818  0.09090909  0.27272727       0.018
   0.27272727  0.09090909  0.27272727       0.018
   0.36363636  0.09090909  0.27272727       0.018
   0.45454545  0.09090909  0.27272727       0.009
   0.18181818  0.18181818  0.27272727       0.009
   0.27272727  0.18181818  0.27272727       0.018
   0.36363636  0.18181818  0.27272727       0.018
   0.27272727  0.27272727  0.27272727       0.009
   0.36363636  0.27272727  0.27272727       0.009
   0.00000000  0.00000000  0.36363636       0.002
   0.09090909 -0.00000000  0.36363636       0.009
   0.18181818 -0.00000000  0.36363636       0.009
   0.27272727 -0.00000000  0.36363636       0.009
   0.36363636 -0.00000000  0.36363636       0.009
   0.45454545 -0.00000000  0.36363636       0.009
   0.09090909  0.09090909  0.36363636       0.009
   0.18181818  0.09090909  0.36363636       0.018
   0.27272727  0.09090909  0.36363636       0.018
   0.36363636  0.09090909  0.36363636       0.018
   0.45454545  0.09090909  0.36363636       0.009
   0.18181818  0.18181818  0.36363636       0.009
   0.27272727  0.18181818  0.36363636       0.018
   0.36363636  0.18181818  0.36363636       0.018
   0.27272727  0.27272727  0.36363636       0.009
   0.36363636  0.27272727  0.36363636       0.009
   0.00000000  0.00000000  0.45454545       0.002
   0.09090909 -0.00000000  0.45454545       0.009
   0.18181818 -0.00000000  0.45454545       0.009
   0.27272727 -0.00000000  0.45454545       0.009
   0.36363636 -0.00000000  0.45454545       0.009
   0.45454545 -0.00000000  0.45454545       0.009
   0.09090909  0.09090909  0.45454545       0.009
   0.18181818  0.09090909  0.45454545       0.018
   0.27272727  0.09090909  0.45454545       0.018
   0.36363636  0.09090909  0.45454545       0.018
   0.45454545  0.09090909  0.45454545       0.009
   0.18181818  0.18181818  0.45454545       0.009
   0.27272727  0.18181818  0.45454545       0.018
   0.36363636  0.18181818  0.45454545       0.018
   0.27272727  0.27272727  0.45454545       0.009
   0.36363636  0.27272727  0.45454545       0.009
 
 position of ions in fractional coordinates (direct lattice) 
   0.00000000  0.00000000  0.00000000
   0.33333333  0.66666667  0.50000000
 
 position of ions in cartesian coordinates  (Angst):
   0.00000000  0.00000000  0.00000000
   0.00000000  1.38558291  2.15373000
 


--------------------------------------------------------------------------------------------------------


 k-point   1 :   0.0000 0.0000 0.0000  plane waves:     245
 k-point   2 :   0.0909-0.0000 0.0000  plane waves:     235
 k-point   3 :   0.1818-0.0000 0.0000  plane waves:     224
 k-point   4 :   0.2727-0.0000 0.0000  plane waves:     222
 k-point   5 :   0.3636-0.0000 0.0000  plane waves:     232
 k-point   6 :   0.4545-0.0000 0.0000  plane waves:     228
 k-point   7 :   0.0909 0.0909 0.0000  plane waves:     225
 k-point   8 :   0.1818 0.0909 0.0000  plane waves:     228
 k-point   9 :   0.2727 0.0909 0.0000  plane waves:     227
 k-point  10 :   0.3636 0.0909 0.0000  plane waves:     229
 k-point  11 :   0.4545 0.0909 0.0000  plane waves:     222
 k-point  12 :   0.1818 0.1818 0.0000  plane waves:     229
 k-point  13 :   0.2727 0.1818 0.0000  plane waves:     226
 k-point  14 :   0.3636 0.1818 0.0000  plane waves:     226
 k-point  15 :   0.2727 0.2727 0.0000  plane waves:     229
 k-point  16 :   0.3636 0.2727 0.0000  plane waves:     222
 k-point  17 :   0.0000 0.0000 0.0909  plane waves:     245
 k-point  18 :   0.0909-0.0000 0.0909  plane waves:     232
 k-point  19 :   0.1818-0.0000 0.0909  plane waves:     226
 k-point  20 :   0.2727-0.0000 0.0909  plane waves:     226
 k-point  21 :   0.3636-0.0000 0.0909  plane waves:     228
 k-point  22 :   0.4545-0.0000 0.0909  plane waves:     231
 k-point  23 :   0.0909 0.0909 0.0909  plane waves:     227
 k-point  24 :   0.1818 0.0909 0.0909  plane waves:     228
 k-point  25 :   0.2727 0.0909 0.0909  plane waves:     228
 k-point  26 :   0.3636 0.0909 0.0909  plane waves:     229
 k-point  27 :   0.4545 0.0909 0.0909  plane waves:     225
 k-point  28 :   0.1818 0.1818 0.0909  plane waves:     229
 k-point  29 :   0.2727 0.1818 0.0909  plane waves:     229
 k-point  30 :   0.3636 0.1818 0.0909  plane waves:     228
 k-point  31 :   0.2727 0.2727 0.0909  plane waves:     225
 k-point  32 :   0.3636 0.2727 0.0909  plane waves:     224
 k-point  33 :   0.0000 0.0000 0.1818  plane waves:     228
 k-point  34 :   0.0909-0.0000 0.1818  plane waves:     233
 k-point  35 :   0.1818-0.0000 0.1818  plane waves:     231
 k-point  36 :   0.2727-0.0000 0.1818  plane waves:     227
 k-point  37 :   0.3636-0.0000 0.1818  plane waves:     227
 k-point  38 :   0.4545-0.0000 0.1818  plane waves:     231
 k-point  39 :   0.0909 0.0909 0.1818  plane waves:     229
 k-point  40 :   0.1818 0.0909 0.1818  plane waves:     230
 k-point  41 :   0.2727 0.0909 0.1818  plane waves:     230
 k-point  42 :   0.3636 0.0909 0.1818  plane waves:     227
 k-point  43 :   0.4545 0.0909 0.1818  plane waves:     225
 k-point  44 :   0.1818 0.1818 0.1818  plane waves:     230
 k-point  45 :   0.2727 0.1818 0.1818  plane waves:     227
 k-point  46 :   0.3636 0.1818 0.1818  plane waves:     227
 k-point  47 :   0.2727 0.2727 0.1818  plane waves:     225
 k-point  48 :   0.3636 0.2727 0.1818  plane waves:     228
 k-point  49 :   0.0000 0.0000 0.2727  plane waves:     228
 k-point  50 :   0.0909-0.0000 0.2727  plane waves:     231
 k-point  51 :   0.1818-0.0000 0.2727  plane waves:     232
 k-point  52 :   0.2727-0.0000 0.2727  plane waves:     224
 k-point  53 :   0.3636-0.0000 0.2727  plane waves:     225
 k-point  54 :   0.4545-0.0000 0.2727  plane waves:     231
 k-point  55 :   0.0909 0.0909 0.2727  plane waves:     235
 k-point  56 :   0.1818 0.0909 0.2727  plane waves:     226
 k-point  57 :   0.2727 0.0909 0.2727  plane waves:     228
 k-point  58 :   0.3636 0.0909 0.2727  plane waves:     229
 k-point  59 :   0.4545 0.0909 0.2727  plane waves:     227
 k-point  60 :   0.1818 0.1818 0.2727  plane waves:     228
 k-point  61 :   0.2727 0.1818 0.2727  plane waves:     227
 k-point  62 :   0.3636 0.1818 0.2727  plane waves:     229
 k-point  63 :   0.2727 0.2727 0.2727  plane waves:     225
 k-point  64 :   0.3636 0.2727 0.2727  plane waves:     231
 k-point  65 :   0.0000 0.0000 0.3636  plane waves:     234
 k-point  66 :   0.0909-0.0000 0.3636  plane waves:     234
 k-point  67 :   0.1818-0.0000 0.3636  plane waves:     234
 k-point  68 :   0.2727-0.0000 0.3636  plane waves:     224
 k-point  69 :   0.3636-0.0000 0.3636  plane waves:     224
 k-point  70 :   0.4545-0.0000 0.3636  plane waves:     229
 k-point  71 :   0.0909 0.0909 0.3636  plane waves:     233
 k-point  72 :   0.1818 0.0909 0.3636  plane waves:     227
 k-point  73 :   0.2727 0.0909 0.3636  plane waves:     228
 k-point  74 :   0.3636 0.0909 0.3636  plane waves:     230
 k-point  75 :   0.4545 0.0909 0.3636  plane waves:     233
 k-point  76 :   0.1818 0.1818 0.3636  plane waves:     226
 k-point  77 :   0.2727 0.1818 0.3636  plane waves:     227
 k-point  78 :   0.3636 0.1818 0.3636  plane waves:     230
 k-point  79 :   0.2727 0.2727 0.3636  plane waves:     228
 k-point  80 :   0.3636 0.2727 0.3636  plane waves:     229
 k-point  81 :   0.0000 0.0000 0.4545  plane waves:     234
 k-point  82 :   0.0909-0.0000 0.4545  plane waves:     234
 k-point  83 :   0.1818-0.0000 0.4545  plane waves:     233
 k-point  84 :   0.2727-0.0000 0.4545  plane waves:     227
 k-point  85 :   0.3636-0.0000 0.4545  plane waves:     226
 k-point  86 :   0.4545-0.0000 0.4545  plane waves:     232
 k-point  87 :   0.0909 0.0909 0.4545  plane waves:     230
 k-point  88 :   0.1818 0.0909 0.4545  plane waves:     229
 k-point  89 :   0.2727 0.0909 0.4545  plane waves:     228
 k-point  90 :   0.3636 0.0909 0.4545  plane waves:     227
 k-point  91 :   0.4545 0.0909 0.4545  plane waves:     233
 k-point  92 :   0.1818 0.1818 0.4545  plane waves:     228
 k-point  93 :   0.2727 0.1818 0.4545  plane waves:     226
 k-point  94 :   0.3636 0.1818 0.4545  plane waves:     230
 k-point  95 :   0.2727 0.2727 0.4545  plane waves:     226
 k-point  96 :   0.3636 0.2727 0.4545  plane waves:     228

 maximum number of plane-waves:       245
 maximum index in each direction: 
   IXMAX=    3   IYMAX=    3   IZMAX=    5
   IXMIN=   -3   IYMIN=   -3   IZMIN=   -6


 total amount of memory used by VASP MPI-rank0    51501. kBytes
=======================================================================

   base      :      30000. kBytes
   nonl-proj :       3394. kBytes
   grid      :        812. kBytes
   one-center:         31. kBytes
   wavefun   :      17264. kBytes
 
     INWAV:  cpu time    0.0000: real time    0.0000
 Broyden mixing: mesh for mixing (old mesh)
   NGX =  7   NGY =  7   NGZ = 11
  (NGX  = 20   NGY  = 20   NGZ  = 36)
  gives a total of    539 points

 initial charge density was supplied:
 charge density of overlapping atoms calculated
 number of electron      16.0000000 magnetization 
 keeping initial charge density in first step


--------------------------------------------------------------------------------------------------------


 Maximum index for augmentation-charges         2904 (set IRDMAX)


--------------------------------------------------------------------------------------------------------


 First call to EWALD:  gamma=   0.638
 Maximum number of real-space cells 4x 4x 2
 Maximum number of reciprocal cells 2x 2x 4

    FEWALD:  cpu time    0.0009: real time    0.0009


--------------------------------------- Iteration      1(   1)  ---------------------------------------


    POTLOK:  cpu time    0.0040: real time    0.0040
    SETDIJ:  cpu time    0.0021: real time    0.0021
     EDDAV:  cpu time    0.8264: real time    0.8456
       DOS:  cpu time    0.0055: real time    0.0055
    --------------------------------------------
      LOOP:  cpu time    0.8380: real time    0.8572

 eigenvalue-minimisations  :  9216
 total energy-change (2. order) : 0.6053310E+02  (-0.2762399E+03)
 number of electron      16.0000000 magnetization 
 augmentation part       16.0000000 magnetization 

 Free energy of the ion-electron system (eV)
  ---------------------------------------------------
  alpha Z        PSCENC =       128.67270652
  Ewald energy   TEWEN  =     -1204.66787222
  -Hartree energ DENC   =      -215.92011692
  -exchange      EXHF   =         0.00000000
  -V(xc)+E(xc)   XCENC  =         8.16970242
  PAW double counting   =      1109.69170683    -1125.09647265
  entropy T*S    EENTRO =        -0.00344191
  eigenvalues    EBANDS =       171.11197747
  atomic energy  EATOM  =      1188.57490811
  Solvation  Ediel_sol  =         0.00000000
  ---------------------------------------------------
  free energy    TOTEN  =        60.53309765 eV

  energy without entropy =       60.53653956  energy(sigma->0) =       60.53424495


--------------------------------------------------------------------------------------------------------




--------------------------------------- Iteration      1(   2)  ---------------------------------------


     EDDAV:  cpu time    0.6988: real time    0.6988
       DOS:  cpu time    0.0063: real time    0.0063
    --------------------------------------------
      LOOP:  cpu time    0.7051: real time    0.7051

 eigenvalue-minimisations  :  7928
 total energy-change (2. order) :-0.7514749E+02  (-0.6363028E+02)
 number of electron      16.0000000 magnetization 
 augmentation part       16.0000000 magnetization 

 Free energy of the ion-electron system (eV)
  ---------------------------------------------------
  alpha Z        PSCENC =       128.67270652
  Ewald energy   TEWEN  =     -1204.66787222
  -Hartree energ DENC   =      -215.92011692
  -exchange      EXHF   =         0.00000000
  -V(xc)+E(xc)   XCENC  =         8.16970242
  PAW double counting   =      1109.69170683    -1125.09647265
  entropy T*S    EENTRO =         0.00128927
  eigenvalues    EBANDS =        95.95975647
  atomic energy  EATOM  =      1188.57490811
  Solvation  Ediel_sol  =         0.00000000
  ---------------------------------------------------
  free energy    TOTEN  =       -14.61439217 eV

  energy without entropy =      -14.61568144  energy(sigma->0) =      -14.61482193


--------------------------------------------------------------------------------------------------------




--------------------------------------- Iteration      1(   3)  ---------------------------------------


     EDDAV:  cpu time    0.7943: real time    0.7943
       DOS:  cpu time    0.0065: real time    0.0065
    --------------------------------------------
      LOOP:  cpu time    0.8008: real time    0.8008

 eigenvalue-minimisations  :  9504
 total energy-change (2. order) :-0.4515912E+01  (-0.4269036E+01)
 number of electron      16.0000000 magnetization 
 augmentation part       16.0000000 magnetization 

 Free energy of the ion-electron system (eV)
  ---------------------------------------------------
  alpha Z        PSCENC =       128.67270652
  Ewald energy   TEWEN  =     -1204.66787222
  -Hartree energ DENC   =      -215.92011692
  -exchange      EXHF   =         0.00000000
  -V(xc)+E(xc)   XCENC  =         8.16970242
  PAW double counting   =      1109.69170683    -1125.09647265
  entropy T*S    EENTRO =         0.00085928
  eigenvalues    EBANDS =        91.44427402
  atomic energy  EATOM  =      1188.57490811
  Solvation  Ediel_sol  =         0.00000000
  ---------------------------------------------------
  free energy    TOTEN  =       -19.13030460 eV

  energy without entropy =      -19.13116388  energy(sigma->0) =      -19.13059103


--------------------------------------------------------------------------------------------------------




--------------------------------------- Iteration      1(   4)  ---------------------------------------


     EDDAV:  cpu time    0.7695: real time    0.7695
       DOS:  cpu time    0.0063: real time    0.0063
    --------------------------------------------
      LOOP:  cpu time    0.7758: real time    0.7758

 eigenvalue-minimisations  :  9176
 total energy-change (2. order) :-0.2215592E-01  (-0.2214032E-01)
 number of electron      16.0000000 magnetization 
 augmentation part       16.0000000 magnetization 

 Free energy of the ion-electron system (eV)
  ---------------------------------------------------
  alpha Z        PSCENC =       128.67270652
  Ewald energy   TEWEN  =     -1204.66787222
  -Hartree energ DENC   =      -215.92011692
  -exchange      EXHF   =         0.00000000
  -V(xc)+E(xc)   XCENC  =         8.16970242
  PAW double counting   =      1109.69170683    -1125.09647265
  entropy T*S    EENTRO =         0.00090637
  eigenvalues    EBANDS =        91.42207102
  atomic energy  EATOM  =      1188.57490811
  Solvation  Ediel_sol  =         0.00000000
  ---------------------------------------------------
  free energy    TOTEN  =       -19.15246052 eV

  energy without entropy =      -19.15336688  energy(sigma->0) =      -19.15276264


--------------------------------------------------------------------------------------------------------




--------------------------------------- Iteration      1(   5)  ---------------------------------------


     EDDAV:  cpu time    0.7801: real time    0.7801
       DOS:  cpu time    0.0068: real time    0.0068
    CHARGE:  cpu time    0.0204: real time    0.0204
    MIXING:  cpu time    0.0002: real time    0.0002
    --------------------------------------------
      LOOP:  cpu time    0.8075: real time    0.8075

 eigenvalue-minimisations  :  9232
 total energy-change (2. order) :-0.3639418E-04  (-0.3639268E-04)
 number of electron      15.9999953 magnetization 
 augmentation part        7.0484450 magnetization 

 Broyden mixing:
  rms(total) = 0.16200E+01    rms(broyden)= 0.16200E+01
  rms(prec ) = 0.28442E+01
  weight for this iteration     100.00

 Free energy of the ion-electron system (eV)
  ---------------------------------------------------
  alpha Z        PSCENC =       128.67270652
  Ewald energy   TEWEN  =     -1204.66787222
  -Hartree energ DENC   =      -215.92011692
  -exchange      EXHF   =         0.00000000
  -V(xc)+E(xc)   XCENC  =         8.16970242
  PAW double counting   =      1109.69170683    -1125.09647265
  entropy T*S    EENTRO =         0.00090645
  eigenvalues    EBANDS =        91.42203455
  atomic energy  EATOM  =      1188.57490811
  Solvation  Ediel_sol  =         0.00000000
  ---------------------------------------------------
  free energy    TOTEN  =       -19.15249691 eV

  energy without entropy =      -19.15340336  energy(sigma->0) =      -19.15279906


--------------------------------------------------------------------------------------------------------




--------------------------------------- Iteration      1(   6)  ---------------------------------------


    POTLOK:  cpu time    0.0033: real time    0.0033
    SETDIJ:  cpu time    0.0021: real time    0.0021
     EDDAV:  cpu time    0.9129: real time    0.9129
       DOS:  cpu time    0.0069: real time    0.0069
    CHARGE:  cpu time    0.0197: real time    0.0197
    MIXING:  cpu time    0.0002: real time    0.0002
    --------------------------------------------
      LOOP:  cpu time    0.9451: real time    0.9451

 eigenvalue-minimisations  : 11160
 total energy-change (2. order) : 0.2863963E+01  (-0.2073798E+00)
 number of electron      15.9999945 magnetization 
 augmentation part        8.5672163 magnetization 

 Broyden mixing:
  rms(total) = 0.32427E+00    rms(broyden)= 0.32415E+00
  rms(prec ) = 0.55918E+00
  weight for this iteration     100.00

 eigenvalues of (default mixing * dielectric matrix)
  average eigenvalue GAMMA=   0.8830
  0.8830

 Free energy of the ion-electron system (eV)
  ---------------------------------------------------
  alpha Z        PSCENC =       128.67270652
  Ewald energy   TEWEN  =     -1204.66787222
  -Hartree energ DENC   =      -180.05448755
  -exchange      EXHF   =         0.00000000
  -V(xc)+E(xc)   XCENC  =         6.42417926
  PAW double counting   =      1227.42214981    -1237.97747792
  entropy T*S    EENTRO =         0.00333226
  eigenvalues    EBANDS =        55.31402760
  atomic energy  EATOM  =      1188.57490811
  Solvation  Ediel_sol  =         0.00000000
  ---------------------------------------------------
  free energy    TOTEN  =       -16.28853413 eV

  energy without entropy =      -16.29186639  energy(sigma->0) =      -16.28964489


--------------------------------------------------------------------------------------------------------




--------------------------------------- Iteration      1(   7)  ---------------------------------------


    POTLOK:  cpu time    0.0033: real time    0.0033
    SETDIJ:  cpu time    0.0020: real time    0.0020
     EDDAV:  cpu time    0.8367: real time    0.8367
       DOS:  cpu time    0.0067: real time    0.0067
    CHARGE:  cpu time    0.0197: real time    0.0197
    MIXING:  cpu time    0.0002: real time    0.0002
    --------------------------------------------
      LOOP:  cpu time    0.8687: real time    0.8687

 eigenvalue-minimisations  : 10184
 total energy-change (2. order) : 0.2607433E+00  (-0.1637404E-01)
 number of electron      15.9999947 magnetization 
 augmentation part        8.1888114 magnetization 

 Broyden mixing:
  rms(total) = 0.10171E+00    rms(broyden)= 0.10171E+00
  rms(prec ) = 0.20328E+00
  weight for this iteration     100.00

 eigenvalues of (default mixing * dielectric matrix)
  average eigenvalue GAMMA=   0.9429
  1.1661  0.7196

 Free energy of the ion-electron system (eV)
  ---------------------------------------------------
  alpha Z        PSCENC =       128.67270652
  Ewald energy   TEWEN  =     -1204.66787222
  -Hartree energ DENC   =      -185.74165167
  -exchange      EXHF   =         0.00000000
  -V(xc)+E(xc)   XCENC  =         6.73323060
  PAW double counting   =      1297.94230658    -1312.16863558
  entropy T*S    EENTRO =         0.00345291
  eigenvalues    EBANDS =        64.62376391
  atomic energy  EATOM  =      1188.57490811
  Solvation  Ediel_sol  =         0.00000000
  ---------------------------------------------------
  free energy    TOTEN  =       -16.02779083 eV

  energy without entropy =      -16.03124374  energy(sigma->0) =      -16.02894180


--------------------------------------------------------------------------------------------------------




--------------------------------------- Iteration      1(   8)  ---------------------------------------


    POTLOK:  cpu time    0.0032: real time    0.0032
    SETDIJ:  cpu time    0.0021: real time    0.0021
     EDDAV:  cpu time    0.8331: real time    0.8331
       DOS:  cpu time    0.0063: real time    0.0063
    CHARGE:  cpu time    0.0199: real time    0.0199
    MIXING:  cpu time    0.0002: real time    0.0002
    --------------------------------------------
      LOOP:  cpu time    0.8648: real time    0.8648

 eigenvalue-minimisations  : 10136
 total energy-change (2. order) : 0.2516394E-01  (-0.4510213E-03)
 number of electron      15.9999947 magnetization 
 augmentation part        8.2227508 magnetization 

 Broyden mixing:
  rms(total) = 0.46576E-01    rms(broyden)= 0.46575E-01
  rms(prec ) = 0.91919E-01
  weight for this iteration     100.00

 eigenvalues of (default mixing * dielectric matrix)
  average eigenvalue GAMMA=   1.4280
  0.7595  1.0425  2.4822

 Free energy of the ion-electron system (eV)
  ---------------------------------------------------
  alpha Z        PSCENC =       128.67270652
  Ewald energy   TEWEN  =     -1204.66787222
  -Hartree energ DENC   =      -183.66418378
  -exchange      EXHF   =         0.00000000
  -V(xc)+E(xc)   XCENC  =         6.65115370
  PAW double counting   =      1349.95549063    -1365.39930007
  entropy T*S    EENTRO =         0.00353860
  eigenvalues    EBANDS =        63.87093160
  atomic energy  EATOM  =      1188.57490811
  Solvation  Ediel_sol  =         0.00000000
  ---------------------------------------------------
  free energy    TOTEN  =       -16.00262689 eV

  energy without entropy =      -16.00616550  energy(sigma->0) =      -16.00380643


--------------------------------------------------------------------------------------------------------




--------------------------------------- Iteration      1(   9)  ---------------------------------------


    POTLOK:  cpu time    0.0034: real time    0.0034
    SETDIJ:  cpu time    0.0021: real time    0.0021
     EDDAV:  cpu time    0.9193: real time    0.9194
       DOS:  cpu time    0.0069: real time    0.0069
    CHARGE:  cpu time    0.0200: real time    0.0200
    MIXING:  cpu time    0.0002: real time    0.0002
    --------------------------------------------
      LOOP:  cpu time    0.9520: real time    0.9520

 eigenvalue-minimisations  : 11256
 total energy-change (2. order) : 0.1050262E-01  (-0.8976881E-04)
 number of electron      15.9999947 magnetization 
 augmentation part        8.2397652 magnetization 

 Broyden mixing:
  rms(total) = 0.61987E-02    rms(broyden)= 0.61953E-02
  rms(prec ) = 0.65121E-02
  weight for this iteration     100.00

 eigenvalues of (default mixing * dielectric matrix)
  average eigenvalue GAMMA=   1.4710
  2.5485  0.7581  0.9966  1.5810

 Free energy of the ion-electron system (eV)
  ---------------------------------------------------
  alpha Z        PSCENC =       128.67270652
  Ewald energy   TEWEN  =     -1204.66787222
  -Hartree energ DENC   =      -181.58793966
  -exchange      EXHF   =         0.00000000
  -V(xc)+E(xc)   XCENC  =         6.57689112
  PAW double counting   =      1420.08337582    -1437.19418290
  entropy T*S    EENTRO =         0.00354115
  eigenvalues    EBANDS =        63.54644777
  atomic energy  EATOM  =      1188.57490811
  Solvation  Ediel_sol  =         0.00000000
  ---------------------------------------------------
  free energy    TOTEN  =       -15.99212428 eV

  energy without entropy =      -15.99566543  energy(sigma->0) =      -15.99330466


--------------------------------------------------------------------------------------------------------




--------------------------------------- Iteration      1(  10)  ---------------------------------------


    POTLOK:  cpu time    0.0034: real time    0.0034
    SETDIJ:  cpu time    0.0021: real time    0.0021
     EDDAV:  cpu time    0.7667: real time    0.7667
       DOS:  cpu time    0.0068: real time    0.0068
    CHARGE:  cpu time    0.0200: real time    0.0200
    MIXING:  cpu time    0.0002: real time    0.0002
    --------------------------------------------
      LOOP:  cpu time    0.7992: real time    0.7992

 eigenvalue-minimisations  :  9144
 total energy-change (2. order) :-0.2774815E-04  (-0.3853803E-05)
 number of electron      15.9999947 magnetization 
 augmentation part        8.2404154 magnetization 

 Broyden mixing:
  rms(total) = 0.28431E-02    rms(broyden)= 0.28410E-02
  rms(prec ) = 0.33377E-02
  weight for this iteration     100.00

 eigenvalues of (default mixing * dielectric matrix)
  average eigenvalue GAMMA=   1.6141
  2.5503  2.5503  0.7583  1.0114  1.2002

 Free energy of the ion-electron system (eV)
  ---------------------------------------------------
  alpha Z        PSCENC =       128.67270652
  Ewald energy   TEWEN  =     -1204.66787222
  -Hartree energ DENC   =      -181.56085005
  -exchange      EXHF   =         0.00000000
  -V(xc)+E(xc)   XCENC  =         6.57702896
  PAW double counting   =      1423.29492323    -1440.41352885
  entropy T*S    EENTRO =         0.00353733
  eigenvalues    EBANDS =        63.52699494
  atomic energy  EATOM  =      1188.57490811
  Solvation  Ediel_sol  =         0.00000000
  ---------------------------------------------------
  free energy    TOTEN  =       -15.99215202 eV

  energy without entropy =      -15.99568936  energy(sigma->0) =      -15.99333113


--------------------------------------------------------------------------------------------------------




--------------------------------------- Iteration      1(  11)  ---------------------------------------


    POTLOK:  cpu time    0.0033: real time    0.0033
    SETDIJ:  cpu time    0.0021: real time    0.0021
     EDDAV:  cpu time    0.7807: real time    0.7807
       DOS:  cpu time    0.0068: real time    0.0068
    CHARGE:  cpu time    0.0198: real time    0.0198
    MIXING:  cpu time    0.0002: real time    0.0002
    --------------------------------------------
      LOOP:  cpu time    0.8130: real time    0.8130

 eigenvalue-minimisations  :  9288
 total energy-change (2. order) : 0.5116375E-05  (-0.6035691E-07)
 number of electron      15.9999947 magnetization 
 augmentation part        8.2401745 magnetization 

 Broyden mixing:
  rms(total) = 0.18661E-03    rms(broyden)= 0.18608E-03
  rms(prec ) = 0.21348E-03
  weight for this iteration     100.00

 eigenvalues of (default mixing * dielectric matrix)
  average eigenvalue GAMMA=   1.5309
  2.5698  2.5698  0.7582  1.0003  1.0003  1.2870

 Free energy of the ion-electron system (eV)
  ---------------------------------------------------
  alpha Z        PSCENC =       128.67270652
  Ewald energy   TEWEN  =     -1204.66787222
  -Hartree energ DENC   =      -181.61521225
  -exchange      EXHF   =         0.00000000
  -V(xc)+E(xc)   XCENC  =         6.57974337
  PAW double counting   =      1423.26093469    -1440.32839660
  entropy T*S    EENTRO =         0.00353742
  eigenvalues    EBANDS =        63.52750405
  atomic energy  EATOM  =      1188.57490811
  Solvation  Ediel_sol  =         0.00000000
  ---------------------------------------------------
  free energy    TOTEN  =       -15.99214691 eV

  energy without entropy =      -15.99568433  energy(sigma->0) =      -15.99332605


--------------------------------------------------------------------------------------------------------




--------------------------------------- Iteration      1(  12)  ---------------------------------------


    POTLOK:  cpu time    0.0034: real time    0.0034
    SETDIJ:  cpu time    0.0020: real time    0.0020
     EDDAV:  cpu time    0.6145: real time    0.6145
       DOS:  cpu time    0.0068: real time    0.0068
    --------------------------------------------
      LOOP:  cpu time    0.6267: real time    0.6267

 eigenvalue-minimisations  :  5984
 total energy-change (2. order) : 0.4895332E-06  (-0.3319953E-08)
 number of electron      15.9999947 magnetization 
 augmentation part        8.2401745 magnetization 

 Free energy of the ion-electron system (eV)
  ---------------------------------------------------
  alpha Z        PSCENC =       128.67270652
  Ewald energy   TEWEN  =     -1204.66787222
  -Hartree energ DENC   =      -181.61850711
  -exchange      EXHF   =         0.00000000
  -V(xc)+E(xc)   XCENC  =         6.57992931
  PAW double counting   =      1423.36952291    -1440.43324740
  entropy T*S    EENTRO =         0.00353756
  eigenvalues    EBANDS =        63.52687589
  atomic energy  EATOM  =      1188.57490811
  Solvation  Ediel_sol  =         0.00000000
  ---------------------------------------------------
  free energy    TOTEN  =       -15.99214642 eV

  energy without entropy =      -15.99568397  energy(sigma->0) =      -15.99332560


--------------------------------------------------------------------------------------------------------




 average (electrostatic) potential at core
  the test charge radii are     1.0103
  (the norm of the test charge is              1.0000)
       1 -43.1571       2 -43.1569
 
 
 
 E-fermi :   6.3194     XC(G=0): -13.4798     alpha+bet :-14.4290

 Fermi energy:         6.3194202076

 k-point     1 :       0.0000    0.0000    0.0000
  band No.  band energies     occupation 
      1      -2.2765      2.00000
      2       1.5513      2.00000
      3       4.1693      2.00000
      4       4.8659      2.00000
      5       4.8661      2.00000
      6       5.1256      2.00000
      7       5.1257      2.00000
      8       5.4819      2.00000
      9       6.0985      2.06572
     10       6.0985      2.06571
     11       7.0030     -0.00001
     12       7.0031     -0.00001
     13      12.8530      0.00000
     14      28.6111      0.00000
     15      29.5331      0.00000
     16      32.2609      0.00000
     17      34.2842      0.00000
     18      34.2843      0.00000
     19      34.8124      0.00000
     20      35.0943      0.00000
     21      35.0946      0.00000
     22      37.9950      0.00000
     23      37.9950      0.00000
     24      38.9641      0.00000
     25      41.2049      0.00000
     26      41.2049      0.00000
     27      41.4030      0.00000
     28      44.6165      0.00000
     29      44.6169      0.00000
     30      46.3086      0.00000
     31      46.3087      0.00000
     32      48.4689      0.00000
     33      56.0219      0.00000
     34      59.9630      0.00000
     35      59.9642      0.00000
     36      60.4567      0.00000
     37      60.9678      0.00000
     38      61.5182      0.00000
     39      61.5185      0.00000
     40      61.5698      0.00000

 k-point     2 :       0.0909   -0.0000    0.0000
  band No.  band energies     occupation 
      1      -1.9554      2.00000
      2       1.7952      2.00000
      3       4.2115      2.00000
      4       4.7612      2.00000
      5       4.7831      2.00000
      6       5.0164      2.00000
      7       5.0476      2.00000
      8       5.2957      2.00000
      9       5.9486      2.02489
     10       5.9983      2.04563
     11       7.0288     -0.00001
     12       7.9962     -0.00000
     13      12.8828      0.00000
     14      28.0992      0.00000
     15      28.9947      0.00000
     16      30.5477      0.00000
     17      31.5856      0.00000
     18      33.9817      0.00000
     19      33.9953      0.00000
     20      34.6976      0.00000
     21      37.2964      0.00000
     22      37.6653      0.00000
     23      38.0112      0.00000
     24      38.6295      0.00000
     25      42.0043      0.00000
     26      42.2716      0.00000
     27      42.4836      0.00000
     28      42.9498      0.00000
     29      46.0697      0.00000
     30      47.5854      0.00000
     31      48.8185      0.00000
     32      50.6105      0.00000
     33      55.6987      0.00000
     34      57.7580      0.00000
     35      58.4439      0.00000
     36      58.9138      0.00000
     37      59.7463      0.00000
     38      61.3943      0.00000
     39      62.7571      0.00000
     40      62.9594      0.00000

 k-point     3 :       0.1818   -0.0000    0.0000
  band No.  band energies     occupation 
      1      -1.0432      2.00000
      2       2.3780      2.00000
      3       3.8246      2.00000
      4       4.1138      2.00000
      5       4.5836      2.00000
      6       5.0914      2.00000
      7       5.5540      2.00000
      8       5.5916      2.00000
      9       5.7611      2.00057
     10       5.7676      2.00067
     11       7.0709     -0.00000
     12       9.6931     -0.00000
     13      13.0024      0.00000
     14      24.2425      0.00000
     15      28.8441      0.00000
     16      29.2810      0.00000
     17      29.4908      0.00000
     18      30.2206      0.00000
     19      33.8118      0.00000
     20      34.9581      0.00000
     21      35.1966      0.00000
     22      36.3079      0.00000
     23      38.6747      0.00000
     24      39.2477      0.00000
     25      42.3115      0.00000
     26      43.6747      0.00000
     27      45.1763      0.00000
     28      47.2268      0.00000
     29      48.4995      0.00000
     30      51.3422      0.00000
     31      51.6818      0.00000
     32      54.0263      0.00000
     33      54.6629      0.00000
     34      54.6825      0.00000
     35      56.7223      0.00000
     36      58.1589      0.00000
     37      59.4423      0.00000
     38      61.2577      0.00000
     39      63.3989      0.00000
     40      64.4675      0.00000

 k-point     4 :       0.2727   -0.0000    0.0000
  band No.  band energies     occupation 
      1       0.2680      2.00000
      2       2.6890      2.00000
      3       3.1067      2.00000
      4       4.0933      2.00000
      5       4.3971      2.00000
      6       5.1409      2.00000
      7       5.4889      2.00000
      8       5.7777      2.00087
      9       6.2723      1.38680
     10       6.4261      0.22435
     11       7.0853     -0.00000
     12      11.6481     -0.00000
     13      13.2772      0.00000
     14      20.2439      0.00000
     15      25.9078      0.00000
     16      26.5116      0.00000
     17      27.4306      0.00000
     18      30.4605      0.00000
     19      32.0581      0.00000
     20      34.6484      0.00000
     21      35.5625      0.00000
     22      35.6249      0.00000
     23      36.2225      0.00000
     24      39.6501      0.00000
     25      45.9982      0.00000
     26      47.2969      0.00000
     27      48.6259      0.00000
     28      49.3569      0.00000
     29      49.7974      0.00000
     30      51.7250      0.00000
     31      52.8965      0.00000
     32      54.0328      0.00000
     33      56.1908      0.00000
     34      56.7846      0.00000
     35      57.5989      0.00000
     36      59.2158      0.00000
     37      61.0018      0.00000
     38      61.2482      0.00000
     39      63.8073      0.00000
     40      64.2385      0.00000

 k-point     5 :       0.3636   -0.0000    0.0000
  band No.  band energies     occupation 
      1       1.4833      2.00000
      2       2.4528      2.00000
      3       2.6418      2.00000
      4       4.2033      2.00000
      5       4.7377      2.00000
      6       4.8219      2.00000
      7       5.2605      2.00000
      8       6.9302     -0.00014
      9       6.9911     -0.00002
     10       7.0784     -0.00000
     11       7.0839     -0.00000
     12      13.3815      0.00000
     13      13.7697      0.00000
     14      17.2439      0.00000
     15      22.6062      0.00000
     16      24.4381      0.00000
     17      24.7381      0.00000
     18      29.7649      0.00000
     19      31.1389      0.00000
     20      34.2354      0.00000
     21      35.0722      0.00000
     22      36.3581      0.00000
     23      36.4899      0.00000
     24      39.7853      0.00000
     25      46.3576      0.00000
     26      48.0529      0.00000
     27      49.3554      0.00000
     28      52.2899      0.00000
     29      52.6004      0.00000
     30      52.8939      0.00000
     31      54.7497      0.00000
     32      56.1916      0.00000
     33      56.3374      0.00000
     34      58.5047      0.00000
     35      60.4371      0.00000
     36      60.7931      0.00000
     37      61.9296      0.00000
     38      62.8028      0.00000
     39      64.6093      0.00000
     40      65.2055      0.00000

 k-point     6 :       0.4545   -0.0000    0.0000
  band No.  band energies     occupation 
      1       2.0107      2.00000
      2       2.2070      2.00000
      3       2.4183      2.00000
      4       4.5030      2.00000
      5       4.7240      2.00000
      6       5.0452      2.00000
      7       5.1331      2.00000
      8       7.0694     -0.00000
      9       7.4356     -0.00000
     10       7.5266     -0.00000
     11       8.5294     -0.00000
     12      11.7896      0.00000
     13      15.8169      0.00000
     14      17.0822      0.00000
     15      20.0024      0.00000
     16      21.6940      0.00000
     17      23.7544      0.00000
     18      29.1928      0.00000
     19      30.8491      0.00000
     20      33.1478      0.00000
     21      34.8534      0.00000
     22      37.2682      0.00000
     23      38.9743      0.00000
     24      39.2612      0.00000
     25      43.0145      0.00000
     26      48.1512      0.00000
     27      50.3188      0.00000
     28      54.0884      0.00000
     29      55.1621      0.00000
     30      55.6919      0.00000
     31      56.3649      0.00000
     32      58.1610      0.00000
     33      58.9953      0.00000
     34      59.8854      0.00000
     35      60.7061      0.00000
     36      60.7457      0.00000
     37      63.7126      0.00000
     38      64.1651      0.00000
     39      64.1797      0.00000
     40      65.0530      0.00000

 k-point     7 :       0.0909    0.0909    0.0000
  band No.  band energies     occupation 
      1      -1.3364      2.00000
      2       2.2258      2.00000
      3       4.0685      2.00000
      4       4.1377      2.00000
      5       4.7931      2.00000
      6       4.8068      2.00000
      7       5.4183      2.00000
      8       5.5924      2.00000
      9       5.6612      2.00003
     10       5.9508      2.02566
     11       7.0307     -0.00001
     12       9.2167     -0.00000
     13      12.9611      0.00000
     14      26.0302      0.00000
     15      27.1352      0.00000
     16      29.6230      0.00000
     17      31.2864      0.00000
     18      32.6985      0.00000
     19      32.8964      0.00000
     20      33.7866      0.00000
     21      34.4892      0.00000
     22      39.2630      0.00000
     23      39.7538      0.00000
     24      40.0171      0.00000
     25      41.3895      0.00000
     26      41.5573      0.00000
     27      41.9025      0.00000
     28      47.9349      0.00000
     29      49.4527      0.00000
     30      49.6003      0.00000
     31      49.6743      0.00000
     32      53.7111      0.00000
     33      55.0753      0.00000
     34      55.3955      0.00000
     35      56.5764      0.00000
     36      58.0391      0.00000
     37      59.3445      0.00000
     38      62.0073      0.00000
     39      63.1953      0.00000
     40      64.1397      0.00000

 k-point     8 :       0.1818    0.0909    0.0000
  band No.  band energies     occupation 
      1      -0.2025      2.00000
      2       2.7911      2.00000
      3       3.3648      2.00000
      4       3.8832      2.00000
      5       4.5011      2.00000
      6       5.1723      2.00000
      7       5.1904      2.00000
      8       5.7126      2.00015
      9       6.0779      2.07083
     10       6.3338      0.87844
     11       7.0161     -0.00001
     12      10.9580     -0.00000
     13      13.1968      0.00000
     14      22.2941      0.00000
     15      24.8452      0.00000
     16      27.7787      0.00000
     17      29.8296      0.00000
     18      30.1553      0.00000
     19      32.7416      0.00000
     20      33.0447      0.00000
     21      34.1785      0.00000
     22      38.1443      0.00000
     23      39.0460      0.00000
     24      39.9792      0.00000
     25      43.0870      0.00000
     26      44.1607      0.00000
     27      46.1221      0.00000
     28      49.4894      0.00000
     29      51.5225      0.00000
     30      52.1904      0.00000
     31      52.4690      0.00000
     32      54.3425      0.00000
     33      55.4889      0.00000
     34      55.7178      0.00000
     35      56.6927      0.00000
     36      57.2415      0.00000
     37      60.3794      0.00000
     38      62.2971      0.00000
     39      63.9404      0.00000
     40      64.4843      0.00000

 k-point     9 :       0.2727    0.0909    0.0000
  band No.  band energies     occupation 
      1       1.1447      2.00000
      2       2.7672      2.00000
      3       2.8517      2.00000
      4       3.9503      2.00000
      5       4.5613      2.00000
      6       4.8076      2.00000
      7       5.3790      2.00000
      8       5.9212      2.01646
      9       6.7960     -0.00385
     10       6.9961     -0.00002
     11       7.2105     -0.00000
     12      12.9741      0.00000
     13      13.6276      0.00000
     14      18.5915      0.00000
     15      23.1996      0.00000
     16      24.3494      0.00000
     17      26.7225      0.00000
     18      28.7790      0.00000
     19      32.1785      0.00000
     20      33.5169      0.00000
     21      34.2968      0.00000
     22      37.6601      0.00000
     23      38.3415      0.00000
     24      41.1431      0.00000
     25      44.9311      0.00000
     26      47.6462      0.00000
     27      48.6516      0.00000
     28      48.6553      0.00000
     29      50.9465      0.00000
     30      52.9498      0.00000
     31      54.0083      0.00000
     32      55.9123      0.00000
     33      56.9753      0.00000
     34      57.7794      0.00000
     35      59.5169      0.00000
     36      61.7020      0.00000
     37      62.2330      0.00000
     38      62.4775      0.00000
     39      63.1151      0.00000
     40      64.6203      0.00000

 k-point    10 :       0.3636    0.0909    0.0000
  band No.  band energies     occupation 
      1       2.0396      2.00000
      2       2.4697      2.00000
      3       2.5559      2.00000
      4       4.3077      2.00000
      5       4.5620      2.00000
      6       4.9350      2.00000
      7       5.1021      2.00000
      8       6.8040     -0.00325
      9       6.9724     -0.00004
     10       7.2820     -0.00000
     11       8.3327     -0.00000
     12      13.1203      0.00000
     13      15.1331      0.00000
     14      16.9097      0.00000
     15      21.3418      0.00000
     16      21.8705      0.00000
     17      23.5170      0.00000
     18      27.9425      0.00000
     19      31.2587      0.00000
     20      33.0419      0.00000
     21      35.8824      0.00000
     22      38.0713      0.00000
     23      38.8285      0.00000
     24      40.4945      0.00000
     25      44.9932      0.00000
     26      47.5317      0.00000
     27      48.8746      0.00000
     28      51.0025      0.00000
     29      52.2887      0.00000
     30      54.6195      0.00000
     31      55.9807      0.00000
     32      57.8043      0.00000
     33      58.8823      0.00000
     34      60.4026      0.00000
     35      60.9791      0.00000
     36      61.9611      0.00000
     37      62.5557      0.00000
     38      63.5348      0.00000
     39      64.4205      0.00000
     40      65.1957      0.00000

 k-point    11 :       0.4545    0.0909    0.0000
  band No.  band energies     occupation 
      1       2.2470      2.00000
      2       2.3337      2.00000
      3       2.4614      2.00000
      4       4.4771      2.00000
      5       4.6980      2.00000
      6       4.9956      2.00000
      7       5.0220      2.00000
      8       6.9624     -0.00005
      9       7.3157     -0.00000
     10       7.3410     -0.00000
     11       9.5135     -0.00000
     12      11.5236     -0.00000
     13      16.6258      0.00000
     14      17.5329      0.00000
     15      19.5824      0.00000
     16      20.8285      0.00000
     17      22.2681      0.00000
     18      27.6470      0.00000
     19      30.8874      0.00000
[...]
     18      25.3845      0.00000
     19      30.6538      0.00000
     20      31.5346      0.00000
     21      34.4695      0.00000
     22      34.8961      0.00000
     23      39.8900      0.00000
     24      41.0150      0.00000
     25      46.4942      0.00000
     26      48.2150      0.00000
     27      50.4180      0.00000
     28      51.4453      0.00000
     29      53.1701      0.00000
     30      54.9942      0.00000
     31      57.6120      0.00000
     32      57.7960      0.00000
     33      59.2175      0.00000
     34      59.7700      0.00000
     35      61.2419      0.00000
     36      61.6120      0.00000
     37      62.3256      0.00000
     38      62.7984      0.00000
     39      64.5919      0.00000
     40      65.1104      0.00000

 k-point    91 :       0.4545    0.0909    0.4545
  band No.  band energies     occupation 
      1       1.9425      2.00000
      2       2.0657      2.00000
      3       3.1959      2.00000
      4       3.2571      2.00000
      5       5.3845      2.00000
      6       5.7384      2.00031
      7       6.3276      0.93065
      8       6.6118     -0.05863
      9       7.1414     -0.00000
     10       7.1859     -0.00000
     11       9.4558     -0.00000
     12       9.9025     -0.00000
     13      15.4382      0.00000
     14      15.4714      0.00000
     15      23.6597      0.00000
     16      24.3421      0.00000
     17      24.9205      0.00000
     18      25.3300      0.00000
     19      30.1763      0.00000
     20      30.5189      0.00000
     21      33.9432      0.00000
     22      33.9643      0.00000
     23      39.9254      0.00000
     24      41.0561      0.00000
     25      46.5687      0.00000
     26      48.2644      0.00000
     27      52.6523      0.00000
     28      54.3635      0.00000
     29      55.3605      0.00000
     30      55.6459      0.00000
     31      56.0570      0.00000
     32      56.1479      0.00000
     33      59.5903      0.00000
     34      59.7379      0.00000
     35      62.3619      0.00000
     36      62.4271      0.00000
     37      63.0422      0.00000
     38      63.2886      0.00000
     39      65.1227      0.00000
     40      66.0108      0.00000

 k-point    92 :       0.1818    0.1818    0.4545
  band No.  band energies     occupation 
      1       1.8551      2.00000
      2       2.1312      2.00000
      3       3.7140      2.00000
      4       3.7734      2.00000
      5       4.1793      2.00000
      6       4.2221      2.00000
      7       5.7203      2.00019
      8       5.9279      2.01831
      9       6.9375     -0.00011
     10       7.0922     -0.00000
     11       7.5374     -0.00000
     12       7.9905     -0.00000
     13      21.2163      0.00000
     14      21.7248      0.00000
     15      22.2845      0.00000
     16      22.9614      0.00000
     17      23.4794      0.00000
     18      24.3066      0.00000
     19      34.6981      0.00000
     20      35.7725      0.00000
     21      36.5094      0.00000
     22      37.5807      0.00000
     23      38.8419      0.00000
     24      39.0226      0.00000
     25      44.7099      0.00000
     26      45.0847      0.00000
     27      48.6830      0.00000
     28      50.1411      0.00000
     29      51.7155      0.00000
     30      52.2178      0.00000
     31      54.2859      0.00000
     32      54.9043      0.00000
     33      57.2846      0.00000
     34      57.4167      0.00000
     35      59.1764      0.00000
     36      59.5542      0.00000
     37      62.2473      0.00000
     38      63.0369      0.00000
     39      64.4144      0.00000
     40      64.6291      0.00000

 k-point    93 :       0.2727    0.1818    0.4545
  band No.  band energies     occupation 
      1       2.3089      2.00000
      2       2.4113      2.00000
      3       3.5314      2.00000
      4       3.6956      2.00000
      5       4.4981      2.00000
      6       4.6192      2.00000
      7       5.6052      2.00001
      8       5.8138      2.00204
      9       7.0294     -0.00001
     10       7.2759     -0.00000
     11       8.9711     -0.00000
     12       9.4414     -0.00000
     13      18.5276      0.00000
     14      19.0615      0.00000
     15      21.1864      0.00000
     16      21.8673      0.00000
     17      23.5880      0.00000
     18      25.1795      0.00000
     19      32.3338      0.00000
     20      33.9173      0.00000
     21      34.8694      0.00000
     22      36.3749      0.00000
     23      39.8325      0.00000
     24      40.2756      0.00000
     25      46.2976      0.00000
     26      46.8187      0.00000
     27      49.8317      0.00000
     28      51.7531      0.00000
     29      53.3109      0.00000
     30      54.9767      0.00000
     31      56.2882      0.00000
     32      57.1744      0.00000
     33      58.9400      0.00000
     34      59.1434      0.00000
     35      60.2983      0.00000
     36      60.6084      0.00000
     37      61.3387      0.00000
     38      62.1134      0.00000
     39      64.5717      0.00000
     40      64.9147      0.00000

 k-point    94 :       0.3636    0.1818    0.4545
  band No.  band energies     occupation 
      1       2.3805      2.00000
      2       2.5099      2.00000
      3       3.4456      2.00000
      4       3.5971      2.00000
      5       4.6366      2.00000
      6       4.9127      2.00000
      7       5.8844      2.00873
      8       5.9853      2.03967
      9       7.0101     -0.00001
     10       7.1675     -0.00000
     11      10.6406     -0.00000
     12      11.0491     -0.00000
     13      15.9190      0.00000
     14      16.2797      0.00000
     15      20.6043      0.00000
     16      21.3019      0.00000
     17      25.1613      0.00000
     18      26.2013      0.00000
     19      30.5810      0.00000
     20      31.5997      0.00000
     21      34.0513      0.00000
     22      35.5192      0.00000
     23      40.3323      0.00000
     24      40.6931      0.00000
     25      49.6689      0.00000
     26      50.4829      0.00000
     27      50.5316      0.00000
     28      52.0255      0.00000
     29      54.0121      0.00000
     30      54.9918      0.00000
     31      55.3966      0.00000
     32      56.3185      0.00000
     33      58.5571      0.00000
     34      59.3842      0.00000
     35      60.6982      0.00000
     36      61.9435      0.00000
     37      63.2698      0.00000
     38      63.4952      0.00000
     39      64.2301      0.00000
     40      64.5239      0.00000

 k-point    95 :       0.2727    0.2727    0.4545
  band No.  band energies     occupation 
      1       2.7631      2.00000
      2       2.8064      2.00000
      3       3.6429      2.00000
      4       3.8383      2.00000
      5       4.2108      2.00000
      6       4.3883      2.00000
      7       5.4792      2.00000
      8       5.6602      2.00003
      9       7.0239     -0.00001
     10       7.1951     -0.00000
     11      11.0301     -0.00000
     12      11.5215     -0.00000
     13      17.0951      0.00000
     14      17.4806      0.00000
     15      18.7087      0.00000
     16      19.0728      0.00000
     17      25.2975      0.00000
     18      26.8074      0.00000
     19      30.7448      0.00000
     20      32.0212      0.00000
     21      33.7171      0.00000
     22      34.7238      0.00000
     23      42.8736      0.00000
     24      43.2686      0.00000
     25      46.6162      0.00000
     26      46.7306      0.00000
     27      52.3686      0.00000
     28      53.8030      0.00000
     29      54.4358      0.00000
     30      54.6826      0.00000
     31      56.5682      0.00000
     32      56.7150      0.00000
     33      57.8784      0.00000
     34      57.9162      0.00000
     35      59.2233      0.00000
     36      60.0231      0.00000
     37      63.1957      0.00000
     38      63.5915      0.00000
     39      64.5050      0.00000
     40      64.5509      0.00000

 k-point    96 :       0.3636    0.2727    0.4545
  band No.  band energies     occupation 
      1       2.9609      2.00000
      2       3.0739      2.00000
      3       3.6047      2.00000
      4       3.6990      2.00000
      5       4.1880      2.00000
      6       4.3116      2.00000
      7       5.5185      2.00000
      8       5.6563      2.00003
      9       7.0073     -0.00001
     10       7.0688     -0.00000
     11      12.8266      0.00000
     12      12.9534      0.00000
     13      15.4161      0.00000
     14      15.7072      0.00000
     15      18.0620      0.00000
     16      18.5008      0.00000
     17      27.0205      0.00000
     18      27.6005      0.00000
     19      29.7349      0.00000
     20      30.1394      0.00000
     21      33.3960      0.00000
     22      34.1833      0.00000
     23      43.9368      0.00000
     24      44.5314      0.00000
     25      48.6041      0.00000
     26      49.0333      0.00000
     27      50.7914      0.00000
     28      51.1941      0.00000
     29      54.0350      0.00000
     30      54.7637      0.00000
     31      56.4958      0.00000
     32      57.1671      0.00000
     33      57.6176      0.00000
     34      58.1226      0.00000
     35      59.8337      0.00000
     36      60.7039      0.00000
     37      61.8541      0.00000
     38      62.2577      0.00000
     39      65.9526      0.00000
     40      65.9737      0.00000


--------------------------------------------------------------------------------------------------------


 soft charge-density along one line, spin component           1
         0         1         2         3         4         5         6         7         8         9
x     7.7598    0.0000    0.1102   -0.1909   -0.0603   -0.1044    0.0157    0.0000    0.0018   -0.0032
x     0.0000    0.0000
y     7.7598    0.0000    0.1102    0.1909   -0.0603    0.1044    0.0157   -0.0000    0.0018    0.0032
y     0.0000    0.0000
z     7.7598    0.0000    0.0000    0.0000    0.6446    0.0000    0.0000    0.0000   -0.1799   -0.0000
z     0.0000    0.0000    0.0102    0.0000    0.0000    0.0000    0.0100   -0.0000    0.0000    0.0000
 total charge-density along one line
x    16.0000    0.0000    1.5151   -2.6243    0.3256    0.5640    0.0449    0.0000    0.0003   -0.0006
x     0.0005    0.0008   -0.0009    0.0000    0.0001   -0.0002   -0.0001   -0.0001    0.0002   -0.0000
x    -0.0000    0.0000
y    16.0000    0.0000    1.5151    2.6243    0.3256   -0.5640    0.0449   -0.0000    0.0003    0.0006
y     0.0005   -0.0008   -0.0009   -0.0000    0.0001    0.0002   -0.0001    0.0001    0.0002    0.0000
y    -0.0000   -0.0000
z    16.0000    0.0000   -0.0000    0.0000    6.4171   -0.0000   -0.0000    0.0000    1.5727   -0.0000
z    -0.0000   -0.0000    0.0880   -0.0000   -0.0000   -0.0000   -0.0033   -0.0000   -0.0000   -0.0000
z     0.0050   -0.0000    0.0000   -0.0000   -0.0021    0.0000    0.0000    0.0000    0.0010    0.0000
z     0.0000    0.0000   -0.0006    0.0000   -0.0000   -0.0000    0.0005   -0.0000
 
 pseudopotential strength for first ion, spin component:           1
 -4.777  -0.000  -0.000   0.000  -0.000  -5.331  -0.000  -0.000
 -0.000  -4.769   0.000  -0.000  -0.000  -0.000  -5.323   0.000
 -0.000   0.000  -4.777  -0.000  -0.000  -0.000   0.000  -5.331
  0.000  -0.000  -0.000  -4.769  -0.000   0.000  -0.000  -0.000
 -0.000  -0.000  -0.000  -0.000  -4.777  -0.000  -0.000  -0.000
 -5.331  -0.000  -0.000   0.000  -0.000  -5.843  -0.000  -0.000
 -0.000  -5.323   0.000  -0.000  -0.000  -0.000  -5.835   0.000
 -0.000   0.000  -5.331  -0.000  -0.000  -0.000   0.000  -5.843
  0.000  -0.000  -0.000  -5.323  -0.000   0.000  -0.000  -0.000
 -0.000  -0.000  -0.000  -0.000  -5.331  -0.000  -0.000  -0.000
  0.000  -0.000   0.001   0.000  -0.000   0.000  -0.000   0.001
  0.000  -0.000   0.002   0.000  -0.000   0.000  -0.000   0.002
 -0.000   0.000   0.000   0.000  -0.001  -0.000   0.000   0.000
  0.000  -0.000   0.000  -0.000  -0.000   0.000  -0.000   0.000
 -0.001   0.000   0.000   0.000  -0.000  -0.001   0.000   0.000
 -0.000   0.000   0.000   0.000  -0.001  -0.000   0.000   0.000
  0.000  -0.000   0.000  -0.000  -0.000   0.000  -0.000   0.000
 -0.001   0.000   0.000   0.000  -0.000  -0.001   0.000   0.000
 total augmentation occupancy for first ion, spin component:           1
  1.533  -0.000   0.000   0.000  -0.000  -0.792   0.000  -0.000   0.000   0.000   0.000  -0.000   0.000   0.000   0.029  -0.000
  0.000   2.087   0.000  -0.000  -0.000   0.000  -1.076   0.000   0.000   0.000  -0.000   0.000   0.000   0.000  -0.000  -0.000
  0.000   0.000   1.270   0.000  -0.000  -0.000   0.000  -0.553  -0.000   0.000   0.061  -0.013  -0.000   0.000   0.000   0.000
  0.000  -0.000  -0.000   2.087  -0.000   0.000   0.000   0.000  -1.076  -0.000  -0.000   0.000   0.000   0.000  -0.000   0.000
 -0.000   0.000  -0.000  -0.000   1.533   0.000  -0.000   0.000   0.000  -0.792  -0.000   0.000   0.029  -0.000  -0.000  -0.001
 -0.792   0.000  -0.000   0.000   0.000   1.415  -0.000   0.000   0.000  -0.000  -0.000   0.000  -0.000   0.000  -0.042   0.000
  0.000  -1.076   0.000   0.000   0.000   0.000   1.399   0.000  -0.000   0.000   0.000  -0.000   0.000   0.000   0.000  -0.000
 -0.000   0.000  -0.553  -0.000   0.000   0.000   0.000   1.180  -0.000  -0.000  -0.154   0.014   0.000   0.000  -0.000  -0.000
  0.000   0.000   0.000  -1.076   0.000   0.000  -0.000   0.000   1.399   0.000   0.000   0.000   0.000  -0.000   0.000   0.000
  0.000   0.000   0.000  -0.000  -0.792  -0.000   0.000  -0.000   0.000   1.415   0.000  -0.000  -0.042   0.000   0.000   0.003
  0.000  -0.000   0.061   0.000  -0.000  -0.000   0.000  -0.154   0.000   0.000   2.507  -0.279   0.000   0.000  -0.000   0.000
 -0.000   0.000  -0.013  -0.000   0.000   0.000  -0.000   0.014   0.000   0.000  -0.279   0.035   0.000   0.000  -0.000  -0.000
  0.000  -0.000  -0.000  -0.000   0.029  -0.000  -0.000   0.000   0.000  -0.042  -0.000   0.000   0.326   0.000  -0.000  -0.026
  0.000   0.000   0.000  -0.000   0.000  -0.000   0.000   0.000  -0.000   0.000   0.000   0.000   0.000   0.295  -0.000  -0.000
  0.029   0.000   0.000   0.000  -0.000  -0.042   0.000  -0.000   0.000   0.000   0.000  -0.000  -0.000  -0.000   0.326   0.000
 -0.000   0.000   0.000   0.000  -0.001   0.000  -0.000  -0.000   0.000   0.003   0.000   0.000  -0.026  -0.000   0.000   0.002
  0.000   0.000   0.000   0.000  -0.000  -0.000   0.000   0.000   0.000  -0.000   0.000   0.000   0.000  -0.027   0.000  -0.000
 -0.001   0.000   0.000  -0.000   0.000   0.003   0.000   0.000   0.000  -0.000   0.000  -0.000   0.000   0.000  -0.026  -0.000


------------------------ aborting loop because EDIFF is reached ----------------------------------------


    CHARGE:  cpu time    0.0198: real time    0.0198
    FORLOC:  cpu time    0.0002: real time    0.0002
    FORNL :  cpu time    0.1067: real time    0.1067
    STRESS:  cpu time    0.1610: real time    0.1610
    FORCOR:  cpu time    0.0035: real time    0.0035
    FORHAR:  cpu time    0.0007: real time    0.0007
    MIXING:  cpu time    0.0002: real time    0.0003

  FORCE on cell =-STRESS in cart. coord.  units (eV):
  Direction    XX          YY          ZZ          XY          YZ          ZX
  --------------------------------------------------------------------------------------
  Alpha Z   128.67271   128.67271   128.67271
  Ewald    -383.06217  -383.06217  -438.54431     0.00000     0.00000    -0.00000
  Hartree    67.85403    67.85403    45.90987    -0.00000    -0.00000    -0.00000
  E(xc)     -78.11782   -78.11791   -77.83372     0.00033     0.00000     0.00000
  Local      94.03882    94.03907   169.00901    -0.00094     0.00000     0.00000
  n-local   -53.82165   -52.85151   -55.70477    -3.74185     1.35743     0.85723
  augment    75.91017    75.90934    76.21478     0.00133     0.00000     0.00000
  Kinetic   151.73085   145.31988   146.50573     1.65332    -0.85215     0.28333
  Fock        0.00000     0.00000     0.00000     0.00000     0.00000     0.00000
  -------------------------------------------------------------------------------------
  Total       0.48418     0.48418    -5.77072    -0.00000     0.00000    -0.00000
  in kB      36.10616    36.10616  -430.33044    -0.00000     0.00000    -0.00000
  external pressure =     -119.37 kB  Pullay stress =        0.00 kB


 VOLUME and BASIS-vectors are now :
 -----------------------------------------------------------------------------
  energy-cutoff  :      280.00
  volume of cell :       21.49
      direct lattice vectors                 reciprocal lattice vectors
     2.399900000  0.000000000  0.000000000     0.416684029  0.240572636  0.000000000
    -1.199950000  2.078374367  0.000000000     0.000000000  0.481145272  0.000000000
     0.000000000  0.000000000  4.307460000     0.000000000  0.000000000  0.232155377

  length of vectors
     2.399900000  2.399900000  4.307460000     0.481145272  0.481145272  0.232155377


 FORCES acting on ions
    electron-ion (+dipol)            ewald-force                    non-local-force                 convergence-correction
 -----------------------------------------------------------------------------------------------
   0.660E-06 -.120E-05 -.534E-14   0.473E-12 -.277E-12 -.245E-13   -.138E-16 -.111E-17 -.752E-19   -.194E-08 0.999E-09 0.839E-14
   0.508E-05 0.792E-05 0.262E-12   -.476E-12 0.272E-12 0.245E-13   0.185E-16 0.229E-18 -.769E-20   0.202E-08 -.104E-08 0.238E-13
 -----------------------------------------------------------------------------------------------
   0.574E-05 0.672E-05 0.257E-12   -.309E-14 -.484E-14 0.396E-17   0.473E-17 -.877E-18 -.828E-19   0.759E-10 -.410E-10 0.322E-13
 
 
 POSITION                                       TOTAL-FORCE (eV/Angst)
 -----------------------------------------------------------------------------------
      0.00000      0.00000      0.00000        -0.000000      0.000000     -0.000000
      0.00000      1.38558      2.15373         0.000000     -0.000000      0.000000
 -----------------------------------------------------------------------------------
    total drift:                                0.000006      0.000007      0.000000


--------------------------------------------------------------------------------------------------------



  FREE ENERGIE OF THE ION-ELECTRON SYSTEM (eV)
  ---------------------------------------------------
  free  energy   TOTEN  =       -15.99214642 eV

  energy  without entropy=      -15.99568397  energy(sigma->0) =      -15.99332560
 


--------------------------------------------------------------------------------------------------------


    POTLOK:  cpu time    0.0055: real time    0.0055


--------------------------------------------------------------------------------------------------------


 writing wavefunctions
     LOOP+:  cpu time   10.1350: real time   10.1544
    4ORBIT:  cpu time    0.0000: real time    0.0000

 total amount of memory used by VASP MPI-rank0    51501. kBytes
=======================================================================

   base      :      30000. kBytes
   nonl-proj :       3394. kBytes
   grid      :        812. kBytes
   one-center:         31. kBytes
   wavefun   :      17264. kBytes
 
  
  
 General timing and accounting informations for this job:
 ========================================================
  
                  Total CPU time used (sec):       10.336
                            User time (sec):       10.280
                          System time (sec):        0.056
                         Elapsed time (sec):       10.345
  
                   Maximum memory used (kb):       55464.
                   Average memory used (kb):          N/A
  
                          Minor page faults:         7678
                          Major page faults:            0
                 Voluntary context switches:           26
