unknown system                          
   1.00000000000000     
     3.866000    0.000000    0.000000
     0.000000    3.866000    0.000000
     0.000000    0.000000    3.866000
   Pd   Ir   Pt   Cu
     1     1     1     1
Direct
  0.000000  0.000000  0.000000
  0.500000  0.500000  0.000000
  0.500000  0.000000  0.500000
  0.000000  0.500000  0.500000
 
   28   28   28
  357.09      336.39      284.72      222.94      164.64      112.57      68.552      38.028      22.690      15.917    
  12.771      10.580      9.3848      9.6229      10.044      9.6229      9.3848      10.580      12.771      15.917    
  22.690      38.028      68.552      112.57      164.64      222.94      284.72      336.39      336.51      317.10    
  268.54      210.23      155.03      105.88      64.721      36.473      22.245      15.782      12.758      10.655    
  9.4924      9.6687      10.041      9.6687      9.4924      10.655      12.758      15.782      22.245      36.473    
  64.721      105.88      155.03      210.23      268.54      317.10      284.25      268.02      227.16      177.56    
  130.32      88.795      55.070      32.624      21.116      15.526      12.892      11.099      10.100      10.176    
  10.443      10.176      10.100      11.099      12.892      15.526      21.116      32.624      55.070      88.795    
  130.32      177.56      227.16      268.02      220.14      207.62      175.85      136.83      99.665      67.989    
  43.665      28.201      19.769      15.464      13.490      12.261      11.632      11.713      11.898      11.713    
  11.632      12.261      13.490      15.464      19.769      28.201      43.665      67.989      99.665      136.83    
  175.85      207.62      159.21      150.09      126.81      98.105      71.190      49.429      33.970      24.456    
  18.711      15.904      14.804      14.339      14.271      14.528      14.706      14.528      14.271      14.339    
  14.804      15.904      18.711      24.456      33.970      49.429      71.190      98.105      126.81      150.09    
  106.77      100.67      85.129      66.140      48.898      35.856      27.228      21.646      18.389      17.190    
  17.195      17.716      18.439      19.120      19.412      19.120      18.439      17.716      17.195      17.190    
  18.389      21.646      27.228      35.856      48.898      66.140      85.129      100.67      64.812      61.415    
  52.824      42.550      33.589      27.137      22.748      20.063      19.183      19.750      21.227      23.284    
  25.571      27.446      28.180      27.446      25.571      23.284      21.227      19.750      19.183      20.063    
  22.748      27.137      33.589      42.550      52.824      61.415      36.465      35.096      31.679      27.677    
  24.193      21.515      19.999      19.939      21.307      23.926      27.840      32.822      38.060      42.166    
  43.735      42.166      38.060      32.822      27.840      23.926      21.307      19.939      19.999      21.515    
  24.193      27.677      31.679      35.096      21.873      21.486      20.500      19.316      18.391      18.156    
  19.007      21.190      24.824      30.283      37.623      46.321      55.031      61.660      64.159      61.660    
  55.031      46.321      37.623      30.283      24.824      21.190      19.007      18.156      18.391      19.316    
  20.500      21.486      15.120      15.015      14.836      14.871      15.407      16.775      19.388      23.586    
  29.985      38.765      49.497      61.302      72.603      81.021      84.170      81.021      72.603      61.302    
  49.497      38.765      29.985      23.586      19.388      16.775      15.407      14.871      14.836      15.015    
  11.888      11.892      12.066      12.718      14.099      16.552      20.595      27.078      36.677      48.728    
  62.041      75.620      88.203      97.554      101.07      97.554      88.203      75.620      62.041      48.728    
  36.677      27.078      20.595      16.552      14.099      12.718      12.066      11.892      9.7108      9.7862    
  10.224      11.375      13.454      16.826      22.283      31.395      44.382      59.418      74.587      89.228    
  102.84      113.29      117.31      113.29      102.84      89.228      74.587      59.418      44.382      31.395    
  22.283      16.826      13.454      11.375      10.224      9.7862      8.5763      8.6677      9.2208      10.672    
  13.231      17.302      24.136      35.844      52.004      69.653      86.435      102.42      117.95      130.53    
  135.52      130.53      117.95      102.42      86.435      69.653      52.004      35.844      24.136      17.302    
  13.231      10.672      9.2208      8.6677      8.8195      8.8406      9.2677      10.680      13.361      17.784    
  25.640      39.300      57.802      77.378      95.536      113.09      131.00      146.09      152.19      146.09    
  131.00      113.09      95.536      77.378      57.802      39.300      25.640      17.784      13.361      10.680    
  9.2677      8.8406      9.2254      9.1949      9.5100      10.829      13.486      17.997      26.227      40.617    
  59.992      80.299      99.033      117.33      136.35      152.59      159.19      152.59      136.35      117.33    
  99.033      80.299      59.992      40.617      26.227      17.997      13.486      10.829      9.5100      9.1949    
  8.8195      8.8406      9.2677      10.680      13.361      17.784      25.640      39.300      57.802      77.378    
  95.536      113.09      131.00      146.09      152.19      146.09      131.00      113.09      95.536      77.378    
  57.802      39.300      25.640      17.784      13.361      10.680      9.2677      8.8406      8.5763      8.6677    
  9.2208      10.672      13.231      17.302      24.136      35.844      52.004      69.653      86.435      102.42    
  117.95      130.53      135.52      130.53      117.95      102.42      86.435      69.653      52.004      35.844    
  24.136      17.302      13.231      10.672      9.2208      8.6677      9.7108      9.7862      10.224      11.375    
  13.454      16.826      22.283      31.395      44.382      59.418      74.587      89.228      102.84      113.29    
  117.31      113.29      102.84      89.228      74.587      59.418      44.382      31.395      22.283      16.826    
  13.454      11.375      10.224      9.7862      11.888      11.892      12.066      12.718      14.099      16.552    
  20.595      27.078      36.677      48.728      62.041      75.620      88.203      97.554      101.07      97.554    
  88.203      75.620      62.041      48.728      36.677      27.078      20.595      16.552      14.099      12.718    
  12.066      11.892      15.120      15.015      14.836      14.871      15.407      16.775      19.388      23.586    
  29.985      38.765      49.497      61.302      72.603      81.021      84.170      81.021      72.603      61.302    
  49.497      38.765      29.985      23.586      19.388      16.775      15.407      14.871      14.836      15.015    
  21.873      21.486      20.500      19.316      18.391      18.156      19.007      21.190      24.824      30.283    
  37.623      46.321      55.031      61.660      64.159      61.660      55.031      46.321      37.623      30.283    
  24.824      21.190      19.007      18.156      18.391      19.316      20.500      21.486      36.465      35.096    
  31.679      27.677      24.193      21.515      19.999      19.939      21.307      23.926      27.840      32.822    
  38.060      42.166      43.735      42.166      38.060      32.822      27.840      23.926      21.307      19.939    
  19.999      21.515      24.193      27.677      31.679      35.096      64.812      61.415      52.824      42.550    
  33.589      27.137      22.748      20.063      19.183      19.750      21.227      23.284      25.571      27.446    
  28.180      27.446      25.571      23.284      21.227      19.750      19.183      20.063      22.748      27.137    
  33.589      42.550      52.824      61.415      106.77      100.67      85.129      66.140      48.898      35.856    
  27.228      21.646      18.389      17.190      17.195      17.716      18.439      19.120      19.412      19.120    
  18.439      17.716      17.195      17.190      18.389      21.646      27.228      35.856      48.898      66.140    
  85.129      100.67      159.21      150.09      126.81      98.105      71.190      49.429      33.970      24.456    
  18.711      15.904      14.804      14.339      14.271      14.528      14.706      14.528      14.271      14.339    
  14.804      15.904      18.711      24.456      33.970      49.429      71.190      98.105      126.81      150.09    
  220.14      207.62      175.85      136.83      99.665      67.989      43.665      28.201      19.769      15.464    
  13.490      12.261      11.632      11.713      11.898      11.713      11.632      12.261      13.490      15.464    
  19.769      28.201      43.665      67.989      99.665      136.83      175.85      207.62      284.25      268.02    
  227.16      177.56      130.32      88.795      55.070      32.624      21.116      15.526      12.892      11.099    
  10.100      10.176      10.443      10.176      10.100      11.099      12.892      15.526      21.116      32.624    
  55.070      88.795      130.32      177.56      227.16      268.02      336.51      317.10      268.54      210.23    
  155.03      105.88      64.721      36.473      22.245      15.782      12.758      10.655      9.4924      9.6687    
  10.041      9.6687      9.4924      10.655      12.758      15.782      22.245      36.473      64.721      105.88    
  155.03      210.23      268.54      317.10      336.86      317.54      269.16      210.93      155.60      106.21    
  64.838      36.490      22.240      15.766      12.719      10.576      9.3653      9.5003      9.8558      9.5003    
  9.3653      10.576      12.719      15.766      22.240      36.490      64.838      106.21      155.60      210.93    
  269.16      317.54      318.28      300.09      254.43      199.26      146.72      100.02      61.307      35.062    
  21.817      15.643      12.718      10.666      9.4921      9.5751      9.8866      9.5751      9.4921      10.666    
  12.718      15.643      21.817      35.062      61.307      100.02      146.72      199.26      254.43      300.09    
  270.67      255.29      216.45      169.07      123.79      84.171      52.397      31.517      20.738      15.410    
  12.873      11.132      10.130      10.137      10.356      10.137      10.130      11.132      12.873      15.410    
  20.738      31.517      52.397      84.171      123.79      169.07      216.45      255.29      211.18      199.16    
  168.60      130.95      95.099      64.784      41.838      27.414      19.448      15.362      13.475      12.290    
  11.662      11.696      11.849      11.696      11.662      12.290      13.475      15.362      19.448      27.414    
  41.838      64.784      95.099      130.95      168.60      199.16      153.29      144.47      121.94      94.161    
  68.190      47.392      32.818      23.877      18.432      15.789      14.755      14.316      14.244      14.470    
  14.628      14.470      14.244      14.316      14.755      15.789      18.432      23.877      32.818      47.392    
  68.190      94.161      121.94      144.47      102.63      96.757      81.780      63.515      47.005      34.622    
  26.484      21.176      18.118      17.019      17.054      17.573      18.274      18.922      19.197      18.922    
  18.274      17.573      17.054      17.019      18.118      21.176      26.484      34.622      47.005      63.515    
  81.780      96.757      62.166      58.928      50.745      40.979      32.491      26.385      22.191      19.662    
  18.873      19.464      20.912      22.882      25.049      26.815      27.505      26.815      25.049      22.882    
  20.912      19.464      18.873      19.662      22.191      26.385      32.491      40.979      50.745      58.928    
  35.212      33.921      30.695      26.909      23.579      21.003      19.573      19.554      20.910      23.445    
  27.182      31.907      36.852      40.716      42.191      40.716      36.852      31.907      27.182      23.445    
  20.910      19.554      19.573      21.003      23.579      26.909      30.695      33.921      21.429      21.054    
  20.092      18.938      18.040      17.818      18.652      20.777      24.281      29.511      36.522      44.792    
  53.030      59.272      61.619      59.272      53.030      44.792      36.522      29.511      24.281      20.777    
  18.652      17.818      18.040      18.938      20.092      21.054      14.915      14.821      14.659      14.699    
  15.215      16.532      19.053      23.099      29.248      37.710      48.044      59.335      70.040      77.945    
  80.888      77.945      70.040      59.335      48.044      37.710      29.248      23.099      19.053      16.532    
  15.215      14.699      14.659      14.821      11.740      11.762      11.971      12.635      13.985      16.355    
  20.257      26.484      35.762      47.498      60.462      73.529      85.412      94.098      97.334      94.098    
  85.412      73.529      60.462      47.498      35.762      26.484      20.257      16.355      13.985      12.635    
  11.971      11.762      9.5294      9.6366      10.138      11.325      13.379      16.656      21.918      30.692    
  43.338      58.142      73.073      87.195      99.909      109.42      113.03      109.42      99.909      87.195    
  73.073      58.142      43.338      30.692      21.918      16.656      13.379      11.325      10.138      9.6366    
  8.2581      8.3999      9.0601      10.592      13.155      17.141      23.733      35.049      50.881      68.400    
  85.034      100.40      114.68      125.89      130.29      125.89      114.68      100.40      85.034      68.400    
  50.881      35.049      23.733      17.141      13.155      10.592      9.0601      8.3999      8.2868      8.3795    
  8.9654      10.517      13.249      17.613      25.202      38.442      56.637      76.158      94.199      110.98    
  127.26      140.57      145.89      140.57      127.26      110.98      94.199      76.158      56.637      38.442    
  25.202      17.613      13.249      10.517      8.9654      8.3795      8.5811      8.6323      9.1312      10.618    
  13.351      17.816      25.774      39.736      58.814      79.091      97.711      115.16      132.39      146.67    
  152.41      146.67      132.39      115.16      97.711      79.091      58.814      39.736      25.774      17.816    
  13.351      10.618      9.1312      8.6323      8.2868      8.3795      8.9654      10.517      13.249      17.613    
  25.202      38.442      56.637      76.158      94.199      110.98      127.26      140.57      145.89      140.57    
  127.26      110.98      94.199      76.158      56.637      38.442      25.202      17.613      13.249      10.517    
  8.9654      8.3795      8.2581      8.3999      9.0601      10.592      13.155      17.141      23.733      35.049    
  50.881      68.400      85.034      100.40      114.68      125.89      130.29      125.89      114.68      100.40    
  85.034      68.400      50.881      35.049      23.733      17.141      13.155      10.592      9.0601      8.3999    
  9.5294      9.6366      10.138      11.325      13.379      16.656      21.918      30.692      43.338      58.142    
  73.073      87.195      99.909      109.42      113.03      109.42      99.909      87.195      73.073      58.142    
  43.338      30.692      21.918      16.656      13.379      11.325      10.138      9.6366      11.740      11.762    
  11.971      12.635      13.985      16.355      20.257      26.484      35.762      47.498      60.462      73.529    
  85.412      94.098      97.334      94.098      85.412      73.529      60.462      47.498      35.762      26.484    
  20.257      16.355      13.985      12.635      11.971      11.762      14.915      14.821      14.659      14.699    
  15.215      16.532      19.053      23.099      29.248      37.710      48.044      59.335      70.040      77.945    
  80.888      77.945      70.040      59.335      48.044      37.710      29.248      23.099      19.053      16.532    
  15.215      14.699      14.659      14.821      21.429      21.054      20.092      18.938      18.040      17.818    
  18.652      20.777      24.281      29.511      36.522      44.792      53.030      59.272      61.619      59.272    
  53.030      44.792      36.522      29.511      24.281      20.777      18.652      17.818      18.040      18.938    
  20.092      21.054      35.212      33.921      30.695      26.909      23.579      21.003      19.573      19.554    
  20.910      23.445      27.182      31.907      36.852      40.716      42.191      40.716      36.852      31.907    
  27.182      23.445      20.910      19.554      19.573      21.003      23.579      26.909      30.695      33.921    
  62.166      58.928      50.745      40.979      32.491      26.385      22.191      19.662      18.873      19.464    
  20.912      22.882      25.049      26.815      27.505      26.815      25.049      22.882      20.912      19.464    
  18.873      19.662      22.191      26.385      32.491      40.979      50.745      58.928      102.63      96.757    
  81.780      63.515      47.005      34.622      26.484      21.176      18.118      17.019      17.054      17.573    
  18.274      18.922      19.197      18.922      18.274      17.573      17.054      17.019      18.118      21.176    
  26.484      34.622      47.005      63.515      81.780      96.757      153.29      144.47      121.94      94.161    
  68.190      47.392      32.818      23.877      18.432      15.789      14.755      14.316      14.244      14.470    
  14.628      14.470      14.244      14.316      14.755      15.789      18.432      23.877      32.818      47.392    
  68.190      94.161      121.94      144.47      211.18      199.16      168.60      130.95      95.099      64.784    
  41.838      27.414      19.448      15.362      13.475      12.290      11.662      11.696      11.849      11.696    
  11.662      12.290      13.475      15.362      19.448      27.414      41.838      64.784      95.099      130.95    
  168.60      199.16      270.67      255.29      216.45      169.07      123.79      84.171      52.397      31.517    
  20.738      15.410      12.873      11.132      10.130      10.137      10.356      10.137      10.130      11.132    
  12.873      15.410      20.738      31.517      52.397      84.171      123.79      169.07      216.45      255.29    
  318.28      300.09      254.43      199.26      146.72      100.02      61.307      35.062      21.817      15.643    
  12.718      10.666      9.4921      9.5751      9.8866      9.5751      9.4921      10.666      12.718      15.643    
  21.817      35.062      61.307      100.02      146.72      199.26      254.43      300.09      285.21      269.28    
  228.98      179.62      131.98      89.710      55.368      32.649      21.090      15.481      12.803      10.933    
  9.8372      9.8298      10.062      9.8298      9.8372      10.933      12.803      15.481      21.090      32.649    
  55.368      89.710      131.98      179.62      228.98      269.28      271.30      256.13      217.68      170.46    
  124.91      84.778      52.587      31.529      20.718      15.379      12.818      11.034      9.9782      9.9366    
  10.137      9.9366      9.9782      11.034      12.818      15.379      20.718      31.529      52.587      84.778    
  124.91      170.46      217.68      256.13      234.62      221.42      187.82      146.30      106.40      72.060    
  45.542      28.721      19.764      15.188      12.990      11.492      10.604      10.523      10.659      10.523    
  10.604      11.492      12.990      15.188      19.764      28.721      45.542      72.060      106.40      146.30    
  187.82      221.42      186.25      175.61      148.42      114.71      82.717      56.306      37.120      25.384    
  18.619      15.154      13.551      12.555      12.013      11.992      12.091      11.992      12.013      12.555    
  13.551      15.154      18.619      25.384      37.120      56.306      82.717      114.71      148.42      175.61    
  136.14      128.23      107.99      83.048      59.967      41.975      29.813      22.323      17.709      15.525    
  14.695      14.368      14.333      14.518      14.642      14.518      14.333      14.368      14.695      15.525    
  17.709      22.323      29.813      41.975      59.967      83.048      107.99      128.23      90.693      85.493    
  72.255      56.192      41.861      31.345      24.490      19.924      17.412      16.586      16.715      17.248    
  17.916      18.505      18.746      18.505      17.916      17.248      16.715      16.586      17.412      19.924    
  24.490      31.345      41.861      56.192      72.255      85.493      54.813      52.036      45.037      36.728    
  29.556      24.355      20.691      18.595      18.053      18.707      20.090      21.857      23.733      25.236    
  25.819      25.236      23.733      21.857      20.090      18.707      18.053      18.595      20.691      24.355    
  29.556      36.728      45.037      52.036      31.858      30.777      28.070      24.849      21.903      19.627    
  18.435      18.525      19.843      22.167      25.448      29.510      33.704      36.956      38.191      36.956    
  33.704      29.510      25.448      22.167      19.843      18.525      18.435      19.627      21.903      24.849    
  28.070      30.777      20.179      19.835      18.954      17.902      17.096      16.920      17.704      19.659    
  22.816      27.427      33.555      40.702      47.722      52.978      54.941      52.978      47.722      40.702    
  33.555      27.427      22.816      19.659      17.704      16.920      17.096      17.902      18.954      19.835    
  14.363      14.291      14.171      14.225      14.696      15.882      18.153      21.783      27.228      34.781    
  44.014      53.952      63.141      69.769      72.203      69.769      63.141      53.952      44.014      34.781    
  27.228      21.783      18.153      15.882      14.696      14.225      14.171      14.291      11.457      11.508    
  11.765      12.423      13.670      15.813      19.334      24.854      33.181      43.951      55.904      67.649    
  77.832      84.936      87.514      84.936      77.832      67.649      55.904      43.951      33.181      24.854    
  19.334      15.813      13.670      12.423      11.765      11.508      9.3829      9.5299      10.093      11.265    
  13.179      16.169      20.906      28.716      40.290      54.271      68.470      81.329      91.973      99.328    
  102.01      99.328      91.973      81.329      68.470      54.271      40.290      28.716      20.906      16.169    
  13.179      11.265      10.093      9.5299      8.0545      8.2553      9.0154      10.558      12.988      16.672    
  22.597      32.759      47.487      64.398      80.544      94.496      105.98      114.12      117.16      114.12    
  105.98      94.496      80.544      64.398      47.487      32.759      22.597      16.672      12.988      10.558    
  9.0154      8.2553      7.7918      7.9745      8.7331      10.373      13.030      17.124      23.955      35.930    
  53.023      72.098      89.759      104.83      117.50      126.79      130.34      126.79      117.50      104.83    
  89.759      72.098      53.023      35.930      23.955      17.124      13.030      10.373      8.7331      7.9745    
  7.9038      8.0619      8.7745      10.396      13.093      17.310      24.482      37.142      55.123      75.010    
  93.269      108.85      122.10      131.97      135.76      131.97      122.10      108.85      93.269      75.010    
  55.123      37.142      24.482      17.310      13.093      10.396      8.7745      8.0619      7.7918      7.9745    
  8.7331      10.373      13.030      17.124      23.955      35.930      53.023      72.098      89.759      104.83    
  117.50      126.79      130.34      126.79      117.50      104.83      89.759      72.098      53.023      35.930    
  23.955      17.124      13.030      10.373      8.7331      7.9745      8.0545      8.2553      9.0154      10.558    
  12.988      16.672      22.597      32.759      47.487      64.398      80.544      94.496      105.98      114.12    
  117.16      114.12      105.98      94.496      80.544      64.398      47.487      32.759      22.597      16.672    
  12.988      10.558      9.0154      8.2553      9.3829      9.5299      10.093      11.265      13.179      16.169    
  20.906      28.716      40.290      54.271      68.470      81.329      91.973      99.328      102.01      99.328    
  91.973      81.329      68.470      54.271      40.290      28.716      20.906      16.169      13.179      11.265    
  10.093      9.5299      11.457      11.508      11.765      12.423      13.670      15.813      19.334      24.854    
  33.181      43.951      55.904      67.649      77.832      84.936      87.514      84.936      77.832      67.649    
  55.904      43.951      33.181      24.854      19.334      15.813      13.670      12.423      11.765      11.508    
  14.363      14.291      14.171      14.225      14.696      15.882      18.153      21.783      27.228      34.781    
  44.014      53.952      63.141      69.769      72.203      69.769      63.141      53.952      44.014      34.781    
  27.228      21.783      18.153      15.882      14.696      14.225      14.171      14.291      20.179      19.835    
  18.954      17.902      17.096      16.920      17.704      19.659      22.816      27.427      33.555      40.702    
  47.722      52.978      54.941      52.978      47.722      40.702      33.555      27.427      22.816      19.659    
  17.704      16.920      17.096      17.902      18.954      19.835      31.858      30.777      28.070      24.849    
  21.903      19.627      18.435      18.525      19.843      22.167      25.448      29.510      33.704      36.956    
  38.191      36.956      33.704      29.510      25.448      22.167      19.843      18.525      18.435      19.627    
  21.903      24.849      28.070      30.777      54.813      52.036      45.037      36.728      29.556      24.355    
  20.691      18.595      18.053      18.707      20.090      21.857      23.733      25.236      25.819      25.236    
  23.733      21.857      20.090      18.707      18.053      18.595      20.691      24.355      29.556      36.728    
  45.037      52.036      90.693      85.493      72.255      56.192      41.861      31.345      24.490      19.924    
  17.412      16.586      16.715      17.248      17.916      18.505      18.746      18.505      17.916      17.248    
  16.715      16.586      17.412      19.924      24.490      31.345      41.861      56.192      72.255      85.493    
  136.14      128.23      107.99      83.048      59.967      41.975      29.813      22.323      17.709      15.525    
  14.695      14.368      14.333      14.518      14.642      14.518      14.333      14.368      14.695      15.525    
  17.709      22.323      29.813      41.975      59.967      83.048      107.99      128.23      186.25      175.61    
  148.42      114.71      82.717      56.306      37.120      25.384      18.619      15.154      13.551      12.555    
  12.013      11.992      12.091      11.992      12.013      12.555      13.551      15.154      18.619      25.384    
  37.120      56.306      82.717      114.71      148.42      175.61      234.62      221.42      187.82      146.30    
  106.40      72.060      45.542      28.721      19.764      15.188      12.990      11.492      10.604      10.523    
  10.659      10.523      10.604      11.492      12.990      15.188      19.764      28.721      45.542      72.060    
  106.40      146.30      187.82      221.42      271.30      256.13      217.68      170.46      124.91      84.778    
  52.587      31.529      20.718      15.379      12.818      11.034      9.9782      9.9366      10.137      9.9366    
  9.9782      11.034      12.818      15.379      20.718      31.529      52.587      84.778      124.91      170.46    
  217.68      256.13      221.24      209.17      178.23      139.54      101.79      69.065      43.935      28.164    
  19.692      15.387      13.404      12.149      11.480      11.518      11.684      11.518      11.480      12.149    
  13.404      15.387      19.692      28.164      43.935      69.065      101.79      139.54      178.23      209.17    
  212.03      200.37      170.49      133.10      96.774      65.616      42.032      27.374      19.379      15.297    
  13.411      12.218      11.574      11.588      11.731      11.588      11.574      12.218      13.411      15.297    
  19.379      27.374      42.032      65.616      96.774      133.10      170.49      200.37      186.58      176.12    
  149.25      115.66      83.438      56.639      37.176      25.349      18.576      15.117      13.524      12.542    
  12.013      12.001      12.102      12.001      12.013      12.542      13.524      15.117      18.576      25.349    
  37.176      56.639      83.438      115.66      149.25      176.12      150.38      141.72      119.47      91.833    