unknown system                          
   1.00000000000000     
     3.866000    0.000000    0.000000
     0.000000    3.866000    0.000000
     0.000000    0.000000    3.866000
   Pd   Ir   Pt   Cu
     1     1     1     1
Direct
  0.000000  0.000000  0.000000
  0.500000  0.500000  0.000000
  0.500000  0.000000  0.500000
  0.000000  0.500000  0.500000
 
   28   28   28
 0.35708835253E+03 0.33638656589E+03 0.28472192421E+03 0.22294407058E+03 0.16463603186E+03
 0.11257304768E+03 0.68551789187E+02 0.38028112641E+02 0.22689519214E+02 0.15917010389E+02
 0.12771387724E+02 0.10579546808E+02 0.93847660784E+01 0.96228619644E+01 0.10044464334E+02
 0.96228619644E+01 0.93847660784E+01 0.10579546808E+02 0.12771387724E+02 0.15917010389E+02
 0.22689519214E+02 0.38028112641E+02 0.68551789187E+02 0.11257304768E+03 0.16463603186E+03
 0.22294407058E+03 0.28472192421E+03 0.33638656589E+03 0.33651453236E+03 0.31710087809E+03
 0.26853980455E+03 0.21023301154E+03 0.15502746795E+03 0.10588288330E+03 0.64721426857E+02
 0.36473225499E+02 0.22244785703E+02 0.15781999001E+02 0.12758374300E+02 0.10654915325E+02
 0.94924255215E+01 0.96686762607E+01 0.10040591865E+02 0.96686762607E+01 0.94924255215E+01
 0.10654915325E+02 0.12758374300E+02 0.15781999001E+02 0.22244785703E+02 0.36473225499E+02
 0.64721426857E+02 0.10588288330E+03 0.15502746795E+03 0.21023301154E+03 0.26853980455E+03
 0.31710087809E+03 0.28425158114E+03 0.26801996517E+03 0.22715700942E+03 0.17756216188E+03
 0.13031812736E+03 0.88794645615E+02 0.55070275694E+02 0.32624146101E+02 0.21116125617E+02
 0.15525727215E+02 0.12891710176E+02 0.11098628053E+02 0.10099524008E+02 0.10176284815E+02
 0.10442608800E+02 0.10176284815E+02 0.10099524008E+02 0.11098628053E+02 0.12891710176E+02
 0.15525727215E+02 0.21116125617E+02 0.32624146101E+02 0.55070275694E+02 0.88794645615E+02
 0.13031812736E+03 0.17756216188E+03 0.22715700942E+03 0.26801996517E+03 0.22013737848E+03
 0.20762044245E+03 0.17584637111E+03 0.13682905012E+03 0.99664617447E+02 0.67989310659E+02
 0.43665483446E+02 0.28200598404E+02 0.19768862860E+02 0.15463501448E+02 0.13489766757E+02
 0.12260748212E+02 0.11632454467E+02 0.11713371211E+02 0.11897668065E+02 0.11713371211E+02
 0.11632454467E+02 0.12260748212E+02 0.13489766757E+02 0.15463501448E+02 0.19768862860E+02
 0.28200598404E+02 0.43665483446E+02 0.67989310659E+02 0.99664617447E+02 0.13682905012E+03
 0.17584637111E+03 0.20762044245E+03 0.15920849178E+03 0.15008817078E+03 0.12680606367E+03
 0.98105272459E+02 0.71189914896E+02 0.49429462832E+02 0.33970360799E+02 0.24455889731E+02
 0.18710981352E+02 0.15903619274E+02 0.14804469698E+02 0.14338510486E+02 0.14271028730E+02
 0.14528399327E+02 0.14706198909E+02 0.14528399327E+02 0.14271028730E+02 0.14338510486E+02
 0.14804469698E+02 0.15903619274E+02 0.18710981352E+02 0.24455889731E+02 0.33970360799E+02
 0.49429462832E+02 0.71189914896E+02 0.98105272459E+02 0.12680606367E+03 0.15008817078E+03
 0.10677124142E+03 0.10067497854E+03 0.85128548357E+02 0.66139735569E+02 0.48897544531E+02
 0.35855512521E+02 0.27228383993E+02 0.21645790996E+02 0.18388778659E+02 0.17189783412E+02
 0.17195214319E+02 0.17715584139E+02 0.18438577769E+02 0.19120178636E+02 0.19412070325E+02
 0.19120178636E+02 0.18438577769E+02 0.17715584139E+02 0.17195214319E+02 0.17189783412E+02
 0.18388778659E+02 0.21645790996E+02 0.27228383993E+02 0.35855512521E+02 0.48897544531E+02
 0.66139735569E+02 0.85128548357E+02 0.10067497854E+03 0.64812156005E+02 0.61415213444E+02
 0.52824267102E+02 0.42549871484E+02 0.33589354838E+02 0.27137416672E+02 0.22748135525E+02
 0.20062966639E+02 0.19182515472E+02 0.19750233025E+02 0.21227349460E+02 0.23284035115E+02
 0.25571280214E+02 0.27445834472E+02 0.28180268790E+02 0.27445834472E+02 0.25571280214E+02
 0.23284035115E+02 0.21227349460E+02 0.19750233025E+02 0.19182515472E+02 0.20062966639E+02
 0.22748135525E+02 0.27137416672E+02 0.33589354838E+02 0.42549871484E+02 0.52824267102E+02
 0.61415213444E+02 0.36465136734E+02 0.35095968181E+02 0.31678692097E+02 0.27677043953E+02
 0.24193313908E+02 0.21515494686E+02 0.19999028757E+02 0.19939001264E+02 0.21306667018E+02
 0.23925884937E+02 0.27839817039E+02 0.32822276425E+02 0.38059739806E+02 0.42165605238E+02
 0.43734633698E+02 0.42165605238E+02 0.38059739806E+02 0.32822276425E+02 0.27839817039E+02
 0.23925884937E+02 0.21306667018E+02 0.19939001264E+02 0.19999028757E+02 0.21515494686E+02
 0.24193313908E+02 0.27677043953E+02 0.31678692097E+02 0.35095968181E+02 0.21872975408E+02
 0.21486007380E+02 0.20500022392E+02 0.19316315295E+02 0.18391224634E+02 0.18156468842E+02
 0.19007049365E+02 0.21190379242E+02 0.24824195883E+02 0.30283452565E+02 0.37623339577E+02
 0.46321087937E+02 0.55031305302E+02 0.61660433752E+02 0.64158832379E+02 0.61660433752E+02
 0.55031305302E+02 0.46321087937E+02 0.37623339577E+02 0.30283452565E+02 0.24824195883E+02
 0.21190379242E+02 0.19007049365E+02 0.18156468842E+02 0.18391224634E+02 0.19316315295E+02
 0.20500022392E+02 0.21486007380E+02 0.15119608666E+02 0.15015237145E+02 0.14836499367E+02
 0.14870892712E+02 0.15407083075E+02 0.16774973761E+02 0.19387863009E+02 0.23586245622E+02
 0.29984697157E+02 0.38765331680E+02 0.49497012878E+02 0.61302168043E+02 0.72603152794E+02
 0.81021393777E+02 0.84169827466E+02 0.81021393777E+02 0.72603152794E+02 0.61302168043E+02
 0.49497012878E+02 0.38765331680E+02 0.29984697157E+02 0.23586245622E+02 0.19387863009E+02
 0.16774973761E+02 0.15407083075E+02 0.14870892712E+02 0.14836499367E+02 0.15015237145E+02
 0.11888077123E+02 0.11891576999E+02 0.12065665425E+02 0.12717981151E+02 0.14099380343E+02
 0.16552163109E+02 0.20595036756E+02 0.27077824123E+02 0.36677160545E+02 0.48727925503E+02
 0.62040796761E+02 0.75619823144E+02 0.88203418888E+02 0.97553653993E+02 0.10106880697E+03
 0.97553653993E+02 0.88203418888E+02 0.75619823144E+02 0.62040796761E+02 0.48727925503E+02
 0.36677160545E+02 0.27077824123E+02 0.20595036756E+02 0.16552163109E+02 0.14099380343E+02
 0.12717981151E+02 0.12065665425E+02 0.11891576999E+02 0.97108447367E+01 0.97862190562E+01
 0.10223737827E+02 0.11374951213E+02 0.13453761313E+02 0.16825846144E+02 0.22283421977E+02
 0.31394891186E+02 0.44381858267E+02 0.59418425848E+02 0.74587085605E+02 0.89228022022E+02
 0.10284192913E+03 0.11328941569E+03 0.11731306199E+03 0.11328941569E+03 0.10284192913E+03
 0.89228022022E+02 0.74587085605E+02 0.59418425848E+02 0.44381858267E+02 0.31394891186E+02
 0.22283421977E+02 0.16825846144E+02 0.13453761313E+02 0.11374951213E+02 0.10223737827E+02
 0.97862190562E+01 0.85762944959E+01 0.86676955430E+01 0.92208373193E+01 0.10671936935E+02
 0.13231213370E+02 0.17302257605E+02 0.24136476912E+02 0.35843741531E+02 0.52003557318E+02
 0.69652947378E+02 0.86434790966E+02 0.10241834923E+03 0.11795087723E+03 0.13052772800E+03
 0.13551933194E+03 0.13052772800E+03 0.11795087723E+03 0.10241834923E+03 0.86434790966E+02
 0.69652947378E+02 0.52003557318E+02 0.35843741531E+02 0.24136476912E+02 0.17302257605E+02
 0.13231213370E+02 0.10671936935E+02 0.92208373193E+01 0.86676955430E+01 0.88195321631E+01
 0.88405549258E+01 0.92676778087E+01 0.10680043280E+02 0.13361121175E+02 0.17784296214E+02
 0.25640110592E+02 0.39299644312E+02 0.57801676424E+02 0.77378430270E+02 0.95535921771E+02
 0.11309386631E+03 0.13099835728E+03 0.14608646668E+03 0.15218799276E+03 0.14608646668E+03
 0.13099835728E+03 0.11309386631E+03 0.95535921771E+02 0.77378430270E+02 0.57801676424E+02
 0.39299644312E+02 0.25640110592E+02 0.17784296214E+02 0.13361121175E+02 0.10680043280E+02
 0.92676778087E+01 0.88405549258E+01 0.92253613515E+01 0.91948520490E+01 0.95099727469E+01
 0.10828530985E+02 0.13485947343E+02 0.17996786971E+02 0.26226737513E+02 0.40616548525E+02
 0.59992328830E+02 0.80299078260E+02 0.99033064976E+02 0.11733205638E+03 0.13634944111E+03
 0.15258830033E+03 0.15919217994E+03 0.15258830033E+03 0.13634944111E+03 0.11733205638E+03
 0.99033064976E+02 0.80299078260E+02 0.59992328830E+02 0.40616548525E+02 0.26226737513E+02
 0.17996786971E+02 0.13485947343E+02 0.10828530985E+02 0.95099727469E+01 0.91948520490E+01
 0.88195321631E+01 0.88405549258E+01 0.92676778087E+01 0.10680043280E+02 0.13361121175E+02
 0.17784296214E+02 0.25640110592E+02 0.39299644312E+02 0.57801676424E+02 0.77378430270E+02
 0.95535921771E+02 0.11309386631E+03 0.13099835728E+03 0.14608646668E+03 0.15218799276E+03
 0.14608646668E+03 0.13099835728E+03 0.11309386631E+03 0.95535921771E+02 0.77378430270E+02
 0.57801676424E+02 0.39299644312E+02 0.25640110592E+02 0.17784296214E+02 0.13361121175E+02
 0.10680043280E+02 0.92676778087E+01 0.88405549258E+01 0.85762944959E+01 0.86676955430E+01
 0.92208373193E+01 0.10671936935E+02 0.13231213370E+02 0.17302257605E+02 0.24136476912E+02
 0.35843741531E+02 0.52003557318E+02 0.69652947378E+02 0.86434790966E+02 0.10241834923E+03
 0.11795087723E+03 0.13052772800E+03 0.13551933194E+03 0.13052772800E+03 0.11795087723E+03
 0.10241834923E+03 0.86434790966E+02 0.69652947378E+02 0.52003557318E+02 0.35843741531E+02
 0.24136476912E+02 0.17302257605E+02 0.13231213370E+02 0.10671936935E+02 0.92208373193E+01
 0.86676955430E+01 0.97108447367E+01 0.97862190562E+01 0.10223737827E+02 0.11374951213E+02
 0.13453761313E+02 0.16825846144E+02 0.22283421977E+02 0.31394891186E+02 0.44381858267E+02
 0.59418425848E+02 0.74587085605E+02 0.89228022022E+02 0.10284192913E+03 0.11328941569E+03
 0.11731306199E+03 0.11328941569E+03 0.10284192913E+03 0.89228022022E+02 0.74587085605E+02
 0.59418425848E+02 0.44381858267E+02 0.31394891186E+02 0.22283421977E+02 0.16825846144E+02
 0.13453761313E+02 0.11374951213E+02 0.10223737827E+02 0.97862190562E+01 0.11888077123E+02
 0.11891576999E+02 0.12065665425E+02 0.12717981151E+02 0.14099380343E+02 0.16552163109E+02
 0.20595036756E+02 0.27077824123E+02 0.36677160545E+02 0.48727925503E+02 0.62040796761E+02
 0.75619823144E+02 0.88203418888E+02 0.97553653993E+02 0.10106880697E+03 0.97553653993E+02
 0.88203418888E+02 0.75619823144E+02 0.62040796761E+02 0.48727925503E+02 0.36677160545E+02
 0.27077824123E+02 0.20595036756E+02 0.16552163109E+02 0.14099380343E+02 0.12717981151E+02
 0.12065665425E+02 0.11891576999E+02 0.15119608666E+02 0.15015237145E+02 0.14836499367E+02
 0.14870892712E+02 0.15407083075E+02 0.16774973761E+02 0.19387863009E+02 0.23586245622E+02
 0.29984697157E+02 0.38765331680E+02 0.49497012878E+02 0.61302168043E+02 0.72603152794E+02
 0.81021393777E+02 0.84169827466E+02 0.81021393777E+02 0.72603152794E+02 0.61302168043E+02
 0.49497012878E+02 0.38765331680E+02 0.29984697157E+02 0.23586245622E+02 0.19387863009E+02
 0.16774973761E+02 0.15407083075E+02 0.14870892712E+02 0.14836499367E+02 0.15015237145E+02
 0.21872975408E+02 0.21486007380E+02 0.20500022392E+02 0.19316315295E+02 0.18391224634E+02
 0.18156468842E+02 0.19007049365E+02 0.21190379242E+02 0.24824195883E+02 0.30283452565E+02
 0.37623339577E+02 0.46321087937E+02 0.55031305302E+02 0.61660433752E+02 0.64158832379E+02
 0.61660433752E+02 0.55031305302E+02 0.46321087937E+02 0.37623339577E+02 0.30283452565E+02
 0.24824195883E+02 0.21190379242E+02 0.19007049365E+02 0.18156468842E+02 0.18391224634E+02
 0.19316315295E+02 0.20500022392E+02 0.21486007380E+02 0.36465136734E+02 0.35095968181E+02
 0.31678692097E+02 0.27677043953E+02 0.24193313908E+02 0.21515494686E+02 0.19999028757E+02
 0.19939001264E+02 0.21306667018E+02 0.23925884937E+02 0.27839817039E+02 0.32822276425E+02
 0.38059739806E+02 0.42165605238E+02 0.43734633698E+02 0.42165605238E+02 0.38059739806E+02
 0.32822276425E+02 0.27839817039E+02 0.23925884937E+02 0.21306667018E+02 0.19939001264E+02
 0.19999028757E+02 0.21515494686E+02 0.24193313908E+02 0.27677043953E+02 0.31678692097E+02
 0.35095968181E+02 0.64812156005E+02 0.61415213444E+02 0.52824267102E+02 0.42549871484E+02
 0.33589354838E+02 0.27137416672E+02 0.22748135525E+02 0.20062966639E+02 0.19182515472E+02
 0.19750233025E+02 0.21227349460E+02 0.23284035115E+02 0.25571280214E+02 0.27445834472E+02
 0.28180268790E+02 0.27445834472E+02 0.25571280214E+02 0.23284035115E+02 0.21227349460E+02
 0.19750233025E+02 0.19182515472E+02 0.20062966639E+02 0.22748135525E+02 0.27137416672E+02
 0.33589354838E+02 0.42549871484E+02 0.52824267102E+02 0.61415213444E+02 0.10677124142E+03
 0.10067497854E+03 0.85128548357E+02 0.66139735569E+02 0.48897544531E+02 0.35855512521E+02
 0.27228383993E+02 0.21645790996E+02 0.18388778659E+02 0.17189783412E+02 0.17195214319E+02
 0.17715584139E+02 0.18438577769E+02 0.19120178636E+02 0.19412070325E+02 0.19120178636E+02
 0.18438577769E+02 0.17715584139E+02 0.17195214319E+02 0.17189783412E+02 0.18388778659E+02
 0.21645790996E+02 0.27228383993E+02 0.35855512521E+02 0.48897544531E+02 0.66139735569E+02
 0.85128548357E+02 0.10067497854E+03 0.15920849178E+03 0.15008817078E+03 0.12680606367E+03
 0.98105272459E+02 0.71189914896E+02 0.49429462832E+02 0.33970360799E+02 0.24455889731E+02
 0.18710981352E+02 0.15903619274E+02 0.14804469698E+02 0.14338510486E+02 0.14271028730E+02
 0.14528399327E+02 0.14706198909E+02 0.14528399327E+02 0.14271028730E+02 0.14338510486E+02
 0.14804469698E+02 0.15903619274E+02 0.18710981352E+02 0.24455889731E+02 0.33970360799E+02
 0.49429462832E+02 0.71189914896E+02 0.98105272459E+02 0.12680606367E+03 0.15008817078E+03
 0.22013737848E+03 0.20762044245E+03 0.17584637111E+03 0.13682905012E+03 0.99664617447E+02
 0.67989310659E+02 0.43665483446E+02 0.28200598404E+02 0.19768862860E+02 0.15463501448E+02
 0.13489766757E+02 0.12260748212E+02 0.11632454467E+02 0.11713371211E+02 0.11897668065E+02
 0.11713371211E+02 0.11632454467E+02 0.12260748212E+02 0.13489766757E+02 0.15463501448E+02
 0.19768862860E+02 0.28200598404E+02 0.43665483446E+02 0.67989310659E+02 0.99664617447E+02
 0.13682905012E+03 0.17584637111E+03 0.20762044245E+03 0.28425158114E+03 0.26801996517E+03
 0.22715700942E+03 0.17756216188E+03 0.13031812736E+03 0.88794645615E+02 0.55070275694E+02
 0.32624146101E+02 0.21116125617E+02 0.15525727215E+02 0.12891710176E+02 0.11098628053E+02
 0.10099524008E+02 0.10176284815E+02 0.10442608800E+02 0.10176284815E+02 0.10099524008E+02
 0.11098628053E+02 0.12891710176E+02 0.15525727215E+02 0.21116125617E+02 0.32624146101E+02
 0.55070275694E+02 0.88794645615E+02 0.13031812736E+03 0.17756216188E+03 0.22715700942E+03
 0.26801996517E+03 0.33651453236E+03 0.31710087809E+03 0.26853980455E+03 0.21023301154E+03
 0.15502746795E+03 0.10588288330E+03 0.64721426857E+02 0.36473225499E+02 0.22244785703E+02
 0.15781999001E+02 0.12758374300E+02 0.10654915325E+02 0.94924255215E+01 0.96686762607E+01
 0.10040591865E+02 0.96686762607E+01 0.94924255215E+01 0.10654915325E+02 0.12758374300E+02
 0.15781999001E+02 0.22244785703E+02 0.36473225499E+02 0.64721426857E+02 0.10588288330E+03
 0.15502746795E+03 0.21023301154E+03 0.26853980455E+03 0.31710087809E+03 0.33686058324E+03
 0.31754090742E+03 0.26916194943E+03 0.21093044777E+03 0.15559915662E+03 0.10620990807E+03
 0.64837975643E+02 0.36490434183E+02 0.22239661955E+02 0.15766274198E+02 0.12719231438E+02
 0.10576152183E+02 0.93653089226E+01 0.95003086090E+01 0.98557991737E+01 0.95003086090E+01
 0.93653089226E+01 0.10576152183E+02 0.12719231438E+02 0.15766274198E+02 0.22239661955E+02
 0.36490434183E+02 0.64837975643E+02 0.10620990807E+03 0.15559915662E+03 0.21093044777E+03
 0.26916194943E+03 0.31754090742E+03 0.31828146565E+03 0.30008927810E+03 0.25443060960E+03
 0.19926218605E+03 0.14672123124E+03 0.10002047102E+03 0.61306729688E+02 0.35062011037E+02
 0.21817032404E+02 0.15642521502E+02 0.12718275413E+02 0.10665644105E+02 0.94921191807E+01
 0.95751404384E+01 0.98865901559E+01 0.95751404384E+01 0.94921191807E+01 0.10665644105E+02
 0.12718275413E+02 0.15642521502E+02 0.21817032404E+02 0.35062011037E+02 0.61306729688E+02
 0.10002047102E+03 0.14672123124E+03 0.19926218605E+03 0.25443060960E+03 0.30008927810E+03
 0.27066573141E+03 0.25528660834E+03 0.21645094150E+03 0.16907214410E+03 0.12378827836E+03
 0.84171242516E+02 0.52396811562E+02 0.31517193560E+02 0.20738109206E+02 0.15409661357E+02
 0.12873171473E+02 0.11131716058E+02 0.10130381982E+02 0.10136695557E+02 0.10356244967E+02
 0.10136695557E+02 0.10130381982E+02 0.11131716058E+02 0.12873171473E+02 0.15409661357E+02
 0.20738109206E+02 0.31517193560E+02 0.52396811562E+02 0.84171242516E+02 0.12378827836E+03
 0.16907214410E+03 0.21645094150E+03 0.25528660834E+03 0.21117986696E+03 0.19916471956E+03
 0.16859788900E+03 0.13095174040E+03 0.95099388998E+02 0.64783556641E+02 0.41837519901E+02
 0.27414302345E+02 0.19447845864E+02 0.15361896920E+02 0.13474915448E+02 0.12289622166E+02
 0.11662215134E+02 0.11695974895E+02 0.11848835821E+02 0.11695974895E+02 0.11662215134E+02
 0.12289622166E+02 0.13474915448E+02 0.15361896920E+02 0.19447845864E+02 0.27414302345E+02
 0.41837519901E+02 0.64783556641E+02 0.95099388998E+02 0.13095174040E+03 0.16859788900E+03
 0.19916471956E+03 0.15328704552E+03 0.14446967664E+03 0.12194186723E+03 0.94160993299E+02
 0.68189936412E+02 0.47392384093E+02 0.32818110282E+02 0.23876623447E+02 0.18432054756E+02
 0.15789295818E+02 0.14755373746E+02 0.14315749129E+02 0.14243688194E+02 0.14469504277E+02
 0.14627802175E+02 0.14469504277E+02 0.14243688194E+02 0.14315749129E+02 0.14755373746E+02
 0.15789295818E+02 0.18432054756E+02 0.23876623447E+02 0.32818110282E+02 0.47392384093E+02
 0.68189936412E+02 0.94160993299E+02 0.12194186723E+03 0.14446967664E+03 0.10263234819E+03
 0.96757484722E+02 0.81780296046E+02 0.63514988664E+02 0.47005010648E+02 0.34622279597E+02
 0.26483707119E+02 0.21176071299E+02 0.18118430274E+02 0.17018892829E+02 0.17054465093E+02
 0.17572619728E+02 0.18273967955E+02 0.18922316124E+02 0.19197044968E+02 0.18922316124E+02
 0.18273967955E+02 0.17572619728E+02 0.17054465093E+02 0.17018892829E+02 0.18118430274E+02
 0.21176071299E+02 0.26483707119E+02 0.34622279597E+02 0.47005010648E+02 0.63514988664E+02
 0.81780296046E+02 0.96757484722E+02 0.62166194941E+02 0.58927768479E+02 0.50744847896E+02
 0.40979102762E+02 0.32491205411E+02 0.26384797790E+02 0.22190756687E+02 0.19661951063E+02
 0.18872860746E+02 0.19464075594E+02 0.20912203489E+02 0.22882010926E+02 0.25048639798E+02
 0.26814731383E+02 0.27505075213E+02 0.26814731383E+02 0.25048639798E+02 0.22882010926E+02
 0.20912203489E+02 0.19464075594E+02 0.18872860746E+02 0.19661951063E+02 0.22190756687E+02
 0.26384797790E+02 0.32491205411E+02 0.40979102762E+02 0.50744847896E+02 0.58927768479E+02
 0.35212366450E+02 0.33920662034E+02 0.30695082648E+02 0.26908647365E+02 0.23578979116E+02
 0.21003227704E+02 0.19572815883E+02 0.19554042017E+02 0.20910185713E+02 0.23445391840E+02
 0.27182301323E+02 0.31907212263E+02 0.36851587895E+02 0.40716310876E+02 0.42191048958E+02
 0.40716310876E+02 0.36851587895E+02 0.31907212263E+02 0.27182301323E+02 0.23445391840E+02
 0.20910185713E+02 0.19554042017E+02 0.19572815883E+02 0.21003227704E+02 0.23578979116E+02
 0.26908647365E+02 0.30695082648E+02 0.33920662034E+02 0.21429186757E+02 0.21053730215E+02
 0.20091927959E+02 0.18937766458E+02 0.18039672325E+02 0.17818286838E+02 0.18651694400E+02
 0.20776801629E+02 0.24280550614E+02 0.29511106374E+02 0.36521980127E+02 0.44792203510E+02
 0.53030225868E+02 0.59272402266E+02 0.61619316637E+02 0.59272402266E+02 0.53030225868E+02
 0.44792203510E+02 0.36521980127E+02 0.29511106374E+02 0.24280550614E+02 0.20776801629E+02
 0.18651694400E+02 0.17818286838E+02 0.18039672325E+02 0.18937766458E+02 0.20091927959E+02
 0.21053730215E+02 0.14915394468E+02 0.14820641773E+02 0.14659477051E+02 0.14698732840E+02
 0.15215023459E+02 0.16531594364E+02 0.19053401178E+02 0.23099439350E+02 0.29247863858E+02
 0.37709598009E+02 0.48043689978E+02 0.59335499411E+02 0.70039759087E+02 0.77945086319E+02
 0.80887588288E+02 0.77945086319E+02 0.70039759087E+02 0.59335499411E+02 0.48043689978E+02
 0.37709598009E+02 0.29247863858E+02 0.23099439350E+02 0.19053401178E+02 0.16531594364E+02
 0.15215023459E+02 0.14698732840E+02 0.14659477051E+02 0.14820641773E+02 0.11740169203E+02
 0.11762079409E+02 0.11970698982E+02 0.12635463629E+02 0.13985232465E+02 0.16354832744E+02
 0.20256569719E+02 0.26483997105E+02 0.35762143892E+02 0.47498002259E+02 0.60461774457E+02
 0.73528868885E+02 0.85412487590E+02 0.94098005278E+02 0.97334382405E+02 0.94098005278E+02
 0.85412487590E+02 0.73528868885E+02 0.60461774457E+02 0.47498002259E+02 0.35762143892E+02
 0.26483997105E+02 0.20256569719E+02 0.16354832744E+02 0.13985232465E+02 0.12635463629E+02
 0.11970698982E+02 0.11762079409E+02 0.95293834439E+01 0.96365907174E+01 0.10137717555E+02
 0.11325293946E+02 0.13379073934E+02 0.16655535154E+02 0.21917685110E+02 0.30691914190E+02
 0.43338346424E+02 0.58141592714E+02 0.73072804047E+02 0.87194850040E+02 0.99909319021E+02
 0.10941566758E+03 0.11303055511E+03 0.10941566758E+03 0.99909319021E+02 0.87194850040E+02
 0.73072804047E+02 0.58141592714E+02 0.43338346424E+02 0.30691914190E+02 0.21917685110E+02
 0.16655535154E+02 0.13379073934E+02 0.11325293946E+02 0.10137717555E+02 0.96365907174E+01
 0.82580863384E+01 0.83999399460E+01 0.90600870553E+01 0.10591791818E+02 0.13155439795E+02
 0.17141262737E+02 0.23732825535E+02 0.35048604727E+02 0.50881243538E+02 0.68400369758E+02
 0.85033804790E+02 0.10039784320E+03 0.11467993759E+03 0.12589373107E+03 0.13028614233E+03
 0.12589373107E+03 0.11467993759E+03 0.10039784320E+03 0.85033804790E+02 0.68400369758E+02
 0.50881243538E+02 0.35048604727E+02 0.23732825535E+02 0.17141262737E+02 0.13155439795E+02
 0.10591791818E+02 0.90600870553E+01 0.83999399460E+01 0.82868022085E+01 0.83794725434E+01
 0.89654124551E+01 0.10516898230E+02 0.13249312960E+02 0.17612731761E+02 0.25201736303E+02
 0.38441851433E+02 0.56636915464E+02 0.76157995483E+02 0.94199327559E+02 0.11098300875E+03
 0.12726250187E+03 0.14057016909E+03 0.14588866825E+03 0.14057016909E+03 0.12726250187E+03
 0.11098300875E+03 0.94199327559E+02 0.76157995483E+02 0.56636915464E+02 0.38441851433E+02
 0.25201736303E+02 0.17612731761E+02 0.13249312960E+02 0.10516898230E+02 0.89654124551E+01
 0.83794725434E+01 0.85810566490E+01 0.86322592369E+01 0.91312317489E+01 0.10618112414E+02
 0.13351393791E+02 0.17816336727E+02 0.25773912463E+02 0.39736265388E+02 0.58813838345E+02
 0.79090683368E+02 0.97711467290E+02 0.11516013268E+03 0.13238826971E+03 0.14666925571E+03
 0.15241278644E+03 0.14666925571E+03 0.13238826971E+03 0.11516013268E+03 0.97711467290E+02
 0.79090683368E+02 0.58813838345E+02 0.39736265388E+02 0.25773912463E+02 0.17816336727E+02
 0.13351393791E+02 0.10618112414E+02 0.91312317489E+01 0.86322592369E+01 0.82868022085E+01
 0.83794725434E+01 0.89654124551E+01 0.10516898230E+02 0.13249312960E+02 0.17612731761E+02
 0.25201736303E+02 0.38441851433E+02 0.56636915464E+02 0.76157995483E+02 0.94199327559E+02
 0.11098300875E+03 0.12726250187E+03 0.14057016909E+03 0.14588866825E+03 0.14057016909E+03
 0.12726250187E+03 0.11098300875E+03 0.94199327559E+02 0.76157995483E+02 0.56636915464E+02
 0.38441851433E+02 0.25201736303E+02 0.17612731761E+02 0.13249312960E+02 0.10516898230E+02
 0.89654124551E+01 0.83794725434E+01 0.82580863384E+01 0.83999399460E+01 0.90600870553E+01
 0.10591791818E+02 0.13155439795E+02 0.17141262737E+02 0.23732825535E+02 0.35048604727E+02
 0.50881243538E+02 0.68400369758E+02 0.85033804790E+02 0.10039784320E+03 0.11467993759E+03
 0.12589373107E+03 0.13028614233E+03 0.12589373107E+03 0.11467993759E+03 0.10039784320E+03
 0.85033804790E+02 0.68400369758E+02 0.50881243538E+02 0.35048604727E+02 0.23732825535E+02
 0.17141262737E+02 0.13155439795E+02 0.10591791818E+02 0.90600870553E+01 0.83999399460E+01
 0.95293834439E+01 0.96365907174E+01 0.10137717555E+02 0.11325293946E+02 0.13379073934E+02
 0.16655535154E+02 0.21917685110E+02 0.30691914190E+02 0.43338346424E+02 0.58141592714E+02
 0.73072804047E+02 0.87194850040E+02 0.99909319021E+02 0.10941566758E+03 0.11303055511E+03
 0.10941566758E+03 0.99909319021E+02 0.87194850040E+02 0.73072804047E+02 0.58141592714E+02
 0.43338346424E+02 0.30691914190E+02 0.21917685110E+02 0.16655535154E+02 0.13379073934E+02
 0.11325293946E+02 0.10137717555E+02 0.96365907174E+01 0.11740169203E+02 0.11762079409E+02
 0.11970698982E+02 0.12635463629E+02 0.13985232465E+02 0.16354832744E+02 0.20256569719E+02
 0.26483997105E+02 0.35762143892E+02 0.47498002259E+02 0.60461774457E+02 0.73528868885E+02
 0.85412487590E+02 0.94098005278E+02 0.97334382405E+02 0.94098005278E+02 0.85412487590E+02
 0.73528868885E+02 0.60461774457E+02 0.47498002259E+02 0.35762143892E+02 0.26483997105E+02
 0.20256569719E+02 0.16354832744E+02 0.13985232465E+02 0.12635463629E+02 0.11970698982E+02
 0.11762079409E+02 0.14915394468E+02 0.14820641773E+02 0.14659477051E+02 0.14698732840E+02
 0.15215023459E+02 0.16531594364E+02 0.19053401178E+02 0.23099439350E+02 0.29247863858E+02
 0.37709598009E+02 0.48043689978E+02 0.59335499411E+02 0.70039759087E+02 0.77945086319E+02
 0.80887588288E+02 0.77945086319E+02 0.70039759087E+02 0.59335499411E+02 0.48043689978E+02
 0.37709598009E+02 0.29247863858E+02 0.23099439350E+02 0.19053401178E+02 0.16531594364E+02
 0.15215023459E+02 0.14698732840E+02 0.14659477051E+02 0.14820641773E+02 0.21429186757E+02
 0.21053730215E+02 0.20091927959E+02 0.18937766458E+02 0.18039672325E+02 0.17818286838E+02
 0.18651694400E+02 0.20776801629E+02 0.24280550614E+02 0.29511106374E+02 0.36521980127E+02
 0.44792203510E+02 0.53030225868E+02 0.59272402266E+02 0.61619316637E+02 0.59272402266E+02
 0.53030225868E+02 0.44792203510E+02 0.36521980127E+02 0.29511106374E+02 0.24280550614E+02
 0.20776801629E+02 0.18651694400E+02 0.17818286838E+02 0.18039672325E+02 0.18937766458E+02
 0.20091927959E+02 0.21053730215E+02 0.35212366450E+02 0.33920662034E+02 0.30695082648E+02
 0.26908647365E+02 0.23578979116E+02 0.21003227704E+02 0.19572815883E+02 0.19554042017E+02
 0.20910185713E+02 0.23445391840E+02 0.27182301323E+02 0.31907212263E+02 0.36851587895E+02
 0.40716310876E+02 0.42191048958E+02 0.40716310876E+02 0.36851587895E+02 0.31907212263E+02
 0.27182301323E+02 0.23445391840E+02 0.20910185713E+02 0.19554042017E+02 0.19572815883E+02
 0.21003227704E+02 0.23578979116E+02 0.26908647365E+02 0.30695082648E+02 0.33920662034E+02
 0.62166194941E+02 0.58927768479E+02 0.50744847896E+02 0.40979102762E+02 0.32491205411E+02
 0.26384797790E+02 0.22190756687E+02 0.19661951063E+02 0.18872860746E+02 0.19464075594E+02
 0.20912203489E+02 0.22882010926E+02 0.25048639798E+02 0.26814731383E+02 0.27505075213E+02
 0.26814731383E+02 0.25048639798E+02 0.22882010926E+02 0.20912203489E+02 0.19464075594E+02
 0.18872860746E+02 0.19661951063E+02 0.22190756687E+02 0.26384797790E+02 0.32491205411E+02
 0.40979102762E+02 0.50744847896E+02 0.58927768479E+02 0.10263234819E+03 0.96757484722E+02
 0.81780296046E+02 0.63514988664E+02 0.47005010648E+02 0.34622279597E+02 0.26483707119E+02
 0.21176071299E+02 0.18118430274E+02 0.17018892829E+02 0.17054465093E+02 0.17572619728E+02
 0.18273967955E+02 0.18922316124E+02 0.19197044968E+02 0.18922316124E+02 0.18273967955E+02
 0.17572619728E+02 0.17054465093E+02 0.17018892829E+02 0.18118430274E+02 0.21176071299E+02
 0.26483707119E+02 0.34622279597E+02 0.47005010648E+02 0.63514988664E+02 0.81780296046E+02
 0.96757484722E+02 0.15328704552E+03 0.14446967664E+03 0.12194186723E+03 0.94160993299E+02
 0.68189936412E+02 0.47392384093E+02 0.32818110282E+02 0.23876623447E+02 0.18432054756E+02
 0.15789295818E+02 0.14755373746E+02 0.14315749129E+02 0.14243688194E+02 0.14469504277E+02
 0.14627802175E+02 0.14469504277E+02 0.14243688194E+02 0.14315749129E+02 0.14755373746E+02
 0.15789295818E+02 0.18432054756E+02 0.23876623447E+02 0.32818110282E+02 0.47392384093E+02
 0.68189936412E+02 0.94160993299E+02 0.12194186723E+03 0.14446967664E+03 0.21117986696E+03
 0.19916471956E+03 0.16859788900E+03 0.13095174040E+03 0.95099388998E+02 0.64783556641E+02
 0.41837519901E+02 0.27414302345E+02 0.19447845864E+02 0.15361896920E+02 0.13474915448E+02
 0.12289622166E+02 0.11662215134E+02 0.11695974895E+02 0.11848835821E+02 0.11695974895E+02
 0.11662215134E+02 0.12289622166E+02 0.13474915448E+02 0.15361896920E+02 0.19447845864E+02
 0.27414302345E+02 0.41837519901E+02 0.64783556641E+02 0.95099388998E+02 0.13095174040E+03
 0.16859788900E+03 0.19916471956E+03 0.27066573141E+03 0.25528660834E+03 0.21645094150E+03
 0.16907214410E+03 0.12378827836E+03 0.84171242516E+02 0.52396811562E+02 0.31517193560E+02
 0.20738109206E+02 0.15409661357E+02 0.12873171473E+02 0.11131716058E+02 0.10130381982E+02
 0.10136695557E+02 0.10356244967E+02 0.10136695557E+02 0.10130381982E+02 0.11131716058E+02
 0.12873171473E+02 0.15409661357E+02 0.20738109206E+02 0.31517193560E+02 0.52396811562E+02
 0.84171242516E+02 0.12378827836E+03 0.16907214410E+03 0.21645094150E+03 0.25528660834E+03
 0.31828146565E+03 0.30008927810E+03 0.25443060960E+03 0.19926218605E+03 0.14672123124E+03
 0.10002047102E+03 0.61306729688E+02 0.35062011037E+02 0.21817032404E+02 0.15642521502E+02
 0.12718275413E+02 0.10665644105E+02 0.94921191807E+01 0.95751404384E+01 0.98865901559E+01
 0.95751404384E+01 0.94921191807E+01 0.10665644105E+02 0.12718275413E+02 0.15642521502E+02
 0.21817032404E+02 0.35062011037E+02 0.61306729688E+02 0.10002047102E+03 0.14672123124E+03
 0.19926218605E+03 0.25443060960E+03 0.30008927810E+03 0.28521144792E+03 0.26927572141E+03
 0.22898308058E+03 0.17961846458E+03 0.13197987524E+03 0.89710461001E+02 0.55367607130E+02
 0.32649394156E+02 0.21089987661E+02 0.15480625040E+02 0.12802654231E+02 0.10932535771E+02
 0.98372224720E+01 0.98298276918E+01 0.10062082678E+02 0.98298276918E+01 0.98372224720E+01
 0.10932535771E+02 0.12802654231E+02 0.15480625040E+02 0.21089987661E+02 0.32649394156E+02
 0.55367607130E+02 0.89710461001E+02 0.13197987524E+03 0.17961846458E+03 0.22898308058E+03
 0.26927572141E+03 0.27129971393E+03 0.25612522201E+03 0.21768319267E+03 0.17046187311E+03
 0.12490540639E+03 0.84778432014E+02 0.52586933573E+02 0.31528596608E+02 0.20717744058E+02
 0.15378985161E+02 0.12818189495E+02 0.11033710241E+02 0.99782324316E+01 0.99366128740E+01
 0.10136588964E+02 0.99366128740E+01 0.99782324316E+01 0.11033710241E+02 0.12818189495E+02
 0.15378985161E+02 0.20717744058E+02 0.31528596608E+02 0.52586933573E+02 0.84778432014E+02
 0.12490540639E+03 0.17046187311E+03 0.21768319267E+03 0.25612522201E+03 0.23462001455E+03