   4   4   0   0
  0.1444527E+02  0.3866000E-09  0.3866000E-09  0.3866000E-09  0.5000000E-15
  1.000000000000000E-004
  CAR 
 unknown system                          
     27.39285440     -1.89454800  301      9.18213837      1.00000000
     -1.895  0.0000E+00  0.0000E+00
     -1.797  0.0000E+00  0.0000E+00
     -1.699  0.0000E+00  0.0000E+00
     -1.602  0.0000E+00  0.0000E+00
     -1.504 -0.2784E-28 -0.2718E-29
     -1.406 -0.5318E-25 -0.5195E-26
     -1.309 -0.6283E-22 -0.6139E-23
     -1.211 -0.4586E-19 -0.4484E-20
     -1.114 -0.2067E-16 -0.2022E-17
     -1.016 -0.5561E-14 -0.5449E-15
     -0.918 -0.9456E-12 -0.9286E-13
     -0.821 -0.9855E-10 -0.9713E-11
     -0.723 -0.6271E-08 -0.6219E-09
     -0.625 -0.2421E-06 -0.2426E-07
     -0.528 -0.5614E-05 -0.5723E-06
     -0.430 -0.7669E-04 -0.8059E-05
     -0.333 -0.5938E-03 -0.6603E-04
     -0.235 -0.2350E-02 -0.2954E-03
     -0.137 -0.2783E-02 -0.5672E-03
     -0.040  0.1094E-01  0.5007E-03
      0.058  0.4445E-01  0.4840E-02
      0.156  0.6247E-01  0.1094E-01
      0.253  0.3163E-01  0.1403E-01
      0.351 -0.6194E-02  0.1342E-01
      0.448  0.4794E-01  0.1810E-01
      0.546  0.2337E+00  0.4091E-01
      0.644  0.3725E+00  0.7728E-01
      0.741  0.2597E+00  0.1026E+00
      0.839  0.5921E-01  0.1084E+00
      0.937  0.1381E+00  0.1219E+00
      1.034  0.5374E+00  0.1744E+00
      1.132  0.7583E+00  0.2484E+00
      1.229  0.4785E+00  0.2951E+00
      1.327  0.1762E+00  0.3123E+00
      1.425  0.2892E+00  0.3405E+00
      1.522  0.5134E+00  0.3907E+00
      1.620  0.4500E+00  0.4346E+00
      1.718  0.2133E+00  0.4554E+00
      1.815  0.5834E-01  0.4611E+00
      1.913  0.9268E-01  0.4702E+00
      2.010  0.3161E+00  0.5010E+00
      2.108  0.5509E+00  0.5548E+00
      2.206  0.7097E+00  0.6241E+00
      2.303  0.1086E+01  0.7301E+00
      2.401  0.1657E+01  0.8918E+00
      2.499  0.1844E+01  0.1072E+01
      2.596  0.1454E+01  0.1214E+01
      2.694  0.7602E+00  0.1288E+01
      2.791  0.4128E+00  0.1328E+01
      2.889  0.1019E+01  0.1428E+01
      2.987  0.2174E+01  0.1640E+01
      3.084  0.2867E+01  0.1920E+01
      3.182  0.2823E+01  0.2196E+01
      3.280  0.2379E+01  0.2428E+01
      3.377  0.1772E+01  0.2601E+01
      3.475  0.2042E+01  0.2800E+01
      3.572  0.3955E+01  0.3186E+01
      3.670  0.5635E+01  0.3737E+01
      3.768  0.5442E+01  0.4268E+01
      3.865  0.5103E+01  0.4766E+01
      3.963  0.5994E+01  0.5351E+01
      4.061  0.7025E+01  0.6037E+01
      4.158  0.7363E+01  0.6756E+01
      4.256  0.6916E+01  0.7431E+01
      4.353  0.5706E+01  0.7988E+01
      4.451  0.4826E+01  0.8459E+01
      4.549  0.5280E+01  0.8974E+01
      4.646  0.6130E+01  0.9573E+01
      4.744  0.6082E+01  0.1017E+02
      4.842  0.5292E+01  0.1068E+02
      4.939  0.4581E+01  0.1113E+02
      5.037  0.4449E+01  0.1156E+02
      5.134  0.4750E+01  0.1203E+02
      5.232  0.4691E+01  0.1249E+02
      5.330  0.4334E+01  0.1291E+02
      5.427  0.4712E+01  0.1337E+02
      5.525  0.5851E+01  0.1394E+02
      5.623  0.6828E+01  0.1461E+02
      5.720  0.7066E+01  0.1530E+02
      5.818  0.6488E+01  0.1593E+02
      5.915  0.6007E+01  0.1652E+02
      6.013  0.6864E+01  0.1719E+02
      6.111  0.8112E+01  0.1798E+02
      6.208  0.8248E+01  0.1878E+02
      6.306  0.8818E+01  0.1965E+02
      6.404  0.1125E+02  0.2074E+02
      6.501  0.1283E+02  0.2200E+02
      6.599  0.1095E+02  0.2307E+02
      6.696  0.7477E+01  0.2380E+02
      6.794  0.5951E+01  0.2438E+02
      6.892  0.7159E+01  0.2508E+02
      6.989  0.8954E+01  0.2595E+02
      7.087  0.9818E+01  0.2691E+02
      7.185  0.9968E+01  0.2788E+02
      7.282  0.9400E+01  0.2880E+02
      7.380  0.7753E+01  0.2956E+02
      7.477  0.5845E+01  0.3013E+02
      7.575  0.4914E+01  0.3061E+02
      7.673  0.4771E+01  0.3107E+02
      7.770  0.4656E+01  0.3153E+02
      7.868  0.4461E+01  0.3196E+02
      7.966  0.4723E+01  0.3242E+02
      8.063  0.6004E+01  0.3301E+02
      8.161  0.7718E+01  0.3376E+02
      8.258  0.8388E+01  0.3458E+02
      8.356  0.7772E+01  0.3534E+02
      8.454  0.6727E+01  0.3600E+02
      8.551  0.5698E+01  0.3655E+02
      8.649  0.4857E+01  0.3703E+02
      8.747  0.4338E+01  0.3745E+02
      8.844  0.4619E+01  0.3790E+02
      8.942  0.5699E+01  0.3846E+02
      9.039  0.6491E+01  0.3909E+02
      9.137  0.6474E+01  0.3972E+02
      9.235  0.5942E+01  0.4030E+02
      9.332  0.5141E+01  0.4081E+02
      9.430  0.4333E+01  0.4123E+02
      9.528  0.3639E+01  0.4158E+02
      9.625  0.3362E+01  0.4191E+02
      9.723  0.3656E+01  0.4227E+02
      9.820  0.3416E+01  0.4260E+02
      9.918  0.2047E+01  0.4280E+02
     10.016  0.8999E+00  0.4289E+02
     10.113  0.9292E+00  0.4298E+02
     10.211  0.1315E+01  0.4311E+02
     10.309  0.1148E+01  0.4322E+02
     10.406  0.8188E+00  0.4330E+02
     10.504  0.8932E+00  0.4339E+02
     10.601  0.1004E+01  0.4349E+02
     10.699  0.8686E+00  0.4357E+02
     10.797  0.9172E+00  0.4366E+02
     10.894  0.1276E+01  0.4379E+02
     10.992  0.1581E+01  0.4394E+02
     11.090  0.1680E+01  0.4410E+02
     11.187  0.1360E+01  0.4424E+02
     11.285  0.6832E+00  0.4430E+02
     11.382  0.4056E+00  0.4434E+02
     11.480  0.7485E+00  0.4442E+02
     11.578  0.9931E+00  0.4451E+02
     11.675  0.7910E+00  0.4459E+02
     11.773  0.6721E+00  0.4466E+02
     11.871  0.8895E+00  0.4474E+02
     11.968  0.9923E+00  0.4484E+02
     12.066  0.7857E+00  0.4492E+02
     12.163  0.5741E+00  0.4497E+02
     12.261  0.4619E+00  0.4502E+02
     12.359  0.3457E+00  0.4505E+02
     12.456  0.4021E+00  0.4509E+02
     12.554  0.8011E+00  0.4517E+02
     12.652  0.1384E+01  0.4530E+02
     12.749  0.1723E+01  0.4547E+02
     12.847  0.1605E+01  0.4563E+02
     12.944  0.1377E+01  0.4576E+02
     13.042  0.1257E+01  0.4589E+02
     13.140  0.1114E+01  0.4599E+02
     13.237  0.8766E+00  0.4608E+02
     13.335  0.7161E+00  0.4615E+02
     13.433  0.8091E+00  0.4623E+02
     13.530  0.9478E+00  0.4632E+02
     13.628  0.9678E+00  0.4642E+02
     13.725  0.1339E+01  0.4655E+02
     13.823  0.2068E+01  0.4675E+02
     13.921  0.2199E+01  0.4696E+02
     14.018  0.1607E+01  0.4712E+02
     14.116  0.8947E+00  0.4721E+02
     14.214  0.2901E+00  0.4724E+02
     14.311  0.2156E-01  0.4724E+02
     14.409  0.2222E+00  0.4726E+02
     14.506  0.6058E+00  0.4732E+02
     14.604  0.6766E+00  0.4738E+02
     14.702  0.3440E+00  0.4742E+02
     14.799  0.7534E-01  0.4743E+02
     14.897  0.2108E+00  0.4745E+02
     14.995  0.6245E+00  0.4751E+02
     15.092  0.1102E+01  0.4761E+02
     15.190  0.1441E+01  0.4776E+02
     15.287  0.1366E+01  0.4789E+02
     15.385  0.1178E+01  0.4800E+02
     15.483  0.1531E+01  0.4815E+02
     15.580  0.2104E+01  0.4836E+02
     15.678  0.2095E+01  0.4856E+02
     15.776  0.1733E+01  0.4873E+02
     15.873  0.1383E+01  0.4887E+02
     15.971  0.9663E+00  0.4896E+02
     16.068  0.9337E+00  0.4905E+02
     16.166  0.1554E+01  0.4920E+02
     16.264  0.1968E+01  0.4940E+02
     16.361  0.1404E+01  0.4953E+02
     16.459  0.4278E+00  0.4958E+02
     16.557 -0.8815E-01  0.4957E+02
     16.654  0.4078E-01  0.4957E+02
     16.752  0.7827E+00  0.4965E+02
     16.849  0.1814E+01  0.4982E+02
     16.947  0.2294E+01  0.5005E+02
     17.045  0.1885E+01  0.5023E+02
     17.142  0.1055E+01  0.5033E+02
     17.240  0.3226E+00  0.5037E+02
     17.338  0.1066E+00  0.5038E+02
     17.435  0.5403E+00  0.5043E+02
     17.533  0.1163E+01  0.5054E+02
     17.630  0.1417E+01  0.5068E+02
     17.728  0.1422E+01  0.5082E+02
     17.826  0.1869E+01  0.5100E+02
     17.923  0.2806E+01  0.5128E+02
     18.021  0.2991E+01  0.5157E+02
     18.119  0.1893E+01  0.5175E+02
     18.216  0.7031E+00  0.5182E+02
     18.314  0.3700E+00  0.5186E+02
     18.411  0.6362E+00  0.5192E+02
     18.509  0.1060E+01  0.5202E+02
     18.607  0.1544E+01  0.5217E+02
     18.704  0.1802E+01  0.5235E+02
     18.802  0.1666E+01  0.5251E+02
     18.900  0.1544E+01  0.5266E+02
     18.997  0.1522E+01  0.5281E+02
     19.095  0.1152E+01  0.5292E+02
     19.192  0.5590E+00  0.5298E+02
     19.290  0.4319E+00  0.5302E+02
     19.388  0.9447E+00  0.5311E+02
     19.485  0.1480E+01  0.5326E+02
     19.583  0.1466E+01  0.5340E+02
     19.681  0.1159E+01  0.5351E+02
     19.778  0.1281E+01  0.5364E+02
     19.876  0.1918E+01  0.5383E+02
     19.973  0.2521E+01  0.5407E+02
     20.071  0.2743E+01  0.5434E+02
     20.169  0.2426E+01  0.5458E+02
     20.266  0.1759E+01  0.5475E+02
     20.364  0.1564E+01  0.5490E+02
     20.462  0.1958E+01  0.5509E+02
     20.559  0.1995E+01  0.5529E+02
     20.657  0.1418E+01  0.5543E+02
     20.754  0.7904E+00  0.5550E+02
     20.852  0.4647E+00  0.5555E+02
     20.950  0.6952E+00  0.5562E+02
     21.047  0.1502E+01  0.5576E+02
     21.145  0.2211E+01  0.5598E+02
     21.242  0.2144E+01  0.5619E+02
     21.340  0.1654E+01  0.5635E+02
     21.438  0.1678E+01  0.5651E+02
     21.535  0.2318E+01  0.5674E+02
     21.633  0.2714E+01  0.5700E+02
     21.731  0.2406E+01  0.5724E+02
     21.828  0.1852E+01  0.5742E+02
     21.926  0.1560E+01  0.5757E+02
     22.023  0.1523E+01  0.5772E+02
     22.121  0.1613E+01  0.5788E+02
     22.219  0.1760E+01  0.5805E+02
     22.316  0.1824E+01  0.5823E+02
     22.414  0.1745E+01  0.5840E+02
     22.512  0.1402E+01  0.5854E+02
     22.609  0.9439E+00  0.5863E+02
     22.707  0.8256E+00  0.5871E+02
     22.804  0.1090E+01  0.5882E+02
     22.902  0.1408E+01  0.5895E+02
     23.000  0.1427E+01  0.5909E+02
     23.097  0.1009E+01  0.5919E+02
     23.195  0.4990E+00  0.5924E+02
     23.293  0.3360E+00  0.5927E+02
     23.390  0.4150E+00  0.5931E+02
     23.488  0.3589E+00  0.5935E+02
     23.585  0.1503E+00  0.5936E+02
     23.683  0.6910E-02  0.5936E+02
     23.781 -0.1976E-01  0.5936E+02
     23.878 -0.8909E-02  0.5936E+02
     23.976 -0.5782E-02  0.5936E+02
     24.074 -0.1877E-01  0.5936E+02
     24.171 -0.3477E-01  0.5935E+02
     24.269  0.3387E-01  0.5936E+02
     24.366  0.2996E+00  0.5939E+02
     24.464  0.7044E+00  0.5946E+02
     24.562  0.1051E+01  0.5956E+02
     24.659  0.1093E+01  0.5966E+02
     24.757  0.6967E+00  0.5973E+02
     24.855  0.1908E+00  0.5975E+02
     24.952 -0.5326E-01  0.5975E+02
     25.050 -0.8022E-01  0.5974E+02
     25.147  0.4647E-01  0.5974E+02
     25.245  0.4301E+00  0.5979E+02
     25.343  0.8750E+00  0.5987E+02
     25.440  0.8845E+00  0.5996E+02
     25.538  0.4477E+00  0.6000E+02
     25.636  0.6566E-01  0.6001E+02
     25.733 -0.4116E-01  0.6000E+02
     25.831 -0.2360E-01  0.6000E+02
     25.928 -0.5372E-02  0.6000E+02
     26.026 -0.6591E-03  0.6000E+02
     26.124 -0.4688E-04  0.6000E+02
     26.221 -0.1988E-05  0.6000E+02
     26.319 -0.5098E-07  0.6000E+02
     26.417 -0.7961E-09  0.6000E+02
     26.514 -0.7610E-11  0.6000E+02
     26.612 -0.4454E-13  0.6000E+02
     26.709 -0.2911E-15  0.6000E+02
     26.807  0.0000E+00  0.6000E+02
     26.905  0.0000E+00  0.6000E+02
     27.002  0.0000E+00  0.6000E+02
     27.100  0.0000E+00  0.6000E+02
     27.198  0.0000E+00  0.6000E+02
     27.295  0.0000E+00  0.6000E+02
     27.393  0.0000E+00  0.6000E+02
