    4    4    1    1
  0.1444527E+02  0.3866000E-09  0.3866000E-09  0.3866000E-09  0.5000000E-15
  1.000000000000000E-004
  CAR 
 unknown system                          
     40     27     30
 
  0.0000000E+00  0.0000000E+00  0.0000000E+00  0.8000000E-02
    1        0.105452   1.000000
    2        2.565293   1.000000
    3        3.513221   1.000000
    4        3.542135   1.000000
    5        3.621197   1.000000
    6        3.701807   1.000000
    7        3.717337   1.000000
    8        6.179317   1.000000
    9        6.181074   1.000000
   10        6.327046   1.000000
   11        7.355553   1.000000
   12        7.494818   1.000000
   13        8.177153   1.000000
   14        8.307900   1.000000
   15        8.497555   1.000007
   16        9.201644   0.417896
   17        9.355599  -0.005319
   18        9.462949  -0.031623
   19        9.732305  -0.000351
   20       10.220747  -0.000000
   21       10.800000  -0.000000
   22       11.402656  -0.000000
   23       11.411028  -0.000000
   24       11.423499  -0.000000
   25       17.867725   0.000000
   26       18.144375   0.000000
   27       19.739142   0.000000
   28       20.309351   0.000000
   29       20.454748   0.000000
   30       20.693849   0.000000
 
  0.2000000E+00  0.0000000E+00  0.0000000E+00  0.1600000E-01
    1        0.571326   1.000000
    2        2.869957   1.000000
    3        3.685857   1.000000
    4        3.687582   1.000000
    5        3.887285   1.000000
    6        3.972419   1.000000
    7        4.027178   1.000000
    8        5.943715   1.000000
    9        6.321577   1.000000
   10        6.481252   1.000000
   11        7.297351   1.000000
   12        7.408952   1.000000
   13        7.634720   1.000000
   14        7.828430   1.000000
   15        7.954352   1.000000
   16        8.130192   1.000000
   17        8.978165   1.027068
   18        9.071785   0.897195
   19        9.215487   0.361043
   20        9.442723  -0.034613
   21        9.714201  -0.000549
   22       10.791806  -0.000000
   23       13.178801  -0.000000
   24       13.183177  -0.000000
   25       17.877464   0.000000
   26       18.020998   0.000000
   27       20.406612   0.000000
   28       20.449024   0.000000
   29       20.598796   0.000000
   30       20.974211   0.000000
 
  0.0000000E+00  0.2000000E+00  0.0000000E+00  0.1600000E-01
    1        0.624148   1.000000
    2        2.885290   1.000000
    3        3.640392   1.000000
    4        3.754956   1.000000
    5        3.830967   1.000000
    6        3.968870   1.000000
    7        4.063813   1.000000
    8        6.114941   1.000000
    9        6.346905   1.000000
   10        6.354205   1.000000
   11        7.233495   1.000000
   12        7.541730   1.000000
   13        7.562804   1.000000
   14        7.729233   1.000000
   15        8.213405   1.000000
   16        8.720487   1.002612
   17        8.986240   1.022866
   18        9.140086   0.673652
   19        9.200619   0.422169
   20        9.261649   0.191230
   21        9.429423  -0.035437
   22        9.698870  -0.000790
   23       13.291245  -0.000000
   24       13.410495  -0.000000
   25       17.426501   0.000000
   26       18.660714   0.000000
   27       20.341605   0.000000
   28       20.402152   0.000000
   29       20.593982   0.000000
   30       21.276528   0.000000
 
  0.0000000E+00  0.0000000E+00  0.2000000E+00  0.1600000E-01
    1        0.625925   1.000000
    2        2.898485   1.000000
    3        3.793286   1.000000
    4        3.839810   1.000000
    5        3.876586   1.000000
    6        3.877901   1.000000
    7        3.893332   1.000000
    8        5.932610   1.000000
    9        6.318042   1.000000
   10        6.482725   1.000000
   11        7.236761   1.000000
   12        7.507113   1.000000
   13        7.530226   1.000000
   14        7.918242   1.000000
   15        8.029017   1.000000
   16        8.444493   1.000001
   17        8.803462   1.011109
   18        9.098367   0.822338
   19        9.137884   0.682268
   20        9.280704   0.133866
   21        9.727450  -0.000397
   22       10.193681  -0.000000
   23       13.260785  -0.000000
   24       13.375781  -0.000000
   25       17.114895   0.000000
   26       18.865108   0.000000
   27       20.432760   0.000000
   28       20.454542   0.000000
   29       20.713787   0.000000
   30       21.198046   0.000000
 
  0.4000000E+00  0.0000000E+00  0.0000000E+00  0.1600000E-01
    1        1.675316   1.000000
    2        3.496560   1.000000
    3        3.797269   1.000000
    4        4.042041   1.000000
    5        4.694383   1.000000
    6        4.733965   1.000000
    7        4.818281   1.000000
    8        5.521216   1.000000
    9        6.016446   1.000000
   10        6.121455   1.000000
   11        6.831294   1.000000
   12        6.914777   1.000000
   13        6.952654   1.000000
   14        7.144736   1.000000
   15        7.312742   1.000000
   16        7.535274   1.000000
   17        8.123932   1.000000
   18        8.204768   1.000000
   19        8.232636   1.000000
   20        8.535788   1.000024
   21        9.322948   0.038721
   22       10.790806  -0.000000
   23       15.726393   0.000000
   24       15.801951   0.000000
   25       17.064662   0.000000
   26       18.013050   0.000000
   27       18.627482   0.000000
   28       18.748763   0.000000
   29       19.143415   0.000000
   30       21.835363   0.000000
 
  0.0000000E+00  0.4000000E+00  0.0000000E+00  0.1600000E-01
    1        1.996875   1.000000
    2        3.295867   1.000000
    3        3.756751   1.000000
    4        4.093120   1.000000
    5        4.624745   1.000000
    6        4.677523   1.000000
    7        4.960969   1.000000
    8        5.739101   1.000000
    9        6.337650   1.000000
   10        6.360573   1.000000
   11        6.796737   1.000000
   12        6.862615   1.000000
   13        6.886091   1.000000
   14        7.077376   1.000000
   15        7.522169   1.000000
   16        7.867199   1.000000
   17        7.876660   1.000000
   18        8.047891   1.000000
   19        8.161925   1.000000
   20        8.421959   1.000001
   21        9.085227   0.861498
   22        9.412024  -0.034491
   23       15.928047   0.000000
   24       15.971742   0.000000
   25       16.693741   0.000000
   26       18.482762   0.000000
   27       18.487591   0.000000
   28       18.634975   0.000000
   29       20.466937   0.000000
   30       20.751527   0.000000
 
  0.0000000E+00  0.0000000E+00  0.4000000E+00  0.1600000E-01
    1        2.013394   1.000000
    2        3.292525   1.000000
    3        3.969143   1.000000
    4        4.333998   1.000000
    5        4.627173   1.000000
    6        4.714291   1.000000
    7        4.730533   1.000000
    8        5.415686   1.000000
    9        6.012662   1.000000
   10        6.132874   1.000000
   11        6.807830   1.000000
   12        6.961526   1.000000
   13        6.965660   1.000000
   14        7.094490   1.000000
   15        7.362576   1.000000
   16        7.666800   1.000000
   17        8.011507   1.000000
   18        8.035701   1.000000
   19        8.406256   1.000000
   20        8.424582   1.000001
   21        8.909114   1.032968
   22       10.176314  -0.000000
   23       15.901416   0.000000
   24       16.025256   0.000000
   25       16.251337   0.000000
   26       18.455966   0.000000
   27       18.728750   0.000000
   28       18.977747   0.000000
   29       20.060829   0.000000
   30       21.108494   0.000000
 
  0.2000000E+00  0.2000000E+00  0.0000000E+00  0.3200000E-01
    1        1.068027   1.000000
    2        3.180359   1.000000
    3        3.919219   1.000000
    4        3.919981   1.000000
    5        4.097283   1.000000
    6        4.108474   1.000000
    7        4.379027   1.000000
    8        5.898720   1.000000
    9        6.375571   1.000000
   10        6.507862   1.000000
   11        7.041945   1.000000
   12        7.216617   1.000000
   13        7.239929   1.000000
   14        7.313314   1.000000
   15        7.766672   1.000000
   16        7.961303   1.000000
   17        8.315406   1.000000
   18        8.884918   1.028267
   19        8.936028   1.035453
   20        9.037336   0.967976
   21        9.712035  -0.000579
   22       10.883996  -0.000000
   23       11.878509  -0.000000
   24       14.553537  -0.000000
   25       16.974113   0.000000
   26       19.010618   0.000000
   27       20.046559   0.000000
   28       20.414196   0.000000
   29       21.067324   0.000000
   30       21.694467   0.000000
 
  0.0000000E+00  0.2000000E+00  0.2000000E+00  0.3200000E-01
    1        1.095139   1.000000
    2        3.213470   1.000000
    3        3.906421   1.000000
    4        3.966591   1.000000
    5        4.039954   1.000000
    6        4.208095   1.000000
    7        4.325323   1.000000
    8        5.882131   1.000000
    9        6.381927   1.000000
   10        6.515912   1.000000
   11        7.060001   1.000000
   12        7.194198   1.000000
   13        7.263703   1.000000
   14        7.300158   1.000000
   15        7.720929   1.000000
   16        8.057814   1.000000
   17        8.413155   1.000000
   18        8.689123   1.001352
   19        8.889917   1.029346
   20        8.902461   1.031831
   21        9.538932  -0.015055
   22       10.923510  -0.000000
   23       12.239654  -0.000000
   24       14.455142  -0.000000
   25       16.833435   0.000000
   26       19.065584   0.000000
   27       19.533236   0.000000
   28       20.943027   0.000000
   29       21.222221   0.000000
   30       21.935041   0.000000
 
  0.2000000E+00  0.0000000E+00  0.2000000E+00  0.3200000E-01
    1        1.067990   1.000000
    2        3.196157   1.000000
    3        3.920863   1.000000
    4        3.951418   1.000000
    5        4.063899   1.000000
    6        4.217722   1.000000
    7        4.311489   1.000000
    8        5.756863   1.000000
    9        6.426968   1.000000
   10        6.549812   1.000000
   11        7.000377   1.000000
   12        7.203424   1.000000
   13        7.207972   1.000000
   14        7.260130   1.000000
   15        7.772377   1.000000
   16        7.821338   1.000000
   17        8.183657   1.000000
   18        8.978287   1.027012
   19        9.034933   0.971825
   20        9.238116   0.273112
   21        9.832266  -0.000021
   22       11.130917  -0.000000
   23       11.539482  -0.000000
   24       14.547222  -0.000000
   25       16.940570   0.000000
   26       18.940468   0.000000
   27       19.992654   0.000000
   28       20.536930   0.000000
   29       21.145858   0.000000
   30       21.833242   0.000000
 
  0.4000000E+00  0.2000000E+00  0.0000000E+00  0.3200000E-01
    1        2.140181   1.000000
    2        3.772607   1.000000
    3        4.118749   1.000000
    4        4.278220   1.000000
    5        4.655013   1.000000
    6        4.823589   1.000000
    7        5.006960   1.000000
    8        5.449588   1.000000
    9        5.652893   1.000000
   10        6.074100   1.000000
   11        6.334792   1.000000
   12        6.456472   1.000000
   13        6.924868   1.000000
   14        7.161321   1.000000
   15        7.293995   1.000000
   16        7.640352   1.000000
   17        7.803174   1.000000
   18        8.379803   1.000000
   19        8.428590   1.000001
   20        8.924599   1.034898
   21        9.534283  -0.015986
   22        9.797802  -0.000060
   23       13.113626  -0.000000
   24       15.195296   0.000000
   25       16.923810   0.000000
   26       18.085458   0.000000
   27       19.572031   0.000000
   28       19.817848   0.000000
   29       21.845396   0.000000
   30       23.083961   0.000000
 
  0.0000000E+00  0.4000000E+00  0.2000000E+00  0.3200000E-01
    1        2.349023   1.000000
    2        3.634216   1.000000
    3        4.007642   1.000000
    4        4.281122   1.000000
    5        4.577095   1.000000
    6        4.797598   1.000000
    7        5.148308   1.000000
    8        5.622394   1.000000
    9        5.774598   1.000000
   10        6.261718   1.000000
   11        6.311504   1.000000
   12        6.473693   1.000000
   13        6.896495   1.000000
   14        7.120901   1.000000
   15        7.584065   1.000000
   16        7.672416   1.000000
   17        7.754364   1.000000
   18        8.153888   1.000000
   19        8.356149   1.000000
   20        8.918674   1.034297
   21        9.040353   0.962951
   22        9.354471  -0.004185
   23       13.595380  -0.000000
   24       15.148756   0.000000
   25       16.794785   0.000000
   26       18.367894   0.000000
   27       19.391239   0.000000
   28       19.574342   0.000000
   29       21.689718   0.000000
   30       23.308490   0.000000
 
  0.2000000E+00  0.0000000E+00  0.4000000E+00  0.3200000E-01
    1        2.387368   1.000000
    2        3.641977   1.000000
    3        4.227276   1.000000
    4        4.420368   1.000000
    5        4.611137   1.000000
    6        4.941800   1.000000
    7        4.945568   1.000000
    8        5.273038   1.000000
    9        5.550067   1.000000
   10        6.133621   1.000000
   11        6.398610   1.000000
   12        6.488061   1.000000
   13        6.946363   1.000000
   14        7.170919   1.000000
   15        7.325833   1.000000
   16        7.650063   1.000000
   17        7.968856   1.000000
   18        8.233578   1.000000
   19        8.442195   1.000001
   20        8.670945   1.000898
   21        9.254106   0.216234
   22        9.426660  -0.035457
   23       13.457201  -0.000000
   24       15.192265   0.000000
   25       16.850299   0.000000
   26       17.955608   0.000000
   27       19.380699   0.000000
   28       20.131678   0.000000
   29       21.958775   0.000000
   30       22.971925   0.000000
 
 -0.2000000E+00  0.4000000E+00  0.0000000E+00  0.3200000E-01
    1        2.384177   1.000000
    2        3.621370   1.000000
    3        4.056370   1.000000
    4        4.294337   1.000000
    5        4.595356   1.000000
    6        4.758571   1.000000
    7        5.133841   1.000000
    8        5.625506   1.000000
    9        5.952089   1.000000
   10        6.227068   1.000000
   11        6.247329   1.000000
   12        6.456765   1.000000
   13        6.895106   1.000000
   14        7.158635   1.000000
   15        7.493543   1.000000
   16        7.694211   1.000000
   17        7.788034   1.000000
   18        8.172794   1.000000
   19        8.433008   1.000001
   20        8.825683   1.015122
   21        8.937243   1.035458
   22        9.209026   0.387360
   23       13.508935  -0.000000
   24       15.183785   0.000000
   25       16.847428   0.000000
   26       18.332213   0.000000
   27       19.364057   0.000000
   28       19.751456   0.000000
   29       22.000176   0.000000
   30       23.003592   0.000000
 
 -0.4000000E+00  0.0000000E+00  0.2000000E+00  0.3200000E-01
    1        2.136163   1.000000
    2        3.810936   1.000000
    3        4.076541   1.000000
    4        4.246734   1.000000
    5        4.603207   1.000000
    6        4.869818   1.000000
    7        5.057606   1.000000
    8        5.397193   1.000000
    9        5.564477   1.000000
   10        6.136394   1.000000
   11        6.406385   1.000000
   12        6.497920   1.000000
   13        6.935063   1.000000
   14        7.165017   1.000000
   15        7.265608   1.000000
   16        7.628295   1.000000
   17        8.006631   1.000000
   18        8.141669   1.000000
   19        8.525392   1.000018
   20        8.952392   1.034472
   21        9.498928  -0.023809
   22        9.750597  -0.000219
   23       13.091838  -0.000000
   24       15.259371   0.000000
   25       16.877375   0.000000
   26       18.050535   0.000000
   27       19.477467   0.000000
   28       19.754435   0.000000
   29       21.955653   0.000000
   30       22.968283   0.000000
 
  0.0000000E+00  0.2000000E+00  0.4000000E+00  0.3200000E-01
    1        2.358001   1.000000
    2        3.615464   1.000000
    3        4.233099   1.000000
    4        4.455035   1.000000
    5        4.627207   1.000000
    6        4.901550   1.000000
    7        4.914654   1.000000
    8        5.339017   1.000000
    9        5.540137   1.000000
   10        6.079837   1.000000
   11        6.308437   1.000000
   12        6.483862   1.000000
   13        6.948912   1.000000
   14        7.123875   1.000000
   15        7.415641   1.000000
   16        7.672203   1.000000
   17        7.739644   1.000000
   18        8.285861   1.000000
   19        8.578908   1.000085
   20        8.607493   1.000186
   21        9.448526  -0.033934
   22        9.547446  -0.013432
   23       13.555069  -0.000000
   24       15.091356   0.000000
   25       16.851258   0.000000
   26       18.011662   0.000000
   27       19.495729   0.000000
   28       20.016080   0.000000
   29       21.568429   0.000000
   30       23.415779   0.000000
 
  0.4000000E+00  0.4000000E+00  0.0000000E+00  0.3200000E-01
    1        3.285630   1.000000
    2        4.203053   1.000000
    3        4.462560   1.000000
    4        4.787727   1.000000
    5        4.868212   1.000000
    6        5.076995   1.000000
    7        5.197296   1.000000
    8        5.325282   1.000000
    9        5.361968   1.000000
   10        5.871198   1.000000
   11        6.000108   1.000000
   12        6.284791   1.000000
   13        6.914289   1.000000
   14        7.097419   1.000000
   15        7.113706   1.000000
   16        7.322582   1.000000
   17        7.522441   1.000000
   18        8.088105   1.000000
   19        8.395537   1.000000
   20        8.438287   1.000001
   21        9.129649   0.713848
   22       10.119699  -0.000000
   23       11.614602  -0.000000
   24       12.961494  -0.000000
   25       18.828799   0.000000
   26       18.965455   0.000000
   27       20.501591   0.000000
   28       21.202295   0.000000
   29       21.238010   0.000000
   30       21.688775   0.000000
 
  0.0000000E+00  0.4000000E+00  0.4000000E+00  0.3200000E-01
    1        3.180683   1.000000
    2        3.979808   1.000000
    3        4.370455   1.000000
    4        4.751657   1.000000
    5        4.963396   1.000000
    6        5.108650   1.000000
    7        5.121460   1.000000
    8        5.394029   1.000000
    9        5.416096   1.000000
   10        5.894368   1.000000
   11        6.088893   1.000000
   12        6.290636   1.000000
   13        6.922327   1.000000
   14        7.090113   1.000000
   15        7.144409   1.000000
   16        7.231194   1.000000
   17        7.417947   1.000000
   18        8.033524   1.000000
   19        8.621891   1.000272
   20        8.681068   1.001131
   21        9.199659   0.426176
   22        9.945864  -0.000000
   23       12.178414  -0.000000
   24       13.019999  -0.000000
   25       18.570400   0.000000
   26       18.699291   0.000000
   27       20.390712   0.000000
   28       20.521322   0.000000
   29       21.079377   0.000000
   30       22.150497   0.000000
 
  0.4000000E+00  0.0000000E+00  0.4000000E+00  0.3200000E-01
    1        3.253383   1.000000
    2        4.348083   1.000000
    3        4.429781   1.000000
    4        4.655941   1.000000
    5        4.750945   1.000000
    6        4.993815   1.000000
    7        5.040528   1.000000
    8        5.248448   1.000000
    9        5.581820   1.000000
   10        6.019952   1.000000
   11        6.168060   1.000000
   12        6.393372   1.000000
   13        6.856385   1.000000
   14        7.087077   1.000000
   15        7.117902   1.000000
   16        7.321741   1.000000
   17        7.808008   1.000000
   18        7.960048   1.000000
   19        8.195649   1.000000
   20        8.300714   1.000000
   21        9.328574   0.029393
   22       10.517414  -0.000000
   23       11.155645  -0.000000
   24       12.846383  -0.000000
   25       18.739010   0.000000
   26       18.928585   0.000000
   27       20.710634   0.000000
   28       21.028996   0.000000
   29       21.431162   0.000000
   30       21.505683   0.000000
 
  0.2000000E+00  0.2000000E+00  0.2000000E+00  0.6400000E-01
    1        1.481810   1.000000
    2        3.416187   1.000000
    3        3.982439   1.000000
    4        4.117089   1.000000
    5        4.177808   1.000000
    6        4.551884   1.000000
    7        4.680938   1.000000
    8        5.723559   1.000000
    9        6.435518   1.000000
   10        6.531748   1.000000
   11        6.644438   1.000000
   12        6.837142   1.000000
   13        7.030898   1.000000
   14        7.296511   1.000000
   15        7.403910   1.000000
   16        7.598723   1.000000
   17        8.287847   1.000000
   18        8.353777   1.000000
   19        8.524285   1.000017
   20        9.060555   0.923535
   21        9.802668  -0.000052
   22       11.822438  -0.000000
   23       12.497339  -0.000000
   24       12.713779  -0.000000
   25       17.674603   0.000000
   26       17.905071   0.000000
   27       18.615840   0.000000
   28       21.118559   0.000000
   29       21.533314   0.000000
   30       21.710933   0.000000
 
  0.4000000E+00  0.2000000E+00  0.2000000E+00  0.6400000E-01
    1        2.391317   1.000000
    2        3.730961   1.000000
    3        4.205707   1.000000
    4        4.535792   1.000000
    5        4.547631   1.000000
    6        4.831759   1.000000
    7        5.325321   1.000000
    8        5.539125   1.000000
    9        5.786751   1.000000
   10        5.999524   1.000000
   11        6.358775   1.000000
   12        6.469143   1.000000
   13        6.657901   1.000000
   14        7.017022   1.000000
   15        7.095832   1.000000
   16        7.546809   1.000000
   17        8.072140   1.000000
   18        8.188008   1.000000
   19        8.622943   1.000279
   20        8.994233   1.017660
   21        9.496797  -0.024302
   22        9.772879  -0.000121
   23       13.802529  -0.000000
   24       13.820124  -0.000000
   25       15.526016   0.000000
   26       16.291782   0.000000
   27       20.121410   0.000000
   28       21.526812   0.000000
   29       22.107142   0.000000
   30       22.372735   0.000000
 
  0.2000000E+00  0.4000000E+00  0.2000000E+00  0.6400000E-01
    1        2.564031   1.000000
    2        3.625264   1.000000
    3        4.010148   1.000000
    4        4.493120   1.000000
    5        4.668732   1.000000
    6        4.864699   1.000000
    7        5.529592   1.000000
    8        5.603275   1.000000
    9        5.779680   1.000000
   10        6.093420   1.000000
   11        6.449455   1.000000
   12        6.495499   1.000000
   13        6.575051   1.000000
   14        7.009380   1.000000
   15        7.161222   1.000000
   16        7.277157   1.000000
   17        8.162913   1.000000
   18        8.228612   1.000000
   19        8.395865   1.000000
   20        8.910495   1.033184
   21        9.343732   0.007942
   22        9.640023  -0.002816
   23       13.809526  -0.000000
   24       14.046947  -0.000000
   25       15.593564   0.000000
   26       16.139444   0.000000
   27       20.205537   0.000000
   28       21.592456   0.000000
   29       22.245393   0.000000
   30       22.407249   0.000000
 
  0.2000000E+00  0.2000000E+00  0.4000000E+00  0.6400000E-01
    1        2.568895   1.000000
    2        3.624550   1.000000
    3        4.160092   1.000000
    4        4.491612   1.000000
    5        4.674945   1.000000
    6        5.043223   1.000000
    7        5.180526   1.000000
    8        5.523872   1.000000
    9        5.735312   1.000000
   10        5.972262   1.000000
   11        6.354787   1.000000
   12        6.473356   1.000000
   13        6.662528   1.000000
   14        7.039239   1.000000
   15        7.140567   1.000000
   16        7.412397   1.000000
   17        8.172291   1.000000
   18        8.186882   1.000000
   19        8.538606   1.000026
   20        8.847488   1.019727
   21        9.429145  -0.035442
   22        9.720170  -0.000475
   23       13.814111  -0.000000
   24       13.987488  -0.000000
   25       15.577768   0.000000
   26       16.228460   0.000000
   27       20.114135   0.000000
   28       21.370467   0.000000
   29       22.205636   0.000000
   30       22.472448   0.000000
 
  0.4000000E+00  0.4000000E+00  0.2000000E+00  0.6400000E-01
    1        3.039925   1.000000
    2        3.553449   1.000000
    3        3.870303   1.000000
    4        4.259881   1.000000
    5        5.177074   1.000000
    6        5.478513   1.000000
    7        5.722274   1.000000
    8        5.901796   1.000000
    9        6.072591   1.000000
   10        6.128892   1.000000
   11        6.335780   1.000000
   12        6.514750   1.000000
   13        6.600514   1.000000
   14        6.717450   1.000000
   15        6.875542   1.000000
   16        6.976827   1.000000
   17        7.917930   1.000000
   18        8.353356   1.000000
   19        8.744222   1.004134
   20        9.066266   0.910539
   21        9.209746   0.384408
   22       10.250248  -0.000000
   23       11.500063  -0.000000
   24       12.713660  -0.000000
   25       15.806019   0.000000
   26       17.491044   0.000000
   27       17.909466   0.000000
   28       19.898448   0.000000
   29       22.791511   0.000000
   30       24.577385   0.000000
 
  0.2000000E+00  0.4000000E+00  0.4000000E+00  0.6400000E-01
    1        3.025148   1.000000
    2        3.586229   1.000000
    3        3.647065   1.000000
    4        4.266827   1.000000
    5        5.179811   1.000000
    6        5.484304   1.000000
    7        5.709417   1.000000
    8        5.956881   1.000000
    9        6.077983   1.000000
   10        6.120913   1.000000
   11        6.330172   1.000000
   12        6.521442   1.000000
   13        6.607904   1.000000
   14        6.722151   1.000000
   15        6.871556   1.000000
   16        6.968112   1.000000
   17        7.958106   1.000000
   18        8.379277   1.000000
   19        8.871935   1.025332
   20        9.051432   0.942591
   21        9.188674   0.472360
   22       10.132288  -0.000000
   23       11.983592  -0.000000
   24       12.898885  -0.000000
   25       15.545352   0.000000
   26       17.062558   0.000000
   27       17.950633   0.000000
   28       19.868295   0.000000
   29       22.879367   0.000000
   30       24.423132   0.000000
 
  0.4000000E+00  0.2000000E+00  0.4000000E+00  0.6400000E-01
    1        3.034117   1.000000
    2        3.585834   1.000000
    3        3.906029   1.000000
    4        4.095256   1.000000
    5        5.148144   1.000000
    6        5.377833   1.000000
    7        5.690878   1.000000
    8        6.069218   1.000000
    9        6.184820   1.000000
   10        6.228129   1.000000
   11        6.437117   1.000000
   12        6.465725   1.000000
   13        6.604287   1.000000
   14        6.779732   1.000000
   15        6.830212   1.000000
   16        6.876979   1.000000
   17        8.075114   1.000000
   18        8.119325   1.000000
   19        8.568147   1.000063
   20        9.201377   0.419008
   21        9.337270   0.016444
   22       10.614340  -0.000000
   23       11.049705  -0.000000
   24       12.648340  -0.000000
   25       15.781596   0.000000
   26       17.535516   0.000000
   27       17.894860   0.000000
   28       19.958711   0.000000
   29       22.655520   0.000000
   30       24.652207   0.000000
 
  0.4000000E+00  0.4000000E+00  0.4000000E+00  0.6400000E-01
    1        2.909040   1.000000
    2        3.035975   1.000000
    3        3.266884   1.000000
    4        3.647453   1.000000
    5        5.600315   1.000000
    6        5.712098   1.000000
    7        5.818853   1.000000
    8        6.079148   1.000000
    9        6.169759   1.000000
   10        6.407634   1.000000
   11        6.414508   1.000000
   12        6.611329   1.000000
   13        7.274434   1.000000
   14        7.329187   1.000000
   15        7.501961   1.000000
   16        7.840392   1.000000
   17        8.218497   1.000000
   18        8.657021   1.000649
   19        8.737147   1.003618
   20        9.150138   0.633503
   21        9.684572  -0.001096
   22       10.475510  -0.000000
   23       10.877620  -0.000000
   24       11.103752  -0.000000
   25       14.964163   0.000000
   26       15.382092   0.000000
   27       16.191425   0.000000
   28       17.701145   0.000000
   29       25.295774   0.000000
   30       25.392854   0.000000
