       N       E                     dE             d eps       ncg     rms          rms(c)
DAV:   1    -0.228734211181E+02   -0.22873E+02   -0.59146E-03  2100   0.726E-01    0.129E-01
DAV:   2    -0.228464124921E+02    0.27009E-01   -0.91810E-03  2046   0.108E+00    0.210E-01
DAV:   3    -0.228457802072E+02    0.63228E-03   -0.12316E-03  2212   0.750E-01    0.474E-02
DAV:   4    -0.228457777391E+02    0.24681E-05   -0.76310E-05  2364   0.126E-01    0.397E-02
DAV:   5    -0.228457722575E+02    0.54816E-05   -0.11192E-05  1958   0.821E-02    0.292E-02
DAV:   6    -0.228457722864E+02   -0.28929E-07   -0.10681E-06   984   0.146E-02
   1 F= -.22845772E+02 E0= -.22844030E+02  d E =-.522605E-02
