unknown system                          
   1.00000000000000     
     2.399900    0.000000    0.000000
    -1.199950    2.078374    0.000000
     0.000000    0.000000    4.138540
   Fe
     2
Direct
  0.000000  0.000000  0.000000
  0.333333  0.666667  0.500000
 
   20   20   36
  173.35      163.74      138.02      103.84      69.644      41.665      22.842      13.009      9.5115      8.4612    
  8.1131      8.4618      9.5120      13.009      22.841      41.665      69.645      103.84      138.02      163.74    
  163.75      163.74      146.12      116.39      82.692      52.329      29.776      16.330      10.491      8.7783    
  8.1013      8.1004      8.7773      10.492      16.331      29.774      52.327      82.698      116.41      146.14    
  138.03      146.09      138.02      116.39      87.547      58.647      35.113      19.555      11.730      9.0686    
  8.1234      7.8012      8.1211      9.0679      11.732      19.555      35.108      58.642      87.552      116.40    
  103.83      116.31      116.31      103.84      82.692      58.647      37.118      21.545      12.800      9.3484    
  8.1678      7.5914      7.5908      8.1670      9.3491      12.801      21.544      37.112      58.637      82.682    
  69.625      82.578      87.398      82.593      69.645      52.328      35.114      21.545      13.223      9.5427    
  8.2121      7.4702      7.2294      7.4709      8.2124      9.5434      13.227      21.550      35.114      52.317    
  41.664      52.247      58.501      58.507      52.256      41.665      29.776      19.556      12.800      9.5426    
  8.2307      7.4184      7.0293      7.0302      7.4191      8.2290      9.5417      12.806      19.569      29.785    
  22.856      29.772      35.062      37.040      35.057      29.761      22.842      16.330      11.730      9.3480    
  8.2122      7.4184      6.9662      6.8263      6.9676      7.4174      8.2070      9.3430      11.732      16.340    
  13.008      16.374      19.608      21.584      21.578      19.595      16.364      13.009      10.491      9.0682    
  8.1679      7.4705      7.0291      6.8262      6.8272      7.0309      7.4699      8.1619      9.0574      10.481    
  9.4960      10.535      11.825      12.920      13.347      12.915      11.825      10.545      9.5117      8.7782    
  8.1231      7.5918      7.2293      7.0301      6.9680      7.0309      7.2331      7.5969      8.1228      8.7677    
  8.4610      8.8258      9.1669      9.4917      9.7121      9.7139      9.4980      9.1775      8.8350      8.4614    
  8.1011      7.8015      7.5910      7.4706      7.4193      7.4175      7.4694      7.5968      7.8136      8.1108    
  8.1273      8.1701      8.2387      8.3247      8.4021      8.4359      8.4074      8.3298      8.2372      8.1601    
  8.1131      8.1003      8.1214      8.1668      8.2122      8.2291      8.2067      8.1616      8.1234      8.1110    
  8.4605      8.1699      7.9321      7.7693      7.6835      7.6541      7.6556      7.6842      7.7632      7.9202    
  8.1609      8.4615      8.7774      9.0679      9.3487      9.5435      9.5420      9.3430      9.0578      8.7680    
  9.4956      8.8255      8.2392      7.7695      7.4540      7.2851      7.2343      7.2847      7.4504      7.7639    
  8.2389      8.8358      9.5118      10.492      11.732      12.801      13.227      12.806      11.732      10.481    
  13.008      10.535      9.1673      8.3249      7.6831      7.2851      7.1050      7.1042      7.2837      7.6839    
  8.3308      9.1777      10.544      13.009      16.331      19.555      21.544      21.550      19.568      16.340    
  22.856      16.374      11.824      9.4915      8.4018      7.6541      7.2347      7.1041      7.2327      7.6548    
  8.4074      9.4972      11.823      16.363      22.842      29.774      35.108      37.112      35.113      29.785    
  41.664      29.772      19.607      12.920      9.7123      8.4360      7.6558      7.2844      7.2835      7.6549    
  8.4375      9.7131      12.914      19.595      29.763      41.665      52.326      58.642      58.637      52.318    
  69.625      52.247      35.062      21.584      13.348      9.7140      8.4072      7.6840      7.4503      7.6843    
  8.4075      9.7129      13.344      21.579      35.062      52.258      69.645      82.698      87.553      82.683    
  103.83      82.577      58.502      37.041      21.578      12.915      9.4976      8.3300      7.7634      7.7640    
  8.3308      9.4970      12.914      21.579      37.046      58.511      82.587      103.84      116.41      116.40    
  138.03      116.31      87.398      58.507      35.057      19.594      11.824      9.1779      8.2375      7.9199    
  8.2387      9.1777      11.823      19.595      35.062      58.511      87.393      116.30      138.02      146.14    
  163.75      146.09      116.31      82.593      52.256      29.761      16.364      10.546      8.8351      8.1596    
  8.1606      8.8362      10.545      16.363      29.763      52.258      82.587      116.30      146.07      163.74    
  164.44      155.33      130.94      98.497      66.018      39.483      21.727      12.558      9.3469      8.3370    
  7.9986      8.3377      9.3474      12.558      21.727      39.483      66.019      98.498      130.94      155.33    
  155.34      155.33      138.62      110.41      78.400      49.574      28.237      15.625      10.232      8.6390    
  7.9802      7.9793      8.6380      10.233      15.626      28.236      49.572      78.406      110.42      138.64    
  130.96      138.60      130.94      110.41      83.009      55.560      33.264      18.623      11.355      8.9122    
  7.9961      7.6842      7.9939      8.9115      11.357      18.624      33.260      55.555      83.013      110.42    
  98.492      110.35      110.35      98.498      78.400      55.559      35.155      20.479      12.331      9.1625    
  8.0355      7.4780      7.4774      8.0347      9.1632      12.332      20.479      35.149      55.550      78.391    
  66.001      78.312      82.895      78.327      66.019      49.573      33.264      20.480      12.719      9.3347    
  8.0761      7.3589      7.1272      7.3596      8.0764      9.3352      12.721      20.484      33.265      49.563    
  39.482      49.522      55.462      55.467      49.530      39.483      28.237      18.624      12.331      9.3346    
  8.0934      7.3079      6.9338      6.9347      7.3086      8.0918      9.3338      12.336      18.636      28.246    
  21.740      28.259      33.262      35.135      33.257      28.249      21.727      15.625      11.355      9.1622    
  8.0762      7.3079      6.8729      6.7387      6.8743      7.3070      8.0714      9.1576      11.357      15.635    
  12.557      15.690      18.718      20.574      20.568      18.706      15.681      12.558      10.232      8.9118    
  8.0355      7.3591      6.9335      6.7386      6.7395      6.9352      7.3586      8.0300      8.9018      10.223    
  9.3325      10.294      11.484      12.498      12.895      12.494      11.484      10.304      9.3471      8.6388    
  7.9959      7.4783      7.1270      6.9345      6.8746      6.9352      7.1304      7.4830      7.9956      8.6291    
  8.3369      8.7019      9.0402      9.3465      9.5509      9.5525      9.3523      9.0499      8.7104      8.3372    
  7.9800      7.6845      7.4776      7.3593      7.3088      7.3072      7.3581      7.4829      7.6957      7.9889    
  8.0118      8.0617      8.1369      8.2279      8.3078      8.3420      8.3126      8.2325      8.1355      8.0523    
  7.9986      7.9792      7.9943      8.0344      8.0762      8.0919      8.0711      8.0298      7.9961      7.9891    
  8.3363      8.0615      7.8385      7.6874      7.6091      7.5829      7.5843      7.6097      7.6817      7.8274    
  8.0531      8.3373      8.6381      8.9115      9.1628      9.3353      9.3340      9.1576      8.9022      8.6294    
  9.3321      8.7016      8.1374      7.6876      7.3865      7.2259      7.1777      7.2256      7.3833      7.6825    
  8.1371      8.7112      9.3472      10.233      11.357      12.332      12.722      12.336      11.357      10.223    
  12.557      10.294      9.0406      8.2280      7.6086      7.2258      7.0529      7.0522      7.2246      7.6095    
  8.2335      9.0501      10.303      12.558      15.626      18.624      20.479      20.484      18.635      15.635    
  21.740      15.690      11.484      9.3464      8.3075      7.5829      7.1780      7.0521      7.1760      7.5835    
  8.3126      9.3517      11.483      15.680      21.727      28.236      33.260      35.149      33.264      28.246    
  39.482      28.259      18.717      12.498      9.5511      8.3422      7.5845      7.2253      7.2244      7.5837    
  8.3435      9.5518      12.493      18.706      28.251      39.483      49.572      55.555      55.551      49.564    
  66.000      49.521      33.262      20.574      12.896      9.5526      8.3124      7.6096      7.3832      7.6098    
  8.3127      9.5516      12.892      20.569      33.262      49.532      66.019      78.406      83.013      78.392    
  98.491      78.312      55.463      35.136      20.568      12.494      9.3519      8.2327      7.6819      7.6825    
  8.2335      9.3514      12.493      20.569      35.141      55.471      78.321      98.498      110.42      110.42    
  130.96      110.35      82.896      55.468      33.257      18.705      11.484      9.0503      8.1358      7.8271    
  8.1369      9.0501      11.483      18.706      33.262      55.472      82.890      110.33      130.94      138.64    
  155.34      138.60      110.35      78.326      49.530      28.249      15.681      10.304      8.7105      8.0519    
  8.0529      8.7115      10.303      15.680      28.250      49.532      78.321      110.33      138.58      155.33    
  140.41      132.64      111.82      84.034      56.215      33.627      18.786      11.400      8.9139      7.9982    
  7.6881      7.9987      8.9143      11.400      18.785      33.627      56.215      84.035      111.82      132.64    
  132.65      132.64      118.37      94.221      66.785      42.149      24.140      13.790      9.5685      8.2544    
  7.6494      7.6486      8.2535      9.5695      13.791      24.140      42.148      66.789      94.234      118.39    
  111.83      118.37      111.82      94.221      70.722      47.226      28.319      16.176      10.392      8.4870    
  7.6464      7.3639      7.6444      8.4863      10.394      16.177      28.316      47.223      70.725      94.233    
  84.030      94.206      94.208      84.035      66.785      47.226      29.898      17.671      11.121      8.6718    
  7.6692      7.1658      7.1653      7.6684      8.6722      11.122      17.670      29.894      47.219      66.777    
  56.201      66.769      70.707      66.781      56.215      42.148      28.319      17.671      11.414      8.7909    
  7.6980      7.0509      6.8445      7.0516      7.6983      8.7911      11.416      17.674      28.319      42.141    
  33.626      42.178      47.261      47.265      42.185      33.627      24.140      16.177      11.121      8.7908    
  7.7109      7.0012      6.6686      6.6695      7.0021      7.7097      8.7901      11.125      16.186      24.148    
  18.796      24.234      28.450      30.037      28.446      24.226      18.786      13.790      10.392      8.6715    
  7.6981      7.0013      6.6135      6.4946      6.6147      7.0007      7.6945      8.6681      10.394      13.798    
  11.399      13.913      16.387      17.918      17.913      16.377      13.907      11.400      9.5687      8.4866    
  7.6692      7.0511      6.6684      6.4946      6.4952      6.6696      7.0507      7.6650      8.4788      9.5615    
  8.9024      9.6824      10.620      11.424      11.740      11.420      10.620      9.6901      8.9141      8.2542    
  7.6462      7.1661      6.8444      6.6694      6.6150      6.6697      6.8468      7.1697      7.6459      8.2465    
  7.9980      8.3629      8.7026      8.9760      9.1451      9.1463      8.9803      8.7100      8.3696      7.9983    
  7.6492      7.3642      7.1655      7.0514      7.0023      7.0009      7.0503      7.1695      7.3730      7.6563    
  7.6986      7.7697      7.8649      7.9705      8.0582      8.0942      8.0618      7.9740      7.8636      7.7623    
  7.6881      7.6486      7.6447      7.6682      7.6981      7.7099      7.6942      7.6647      7.6464      7.6565    
  7.9975      7.7695      7.5905      7.4750      7.4197      7.4041      7.4053      7.4204      7.4705      7.5818    
  7.7629      7.9984      8.2536      8.4863      8.6718      8.7912      8.7903      8.6681      8.4792      8.2467    
  8.9020      8.3627      7.8653      7.4751      7.2179      7.0828      7.0428      7.0828      7.2157      7.4712    
  7.8651      8.3702      8.9141      9.5697      10.393      11.122      11.416      11.125      10.393      9.5615    
  11.399      9.6825      8.7029      7.9707      7.4194      7.0828      6.9320      6.9315      7.0819      7.4201    
  7.9749      8.7103      9.6892      11.400      13.792      16.177      17.670      17.674      16.186      13.798    
  18.796      13.914      10.620      8.9759      8.0579      7.4041      7.0430      6.9314      7.0413      7.4043    
  8.0618      8.9799      10.619      13.906      18.786      24.139      28.316      29.893      28.319      24.148    
  33.626      24.233      16.386      11.423      9.1453      8.0943      7.4054      7.0827      7.0818      7.4045    
  8.0953      9.1460      11.419      16.377      24.226      33.627      42.147      47.223      47.219      42.141    
  56.201      42.177      28.450      17.918      11.740      9.1464      8.0617      7.4203      7.2156      7.4204    
  8.0619      9.1458      11.737      17.914      28.450      42.186      56.215      66.789      70.726      66.778    
  84.030      66.769      47.261      30.037      17.914      11.420      8.9799      7.9741      7.4707      7.4712    
  7.9749      8.9797      11.419      17.914      30.041      47.268      66.776      84.035      94.234      94.232    
  111.83      94.206      70.707      47.265      28.446      16.377      10.620      8.7104      7.8639      7.5815    
  7.8649      8.7103      10.619      16.377      28.450      47.268      70.703      94.195      111.82      118.39    
  132.65      118.37      94.208      66.780      42.184      24.225      13.907      9.6904      8.3696      7.7619    
  7.7627      8.3706      9.6894      13.906      24.226      42.186      66.776      94.195      118.36      132.64    
  107.95      101.97      85.892      64.415      42.990      25.871      15.036      9.9999      8.3301      7.5286    
  7.2630      7.5290      8.3304      9.9997      15.036      25.871      42.990      64.415      85.892      101.97    
  101.98      101.97      90.946      72.260      51.061      32.219      18.813      11.516      8.7515      7.7116    
  7.1918      7.1911      7.7108      8.7524      11.518      18.813      32.218      51.063      72.268      90.957    
  85.899      90.967      85.892      72.260      54.076      36.036      21.823      13.089      9.2222      7.8828    
  7.1565      6.9185      7.1549      7.8822      9.2235      13.090      21.821      36.033      54.078      72.267    
  64.412      72.307      72.308      64.415      51.061      36.035      22.971      14.097      9.6444      8.0124    
  7.1502      6.7276      6.7272      7.1496      8.0124      9.6449      14.096      22.968      36.031      51.056    
  42.981      51.145      54.195      51.152      42.990      32.218      21.823      14.097      9.8172      8.0819    
  7.1578      6.6145      6.4443      6.6151      7.1580      8.0817      9.8179      14.099      21.824      32.213    
  25.870      32.358      36.250      36.253      32.362      25.871      18.813      13.090      9.6444      8.0818    
  7.1628      6.5641      6.2899      6.2906      6.5650      7.1622      8.0812      9.6472      13.096      18.819    
  15.043      19.004      22.137      23.327      22.135      18.999      15.036      11.517      9.2222      8.0121    
  7.1579      6.5641      6.2414      6.1435      6.2424      6.5640      7.1558      8.0101      9.2235      11.522    
  9.9989      11.722      13.461      14.556      14.553      13.455      11.718      9.9999      8.7517      7.8825    
  7.1502      6.6146      6.2897      6.1435      6.1438      6.2903      6.6143      7.1476      7.8775      8.7470    
  8.3223      8.9408      9.5933      10.141      10.357      10.139      9.5932      8.9460      8.3302      7.7114    
  7.1564      6.7279      6.4442      6.2905      6.2426      6.2903      6.4454      6.7300      7.1561      7.7062    
  7.5285      7.8893      8.2310      8.4980      8.6446      8.6452      8.5005      8.2356      7.8937      7.5287    
  7.1916      6.9187      6.7274      6.6149      6.5652      6.5641      6.6140      6.7299      6.9245      7.1963    
  7.2699      7.3730      7.4968      7.6230      7.7213      7.7597      7.7235      7.6250      7.4958      7.3681    
  7.2630      7.1911      7.1552      7.1494      7.1579      7.1623      7.1555      7.1474      7.1565      7.1964    
  7.5281      7.3729      7.2608      7.1988      7.1786      7.1791      7.1799      7.1791      7.1959      7.2551    
  7.3686      7.5288      7.7109      7.8821      8.0121      8.0818      8.0814      8.0100      7.8778      7.7065    
  8.3220      7.8891      7.4972      7.1989      7.0090      6.9131      6.8858      6.9136      7.0080      7.1964    
  7.4970      7.8942      8.3302      8.7525      9.2234      9.6449      9.8183      9.6473      9.2233      8.7469    
  9.9991      8.9409      8.2313      7.6232      7.1782      6.9131      6.7967      6.7965      6.9128      7.1788    
  7.6258      8.2359      8.9452      9.9999      11.518      13.090      14.096      14.099      13.096      11.522    
  15.043      11.722      9.5931      8.4979      7.7211      7.1791      6.8860      6.7964      6.8846      7.1789    
  7.7235      8.5005      9.5920      11.717      15.036      18.813      21.821      22.968      21.823      18.819    
  25.870      19.004      13.461      10.141      8.6448      7.7598      7.1801      6.9135      6.9127      7.1790    
  7.7602      8.6452      10.138      13.455      18.999      25.871      32.218      36.033      36.031      32.214    
  42.981      32.357      22.137      14.556      10.357      8.6452      7.7233      7.1790      7.0080      7.1791    
  7.7235      8.6451      10.356      14.554      22.137      32.363      42.990      51.064      54.078      51.056    
  64.412      51.144      36.251      23.327      14.554      10.139      8.5002      7.6251      7.1961      7.1965    
  7.6258      8.5002      10.138      14.554      23.330      36.255      51.149      64.415      72.268      72.267    
  85.899      72.308      54.196      36.253      22.135      13.455      9.5931      8.2360      7.4961      7.2549    
  7.4968      8.2359      9.5921      13.455      22.137      36.255      54.193      72.300      85.892      90.956    
  101.98      90.968      72.309      51.152      32.362      18.999      11.718      8.9463      7.8937      7.3678    
  7.3684      7.8945      8.9454      11.717      18.999      32.363      51.149      72.300      90.957      101.97    
  74.630      70.455      59.241      44.327      29.663      18.338      11.632      8.8006      7.6825      7.0260    
  6.8148      7.0264      7.6827      8.8004      11.632      18.338      29.663      44.328      59.242      70.455    
  70.458      70.455      62.749      49.722      35.086      22.393      13.812      9.5366      7.9660      7.1192    
  6.7046      6.7041      7.1187      7.9667      9.5380      13.812      22.393      35.087      49.727      62.755    
  59.245      62.793      59.241      49.723      37.126      24.874      15.613      10.334      8.1894      7.2105    
  6.6276      6.4418      6.6264      7.2100      8.1904      10.335      15.612      24.873      37.127      49.726    
  44.326      49.833      49.833      44.328      35.086      24.874      16.311      10.863      8.3622      7.2807    
  6.5817      6.2527      6.2524      6.5812      7.2805      8.3622      10.862      16.310      24.871      35.083    
  29.659      35.268      37.379      35.272      29.663      22.393      15.613      10.863      8.4323      7.3180    
  6.5599      6.1350      6.0047      6.1356      6.5601      7.3175      8.4321      10.864      15.613      22.391    
  18.338      22.640      25.267      25.268      22.643      18.338      13.811      10.334      8.3622      7.3179    
  6.5539      6.0799      5.8682      5.8688      6.0808      6.5538      7.3175      8.3635      10.337      13.815    
  11.635      14.099      16.108      16.882      16.107      14.097      11.632      9.5369      8.1894      7.2804    
  6.5599      6.0799      5.8250      5.7482      5.8257      6.0802      6.5591      7.2797      8.1904      9.5397    
  8.7998      9.8271      10.870      11.538      11.536      10.867      9.8254      8.8006      7.9662      7.2103    
  6.5817      6.1352      5.8680      5.7482      5.7483      5.8682      6.1349      6.5805      7.2079      7.9636    
  7.6783      8.2363      8.7124      9.0637      9.1973      9.0624      8.7124      8.2392      7.6826      7.1191    
  6.6274      6.2529      6.0046      5.8687      5.8259      5.8682      6.0048      6.2537      6.6273      7.1163    
  7.0260      7.3738      7.7054      7.9668      8.1106      8.1107      7.9676      7.7075      7.3759      7.0261    
  6.7045      6.4420      6.2525      6.1354      6.0809      6.0803      6.1347      6.2536      6.4449      6.7069    
  6.8184      6.9555      7.1062      7.2490      7.3543      7.3937      7.3551      7.2497      7.1055      6.9530    
  6.8148      6.7041      6.6266      6.5810      6.5599      6.5539      6.5589      6.5803      6.6276      6.7070    
  7.0257      6.9554      6.9172      6.9113      6.9263      6.9424      6.9429      6.9267      6.9100      6.9143    
  6.9533      7.0261      7.1187      7.2100      7.2802      7.3176      7.3176      7.2797      7.2081      7.1165    
  7.6780      7.3736      7.1065      6.9114      6.7943      6.7395      6.7252      6.7403      6.7943      6.9103    
  7.1063      7.3763      7.6826      7.9668      8.1903      8.3622      8.4324      8.3636      8.1902      7.9636    
  8.7999      8.2364      7.7056      7.2491      6.9260      6.7395      6.6599      6.6600      6.7396      6.9265    
  7.2503      7.7078      8.2385      8.8006      9.5381      10.335      10.863      10.864      10.337      9.5396    
  11.636      9.8273      8.7123      7.9667      7.3541      6.9424      6.7254      6.6599      6.7243      6.9420    
  7.3551      7.9679      8.7115      9.8242      11.632      13.812      15.612      16.310      15.613      13.815    
  18.338      14.099      10.869      9.0636      8.1107      7.3938      6.9430      6.7401      6.7395      6.9421    
  7.3938      8.1110      9.0624      10.866      14.096      18.338      22.393      24.873      24.872      22.391    
  29.659      22.640      16.107      11.538      9.1976      8.1107      7.3550      6.9267      6.7942      6.9266    
  7.3552      8.1109      9.1972      11.537      16.108      22.643      29.663      35.087      37.127      35.083    
  44.326      35.268      25.267      16.882      11.536      9.0623      7.9674      7.2498      6.9101      6.9104    
  7.2503      7.9677      9.0624      11.537      16.884      25.269      35.270      44.328      49.727      49.726    
  59.245      49.833      37.379      25.268      16.107      10.866      8.7123      7.7078      7.1057      6.9141    
  7.1062      7.7078      8.7116      10.866      16.108      25.269      37.378      49.829      59.241      62.755    
  70.458      62.794      49.833      35.271      22.642      14.097      9.8256      8.2394      7.3760      6.9527    
  6.9532      7.3765      8.2387      9.8241      14.096      22.643      35.270      49.829      62.788      70.455    
  46.257      43.654      36.704      27.604      18.950      12.675      9.3189      7.9232      7.0680      6.5709    
  6.4152      6.5712      7.0681      7.9231      9.3186      12.675      18.951      27.605      36.704      43.654    
  43.655      43.654      38.854      30.827      22.030      14.763      10.252      8.2185      7.2275      6.5730    
  6.2666      6.2663      6.5727      7.2279      8.2196      10.253      14.763      22.030      30.828      38.856    
  36.705      38.914      36.704      30.827      23.205      16.082      11.068      8.4907      7.3463      6.5793    
  6.1453      6.0105      6.1445      6.5789      7.3470      8.4916      11.068      16.081      23.205      30.828    
  27.604      30.983      30.983      27.605      22.030      16.081      11.393      8.6741      7.4138      6.5837    
  6.0561      5.8168      5.8166      6.0557      6.5834      7.4135      8.6737      11.392      16.080      22.029    
  18.949      22.284      23.556      22.285      18.951      14.763      11.068      8.6743      7.4347      6.5852    
  6.0017      5.6886      5.5942      5.6890      6.0019      6.5847      7.4340      8.6741      11.068      14.762    
  12.675      15.090      16.604      16.604      15.090      12.675      10.252      8.4909      7.4138      6.5852    
  5.9835      5.6252      5.4679      5.4683      5.6258      5.9837      6.5849      7.4141      8.4922      10.253    
  9.3198      10.613      11.698      12.123      11.698      10.612      9.3188      8.2187      7.3463      6.5836    
  6.0018      5.6252      5.4271      5.3674      5.4275      5.6255      6.0018      6.5836      7.3470      8.2198    
  7.9227      8.5778      9.1566      9.5170      9.5167      9.1560      8.5777      7.9233      7.2276      6.5791    
  6.0561      5.6887      5.4678      5.3674      5.3673      5.4677      5.6886      6.0558      6.5785      7.2267    
  7.0664      7.5683      7.9995      8.2882      8.3890      8.2877      7.9994      7.5694      7.0680      6.5729    
  6.1452      5.8169      5.5942      5.4683      5.4277      5.4677      5.5938      5.8170      6.1451      6.5719    
  6.5710      6.8971      7.2060      7.4491      7.5831      7.5829      7.4490      7.2064      6.8977      6.5710    
  6.2666      6.0107      5.8167      5.6889      5.6259      5.6256      5.6884      5.8169      6.0116      6.2674    
  6.4164      6.5830      6.7526      6.9036      7.0098      7.0482      7.0098      6.9035      6.7521      6.5821    
  6.4152      6.2663      6.1447      6.0556      6.0018      5.9837      6.0017      6.0557      6.1453      6.2674    
  6.5707      6.5829      6.6118      6.6534      6.6957      6.7230      6.7233      6.6960      6.6531      6.6109    
  6.5823      6.5710      6.5727      6.5789      6.5832      6.5847      6.5850      6.5836      6.5787      6.5720    
  7.0662      6.8970      6.7528      6.6535      6.5998      6.5790      6.5748      6.5797      6.6003      6.6533    
  6.7527      6.8979      7.0680      7.2280      7.3469      7.4136      7.4343      7.4141      7.3468      7.2267    
  7.9228      7.5683      7.2061      6.9037      6.6956      6.5789      6.5307      6.5308      6.5793      6.6958    
  6.9040      7.2066      7.5690      7.9233      8.2197      8.4916      8.6738      8.6740      8.4920      8.2197    
  9.3201      8.5780      7.9994      7.4491      7.0096      6.7230      6.5749      6.5308      6.5743      6.7225    
  7.0098      7.4493      7.9989      8.5767      9.3188      10.253      11.068      11.392      11.068      10.253    
  12.675      10.613      9.1564      8.2881      7.5832      7.0482      6.7234      6.5796      6.5792      6.7226    
  7.0480      7.5834      8.2879      9.1553      10.612      12.675      14.763      16.081      16.080      14.763    
  18.949      15.089      11.698      9.5171      8.3892      7.5829      7.0097      6.6960      6.6003      6.6959    
  7.0098      7.5833      8.3895      9.5171      11.698      15.090      18.951      22.030      23.205      22.029    
  27.604      22.283      16.604      12.124      9.5168      8.2875      7.4488      6.9036      6.6531      6.6533    
  6.9039      7.4492      8.2879      9.5171      12.124      16.605      22.284      27.605      30.828      30.828    
  36.705      30.984      23.556      16.605      11.698      9.1557      7.9994      7.2065      6.7523      6.6108    
  6.7526      7.2066      7.9989      9.1553      11.698      16.605      23.556      30.982      36.704      38.855    
  43.655      38.915      30.984      22.284      15.090      10.612      8.5778      7.5696      6.8977      6.5819    
  6.5822      6.8981      7.5691      8.5766      10.612      15.090      22.284      30.982      38.913      43.654    
  25.969      24.582      20.931      16.310      12.179      9.4601      8.0818      7.1958      6.5639      6.2150    
  6.1078      6.2152      6.5640      7.1957      8.0816      9.4600      12.179      16.310      20.931      24.582    
  24.581      24.581      22.033      17.873      13.527      10.217      8.3535      7.3502      6.6032      6.1350    
  5.9231      5.9229      6.1348      6.6034      7.3509      8.3541      10.217      13.527      17.872      22.033    
  20.931      22.100      20.931      17.873      14.055      10.719      8.5808      7.4457      6.6277      6.0650    