   2   2   0   0
  0.1032129E+02  0.2399900E-09  0.2399900E-09  0.4138540E-09  0.5000000E-15
  1.000000000000000E-004
  CAR 
 unknown system                          
     71.84044041     -5.59654925  301      6.73267913      1.00000000
     -5.597  0.0000E+00  0.0000E+00
     -5.338  0.0000E+00  0.0000E+00
     -5.080  0.0000E+00  0.0000E+00
     -4.822  0.0000E+00  0.0000E+00
     -4.564  0.0000E+00  0.0000E+00
     -4.306  0.0000E+00  0.0000E+00
     -4.048  0.0000E+00  0.0000E+00
     -3.790 -0.1947E-33 -0.5026E-34
     -3.532 -0.1253E-24 -0.3234E-25
     -3.273 -0.2808E-17 -0.7247E-18
     -3.015 -0.2084E-11 -0.5380E-12
     -2.757 -0.5390E-07 -0.1391E-07
     -2.499 -0.4431E-04 -0.1145E-04
     -2.241 -0.4310E-03 -0.1227E-03
     -1.983  0.8445E-02  0.2057E-02
     -1.725  0.5766E-01  0.1694E-01
     -1.467  0.9877E-01  0.4244E-01
     -1.208  0.6266E-01  0.5861E-01
     -0.950  0.1587E+00  0.9958E-01
     -0.692  0.1790E+00  0.1458E+00
     -0.434  0.1863E+00  0.1939E+00
     -0.176  0.8211E-01  0.2151E+00
      0.082  0.2767E+00  0.2865E+00
      0.340  0.2883E+00  0.3609E+00
      0.598  0.2954E+00  0.4371E+00
      0.857  0.2990E+00  0.5143E+00
      1.115  0.2017E+00  0.5664E+00
      1.373  0.5184E+00  0.7002E+00
      1.631  0.6731E+00  0.8739E+00
      1.889  0.8633E+00  0.1097E+01
      2.147  0.1569E+01  0.1502E+01
      2.405  0.2021E+01  0.2023E+01
      2.663  0.2759E+01  0.2736E+01
      2.922  0.2330E+01  0.3337E+01
      3.180  0.2966E+01  0.4103E+01
      3.438  0.2262E+01  0.4687E+01
      3.696  0.3282E+01  0.5534E+01
      3.954  0.3274E+01  0.6379E+01
      4.212  0.3051E+01  0.7166E+01
      4.470  0.2223E+01  0.7740E+01
      4.728  0.2925E+01  0.8495E+01
      4.987  0.4214E+01  0.9583E+01
      5.245  0.4007E+01  0.1062E+02
      5.503  0.4232E+01  0.1171E+02
      5.761  0.4146E+01  0.1278E+02
      6.019  0.3779E+01  0.1376E+02
      6.277  0.2978E+01  0.1452E+02
      6.535  0.3304E+01  0.1538E+02
      6.793  0.3018E+01  0.1616E+02
      7.051  0.2571E+01  0.1682E+02
      7.310  0.4594E+01  0.1801E+02
      7.568  0.5434E+01  0.1941E+02
      7.826  0.5034E+01  0.2071E+02
      8.084  0.2023E+01  0.2123E+02
      8.342  0.9616E-01  0.2125E+02
      8.600  0.4997E+00  0.2138E+02
      8.858  0.1078E+01  0.2166E+02
      9.116  0.7015E+00  0.2184E+02
      9.375  0.4147E+00  0.2195E+02
      9.633  0.6516E+00  0.2212E+02
      9.891  0.4165E+00  0.2223E+02
     10.149  0.2826E+00  0.2230E+02
     10.407  0.4927E+00  0.2243E+02
     10.665  0.8545E+00  0.2265E+02
     10.923  0.5018E+00  0.2278E+02
     11.181  0.3126E+00  0.2286E+02
     11.440  0.3437E+00  0.2294E+02
     11.698  0.5210E+00  0.2308E+02
     11.956  0.4663E+00  0.2320E+02
     12.214  0.3084E+00  0.2328E+02
     12.472  0.2718E+00  0.2335E+02
     12.730  0.3600E+00  0.2344E+02
     12.988  0.4007E+00  0.2355E+02
     13.246  0.3289E+00  0.2363E+02
     13.505  0.6185E+00  0.2379E+02
     13.763  0.2952E+00  0.2387E+02
     14.021  0.9016E-01  0.2389E+02
     14.279  0.1856E+00  0.2394E+02
     14.537  0.2494E+00  0.2400E+02
     14.795  0.2374E+00  0.2406E+02
     15.053  0.1670E+00  0.2411E+02
     15.311  0.2227E+00  0.2416E+02
     15.570  0.1751E+00  0.2421E+02
     15.828  0.3837E+00  0.2431E+02
     16.086  0.6295E+00  0.2447E+02
     16.344  0.9327E+00  0.2471E+02
     16.602  0.7946E+00  0.2492E+02
     16.860  0.7754E+00  0.2512E+02
     17.118  0.5788E+00  0.2527E+02
     17.376  0.4007E+00  0.2537E+02
     17.635  0.8428E+00  0.2559E+02
     17.893  0.6342E+00  0.2575E+02
     18.151  0.9586E+00  0.2600E+02
     18.409  0.6524E+00  0.2617E+02
     18.667  0.5920E+00  0.2632E+02
     18.925  0.6686E+00  0.2649E+02
     19.183  0.9268E+00  0.2673E+02
     19.441  0.6845E+00  0.2691E+02
     19.700  0.6077E+00  0.2706E+02
     19.958  0.6569E+00  0.2723E+02
     20.216  0.6669E+00  0.2741E+02
     20.474  0.6632E+00  0.2758E+02
     20.732  0.3853E+00  0.2768E+02
     20.990  0.5479E+00  0.2782E+02
     21.248  0.6341E+00  0.2798E+02
     21.506  0.5013E+00  0.2811E+02
     21.765  0.7312E+00  0.2830E+02
     22.023  0.6851E+00  0.2848E+02
     22.281  0.6133E+00  0.2864E+02
     22.539  0.6167E+00  0.2879E+02
     22.797  0.9362E+00  0.2904E+02
     23.055  0.9118E+00  0.2927E+02
     23.313  0.8241E+00  0.2948E+02
     23.571  0.9143E+00  0.2972E+02
     23.830  0.1035E+01  0.2999E+02
     24.088  0.6031E+00  0.3014E+02
     24.346  0.9924E+00  0.3040E+02
     24.604  0.8027E+00  0.3061E+02
     24.862  0.5185E+00  0.3074E+02
     25.120  0.9648E+00  0.3099E+02
     25.378  0.1658E+01  0.3142E+02
     25.636  0.1003E+01  0.3168E+02
     25.894  0.5811E+00  0.3183E+02
     26.153  0.7815E+00  0.3203E+02
     26.411  0.6808E+00  0.3220E+02
     26.669  0.8548E+00  0.3242E+02
     26.927  0.1692E+01  0.3286E+02
     27.185  0.5141E+00  0.3299E+02
     27.443  0.7016E+00  0.3317E+02
     27.701  0.9331E+00  0.3342E+02
     27.959  0.8276E+00  0.3363E+02
     28.218  0.1020E+01  0.3389E+02
     28.476  0.8522E+00  0.3411E+02
     28.734  0.6263E+00  0.3427E+02
     28.992  0.4127E+00  0.3438E+02
     29.250  0.9574E+00  0.3463E+02
     29.508  0.8733E+00  0.3485E+02
     29.766  0.5508E+00  0.3500E+02
     30.024  0.7654E+00  0.3519E+02
     30.283  0.6177E+00  0.3535E+02
     30.541  0.1015E+01  0.3561E+02
     30.799  0.6387E+00  0.3578E+02
     31.057  0.6413E+00  0.3594E+02
     31.315  0.6173E+00  0.3610E+02
     31.573  0.9350E+00  0.3635E+02
     31.831  0.1054E+01  0.3662E+02
     32.089  0.7299E+00  0.3681E+02
     32.348  0.8785E+00  0.3703E+02
     32.606  0.8058E+00  0.3724E+02
     32.864  0.5404E+00  0.3738E+02
     33.122  0.9241E+00  0.3762E+02
     33.380  0.1031E+01  0.3788E+02
     33.638  0.7958E+00  0.3809E+02
     33.896  0.1211E+01  0.3840E+02
     34.154  0.5846E+00  0.3855E+02
     34.413  0.1091E+01  0.3884E+02
     34.671  0.9160E+00  0.3907E+02
     34.929  0.7903E+00  0.3928E+02
     35.187  0.1145E+01  0.3957E+02
     35.445  0.1416E+01  0.3994E+02
     35.703  0.8456E+00  0.4015E+02
     35.961  0.8087E+00  0.4036E+02
     36.219  0.5681E+00  0.4051E+02
     36.478  0.9905E+00  0.4077E+02
     36.736  0.7549E+00  0.4096E+02
     36.994  0.6363E+00  0.4113E+02
     37.252  0.8317E+00  0.4134E+02
     37.510  0.7752E+00  0.4154E+02
     37.768  0.7947E+00  0.4174E+02
     38.026  0.8712E+00  0.4197E+02
     38.284  0.9620E+00  0.4222E+02
     38.543  0.9962E+00  0.4248E+02
     38.801  0.8414E+00  0.4269E+02
     39.059  0.1092E+01  0.4297E+02
     39.317  0.9127E+00  0.4321E+02
     39.575  0.8803E+00  0.4344E+02
     39.833  0.9336E+00  0.4368E+02
     40.091  0.7304E+00  0.4387E+02
     40.349  0.5495E+00  0.4401E+02
     40.608  0.7508E+00  0.4420E+02
     40.866  0.1111E+01  0.4449E+02
     41.124  0.9734E+00  0.4474E+02
     41.382  0.1224E+01  0.4506E+02
     41.640  0.1369E+01  0.4541E+02
     41.898  0.8998E+00  0.4564E+02
     42.156  0.6758E+00  0.4582E+02
     42.414  0.1221E+01  0.4613E+02
     42.673  0.8293E+00  0.4635E+02
     42.931  0.9048E+00  0.4658E+02
     43.189  0.1513E+01  0.4697E+02
     43.447  0.1541E+01  0.4737E+02
     43.705  0.5644E+00  0.4751E+02
     43.963  0.1164E+01  0.4781E+02
     44.221  0.1626E+01  0.4823E+02
     44.479  0.7565E+00  0.4843E+02
     44.737  0.8214E+00  0.4864E+02
     44.996  0.1057E+01  0.4891E+02
     45.254  0.6461E+00  0.4908E+02
     45.512  0.6428E+00  0.4925E+02
     45.770  0.7983E+00  0.4945E+02
     46.028  0.9654E+00  0.4970E+02
     46.286  0.4557E+00  0.4982E+02
     46.544  0.8209E+00  0.5003E+02
     46.802  0.1529E+01  0.5043E+02
     47.061  0.1274E+01  0.5075E+02
     47.319  0.6416E+00  0.5092E+02
     47.577  0.1321E+01  0.5126E+02
     47.835  0.9161E+00  0.5150E+02
     48.093  0.1258E+01  0.5182E+02
     48.351  0.1545E+01  0.5222E+02
     48.609  0.9174E+00  0.5246E+02
     48.867  0.7606E+00  0.5265E+02
     49.126  0.5734E+00  0.5280E+02
     49.384  0.1024E+01  0.5307E+02
     49.642  0.1428E+01  0.5343E+02
     49.900  0.1354E+01  0.5378E+02
     50.158  0.1390E+01  0.5414E+02
     50.416  0.1132E+01  0.5444E+02
     50.674  0.9993E+00  0.5469E+02
     50.932  0.1214E+01  0.5501E+02
     51.191  0.8517E+00  0.5523E+02
     51.449  0.1310E+01  0.5556E+02
     51.707  0.1054E+01  0.5584E+02
     51.965  0.1333E+01  0.5618E+02
     52.223  0.7626E+00  0.5638E+02
     52.481  0.1101E+01  0.5666E+02
     52.739  0.1542E+01  0.5706E+02
     52.997  0.1266E+01  0.5739E+02
     53.256  0.8312E+00  0.5760E+02
     53.514  0.1141E+01  0.5790E+02
     53.772  0.1161E+01  0.5820E+02
     54.030  0.1713E+01  0.5864E+02
     54.288  0.1151E+01  0.5893E+02
     54.546  0.9606E+00  0.5918E+02
     54.804  0.1211E+01  0.5950E+02
     55.062  0.1234E+01  0.5981E+02
     55.321  0.1280E+01  0.6014E+02
     55.579  0.1737E+01  0.6059E+02
     55.837  0.1325E+01  0.6093E+02
     56.095  0.1923E+01  0.6143E+02
     56.353  0.1787E+01  0.6189E+02
     56.611  0.1183E+01  0.6220E+02
     56.869  0.8904E+00  0.6243E+02
     57.127  0.1609E+01  0.6284E+02
     57.386  0.1478E+01  0.6322E+02
     57.644  0.1736E+01  0.6367E+02
     57.902  0.1917E+01  0.6417E+02
     58.160  0.1271E+01  0.6450E+02
     58.418  0.1552E+01  0.6490E+02
     58.676  0.2155E+01  0.6545E+02
     58.934  0.1889E+01  0.6594E+02
     59.192  0.2085E+01  0.6648E+02
     59.451  0.1220E+01  0.6679E+02
     59.709  0.1586E+01  0.6720E+02
     59.967  0.1707E+01  0.6764E+02
     60.225  0.8457E+00  0.6786E+02
     60.483  0.9818E+00  0.6811E+02
     60.741  0.1761E+01  0.6857E+02
     60.999  0.1226E+01  0.6889E+02
     61.257  0.1808E+01  0.6935E+02
     61.516  0.1822E+01  0.6982E+02
     61.774  0.1772E+01  0.7028E+02
     62.032  0.1531E+01  0.7068E+02
     62.290  0.1784E+01  0.7114E+02
     62.548  0.1714E+01  0.7158E+02
     62.806  0.1500E+01  0.7197E+02
     63.064  0.2006E+01  0.7248E+02
     63.322  0.1855E+01  0.7296E+02
     63.580  0.1074E+01  0.7324E+02
     63.839  0.1494E+01  0.7362E+02
     64.097  0.2201E+01  0.7419E+02
     64.355  0.2344E+01  0.7480E+02
     64.613  0.1802E+01  0.7526E+02
     64.871  0.1988E+01  0.7578E+02
     65.129  0.1897E+01  0.7627E+02
     65.387  0.2008E+01  0.7678E+02
     65.645  0.1972E+01  0.7729E+02
     65.904  0.1918E+01  0.7779E+02
     66.162  0.1586E+01  0.7820E+02
     66.420  0.1497E+01  0.7858E+02
     66.678  0.1472E+01  0.7896E+02
     66.936  0.1681E+01  0.7940E+02
     67.194  0.1088E+01  0.7968E+02
     67.452  0.9171E+00  0.7992E+02
     67.710  0.1827E+00  0.7996E+02
     67.969  0.6436E-01  0.7998E+02
     68.227  0.2255E-01  0.7998E+02
     68.485  0.5801E-01  0.8000E+02
     68.743  0.7050E-03  0.8000E+02
     69.001 -0.3820E-03  0.8000E+02
     69.259 -0.5765E-06  0.8000E+02
     69.517 -0.2403E-10  0.8000E+02
     69.775 -0.3102E-16  0.8000E+02
     70.034  0.0000E+00  0.8000E+02
     70.292  0.0000E+00  0.8000E+02
     70.550  0.0000E+00  0.8000E+02
     70.808  0.0000E+00  0.8000E+02
     71.066  0.0000E+00  0.8000E+02
     71.324  0.0000E+00  0.8000E+02
     71.582  0.0000E+00  0.8000E+02
     71.840  0.0000E+00  0.8000E+02
