    2    2    1    1
  0.1032129E+02  0.2399900E-09  0.2399900E-09  0.4138540E-09  0.5000000E-15
  1.000000000000000E-004
  CAR 
 unknown system                          
     16     96     40
 
  0.0000000E+00  0.0000000E+00  0.0000000E+00  0.7513148E-03
    1       -2.076686   1.000000
    2        1.839733   1.000000
    3        4.720171   1.000000
    4        5.195496   1.000000
    5        5.195648   1.000000
    6        5.523270   1.000000
    7        5.523430   1.000000
    8        6.279100   1.003065
    9        6.334402   1.008220
   10        6.334438   1.008224
   11        7.459271  -0.000002
   12        7.459309  -0.000002
   13       14.181858   0.000000
   14       29.753287   0.000000
   15       30.727973   0.000000
   16       32.821545   0.000000
   17       34.589983   0.000000
   18       34.590048   0.000000
   19       35.418754   0.000000
   20       35.419007   0.000000
   21       37.281176   0.000000
   22       38.576074   0.000000
   23       38.576102   0.000000
   24       39.645732   0.000000
   25       42.138824   0.000000
   26       42.138834   0.000000
   27       43.045550   0.000000
   28       45.616654   0.000000
   29       45.617078   0.000000
   30       47.415410   0.000000
   31       47.415594   0.000000
   32       50.151821   0.000000
   33       58.212163   0.000000
   34       61.250522   0.000000
   35       61.251949   0.000000
   36       61.748027   0.000000
   37       62.597262   0.000000
   38       63.360858   0.000000
   39       63.362018   0.000000
   40       64.311365   0.000000
 
  0.9090909E-01 -0.6571180E-17  0.0000000E+00  0.4507889E-02
    1       -1.754865   1.000000
    2        2.073196   1.000000
    3        4.678399   1.000000
    4        5.186735   1.000000
    5        5.358759   1.000000
    6        5.379968   1.000000
    7        5.421166   1.000000
    8        5.692556   1.000000
    9        6.215161   1.000776
   10        6.225769   1.000991
   11        7.498533  -0.000000
   12        8.637813  -0.000000
   13       14.207837   0.000000
   14       28.399918   0.000000
   15       30.973771   0.000000
   16       31.021316   0.000000
   17       31.893894   0.000000
   18       34.463934   0.000000
   19       34.691438   0.000000
   20       37.070404   0.000000
   21       38.012778   0.000000
   22       38.322522   0.000000
   23       39.011896   0.000000
   24       39.066313   0.000000
   25       43.060712   0.000000
   26       43.307374   0.000000
   27       43.327715   0.000000
   28       43.719836   0.000000
   29       47.173732   0.000000
   30       48.891206   0.000000
   31       49.888581   0.000000
   32       52.082552   0.000000
   33       57.649901   0.000000
   34       60.034520   0.000000
   35       60.139002   0.000000
   36       60.617801   0.000000
   37       61.328627   0.000000
   38       64.280506   0.000000
   39       64.415472   0.000000
   40       65.359167   0.000000
 
  0.1818182E+00 -0.1884127E-16  0.0000000E+00  0.4507889E-02
    1       -0.841230   1.000000
    2        2.626229   1.000000
    3        4.283650   1.000000
    4        4.423099   1.000000
    5        5.039165   1.000000
    6        5.590897   1.000000
    7        5.892787   1.000000
    8        5.907535   1.000000
    9        5.966645   1.000000
   10        6.161292   1.000203
   11        7.561093  -0.000000
   12       10.465740  -0.000000
   13       14.308571   0.000000
   14       24.620176   0.000000
   15       29.123095   0.000000
   16       29.768250   0.000000
   17       30.386910   0.000000
   18       31.813382   0.000000
   19       35.037374   0.000000
   20       36.391241   0.000000
   21       36.860478   0.000000
   22       37.143925   0.000000
   23       39.472301   0.000000
   24       40.584825   0.000000
   25       42.856881   0.000000
   26       44.179054   0.000000
   27       45.881611   0.000000
   28       48.101080   0.000000
   29       49.848276   0.000000
   30       52.505631   0.000000
   31       52.810700   0.000000
   32       55.604408   0.000000
   33       56.218903   0.000000
   34       56.994556   0.000000
   35       58.301136   0.000000
   36       60.052030   0.000000
   37       61.167661   0.000000
   38       64.032912   0.000000
   39       65.611875   0.000000
   40       66.630424   0.000000
 
  0.2727273E+00 -0.3790281E-16  0.0000000E+00  0.4507889E-02
    1        0.470352   1.000000
    2        2.921273   1.000000
    3        3.460471   1.000000
    4        4.326347   1.000000
    5        4.876796   1.000000
    6        5.517307   1.000000
    7        5.672184   1.000000
    8        6.297550   1.004352
    9        6.621945   0.898139
   10        6.816524   0.177433
   11        7.603265  -0.000000
   12       12.518693   0.000000
   13       14.528559   0.000000
   14       20.682825   0.000000
   15       26.758123   0.000000
   16       26.796347   0.000000
   17       28.166272   0.000000
   18       31.458265   0.000000
   19       33.087885   0.000000
   20       36.487670   0.000000
   21       36.959472   0.000000
   22       37.149958   0.000000
   23       37.200623   0.000000
   24       41.163072   0.000000
   25       46.416736   0.000000
   26       48.174676   0.000000
   27       49.283796   0.000000
   28       50.751255   0.000000
   29       52.078024   0.000000
   30       52.958979   0.000000
   31       54.468446   0.000000
   32       55.606646   0.000000
   33       57.871393   0.000000
   34       58.394645   0.000000
   35       58.767697   0.000000
   36       59.934748   0.000000
   37       62.271651   0.000000
   38       63.710518   0.000000
   39       65.721677   0.000000
   40       66.246206   0.000000
 
  0.3636364E+00 -0.4308656E-16  0.0000000E+00  0.4507889E-02
    1        1.694711   1.000000
    2        2.689281   1.000000
    3        2.915582   1.000000
    4        4.502571   1.000000
    5        5.170769   1.000000
    6        5.197618   1.000000
    7        5.427733   1.000000
    8        7.350469  -0.000056
    9        7.443279  -0.000003
   10        7.475961  -0.000001
   11        7.619540  -0.000000
   12       14.354759   0.000000
   13       14.717350   0.000000
   14       17.922234   0.000000
   15       23.583432   0.000000
   16       24.951481   0.000000
   17       25.409988   0.000000
   18       30.510954   0.000000
   19       31.958299   0.000000
   20       35.175917   0.000000
   21       36.067472   0.000000
   22       38.058785   0.000000
   23       39.022268   0.000000
   24       41.635503   0.000000
   25       49.089155   0.000000
   26       49.835854   0.000000
   27       50.048485   0.000000
   28       53.322330   0.000000
   29       53.427393   0.000000
   30       54.375693   0.000000
   31       56.602522   0.000000
   32       57.350370   0.000000
   33       57.646654   0.000000
   34       59.238536   0.000000
   35       61.027159   0.000000
   36       62.792979   0.000000
   37       63.278609   0.000000
   38       64.364444   0.000000
   39       65.674024   0.000000
   40       66.035339   0.000000
 
  0.4545455E+00 -0.4286629E-16  0.0000000E+00  0.4507889E-02
    1        2.243701   1.000000
    2        2.451477   1.000000
    3        2.646427   1.000000
    4        4.967938   1.000000
    5        4.982797   1.000000
    6        5.291402   1.000000
    7        5.429698   1.000000
    8        7.622471  -0.000000
    9        7.797115  -0.000000
   10        7.923524  -0.000000
   11        9.037561  -0.000000
   12       12.387940   0.000000
   13       16.802473   0.000000
   14       18.039460   0.000000
   15       21.009706   0.000000
   16       22.798177   0.000000
   17       23.945180   0.000000
   18       29.886349   0.000000
   19       31.615581   0.000000
   20       34.089144   0.000000
   21       35.870343   0.000000
   22       38.787103   0.000000
   23       41.246019   0.000000
   24       41.809830   0.000000
   25       45.733784   0.000000
   26       50.310616   0.000000
   27       51.903274   0.000000
   28       55.655111   0.000000
   29       56.448292   0.000000
   30       56.456545   0.000000
   31       57.628938   0.000000
   32       59.316753   0.000000
   33       59.547054   0.000000
   34       61.096782   0.000000
   35       61.313533   0.000000
   36       61.981111   0.000000
   37       64.268308   0.000000
   38       64.814506   0.000000
   39       64.841313   0.000000
   40       65.641776   0.000000
 
  0.9090909E-01  0.9090909E-01  0.0000000E+00  0.4507889E-02
    1       -1.134861   1.000000
    2        2.482370   1.000000
    3        4.472415   1.000000
    4        4.565088   1.000000
    5        5.221402   1.000000
    6        5.309719   1.000000
    7        5.755160   1.000000
    8        5.838786   1.000000
    9        6.059147   1.000010
   10        6.210458   1.000695
   11        7.521963  -0.000000
   12        9.957438  -0.000000
   13       14.274425   0.000000
   14       26.354965   0.000000
   15       27.538056   0.000000
   16       31.344688   0.000000
   17       31.982888   0.000000
   18       33.077462   0.000000
   19       33.495369   0.000000
   20       35.327215   0.000000
   21       36.572190   0.000000
   22       40.041248   0.000000
   23       40.688932   0.000000
   24       41.231253   0.000000
   25       42.240748   0.000000
   26       42.284350   0.000000
   27       42.377597   0.000000
   28       48.606672   0.000000
   29       50.672921   0.000000
   30       50.765733   0.000000
   31       50.841483   0.000000
   32       54.968394   0.000000
   33       56.767764   0.000000
   34       57.909033   0.000000
   35       58.503741   0.000000
   36       60.020783   0.000000
   37       60.885086   0.000000
   38       64.497738   0.000000
   39       65.644331   0.000000
   40       66.872410   0.000000
 
  0.1818182E+00  0.9090909E-01  0.0000000E+00  0.9015778E-02
    1       -0.000822   1.000000
    2        3.013098   1.000000
    3        3.758858   1.000000
    4        4.144115   1.000000
    5        4.963084   1.000000
    6        5.445369   1.000000
    7        5.722899   1.000000
    8        5.976545   1.000001
    9        6.424427   1.025781
   10        6.734472   0.492413
   11        7.534526  -0.000000
   12       11.795887  -0.000000
   13       14.477754   0.000000
   14       22.686478   0.000000
   15       25.212210   0.000000
   16       28.591407   0.000000
   17       30.822191   0.000000
   18       30.910569   0.000000
   19       33.996926   0.000000
   20       34.936786   0.000000
   21       35.327401   0.000000
   22       39.868909   0.000000
   23       40.100281   0.000000
   24       40.732377   0.000000
   25       43.930676   0.000000
   26       44.999584   0.000000
   27       46.721368   0.000000
   28       50.897950   0.000000
   29       53.055620   0.000000
   30       53.698102   0.000000
   31       53.963682   0.000000
   32       56.060966   0.000000
   33       56.970751   0.000000
   34       57.146195   0.000000
   35       58.402324   0.000000
   36       58.472188   0.000000
   37       61.579867   0.000000
   38       64.620919   0.000000
   39       65.830189   0.000000
   40       66.897215   0.000000
 
  0.2727273E+00  0.9090909E-01  0.0000000E+00  0.9015778E-02
    1        1.345842   1.000000
    2        2.993917   1.000000
    3        3.155052   1.000000
    4        4.184072   1.000000
    5        5.018940   1.000000
    6        5.134677   1.000000
    7        5.630050   1.000000
    8        6.432584   1.027630
    9        7.161097  -0.004919
   10        7.539148  -0.000000
   11        7.616883  -0.000000
   12       13.892913   0.000000
   13       14.788223   0.000000
   14       19.083272   0.000000
   15       23.540262   0.000000
   16       25.270682   0.000000
   17       27.662301   0.000000
   18       29.609773   0.000000
   19       33.224297   0.000000
   20       34.273778   0.000000
   21       36.312017   0.000000
   22       39.654381   0.000000
   23       39.750574   0.000000
   24       42.246176   0.000000
   25       45.864944   0.000000
   26       48.699592   0.000000
   27       50.318105   0.000000
   28       51.136009   0.000000
   29       51.833555   0.000000
   30       54.628637   0.000000
   31       56.247852   0.000000
   32       56.983988   0.000000
   33       57.866928   0.000000
   34       58.612217   0.000000
   35       60.364617   0.000000
   36       62.233080   0.000000
   37       63.120869   0.000000
   38       64.362900   0.000000
   39       64.925429   0.000000
   40       66.851368   0.000000
 
  0.3636364E+00  0.9090909E-01  0.0000000E+00  0.9015778E-02
    1        2.259495   1.000000
    2        2.701059   1.000000
    3        2.793736   1.000000
    4        4.549489   1.000000
    5        4.965603   1.000000
    6        5.313630   1.000000
    7        5.349098   1.000000
    8        7.275749  -0.000419
    9        7.534377  -0.000000
   10        7.679381  -0.000000
   11        8.765515  -0.000000
   12       13.800959   0.000000
   13       16.107347   0.000000
   14       17.801053   0.000000
   15       22.252999   0.000000
   16       22.338389   0.000000
   17       24.499939   0.000000
   18       28.733702   0.000000
   19       32.263006   0.000000
   20       33.741475   0.000000
   21       37.189651   0.000000
   22       40.106956   0.000000
   23       41.034196   0.000000
   24       42.166052   0.000000
   25       47.672945   0.000000
   26       48.672599   0.000000
   27       50.748892   0.000000
   28       52.474389   0.000000
   29       53.799832   0.000000
   30       56.316018   0.000000
   31       56.651834   0.000000
   32       58.457858   0.000000
   33       59.595924   0.000000
   34       61.606663   0.000000
   35       61.759406   0.000000
   36       62.961557   0.000000
   37       63.591102   0.000000
   38       64.553902   0.000000
   39       65.825826   0.000000
   40       65.995931   0.000000
 
  0.4545455E+00  0.9090909E-01  0.0000000E+00  0.4507889E-02
    1        2.472174   1.000000
    2        2.579123   1.000000
    3        2.674084   1.000000
    4        4.885907   1.000000
    5        4.929976   1.000000
    6        5.169632   1.000000
    7        5.467712   1.000000
    8        7.531106  -0.000000
    9        7.750976  -0.000000
   10        7.766845  -0.000000
   11        9.962552  -0.000000
   12       12.054337  -0.000000
   13       17.610837   0.000000
   14       18.487185   0.000000
   15       20.589832   0.000000
   16       21.492062   0.000000
   17       23.032570   0.000000
   18       28.424677   0.000000
   19       31.876899   0.000000
   20       33.577812   0.000000
   21       37.294119   0.000000
   22       40.923595   0.000000
   23       41.239531   0.000000
   24       42.885969   0.000000
   25       45.326831   0.000000
   26       50.476647   0.000000
   27       50.627873   0.000000
   28       53.670418   0.000000
   29       55.415506   0.000000
   30       55.806548   0.000000
   31       58.929483   0.000000
   32       59.469837   0.000000
   33       59.842013   0.000000
   34       59.982668   0.000000
   35       61.575460   0.000000
   36       63.930000   0.000000
   37       65.067687   0.000000
   38       65.195548   0.000000
   39       65.574117   0.000000
   40       67.107596   0.000000
 
  0.1818182E+00  0.1818182E+00  0.0000000E+00  0.4507889E-02
    1        1.231947   1.000000
    2        3.296123   1.000000
    3        3.433855   1.000000
    4        3.714726   1.000000
    5        5.015952   1.000000
    6        5.032263   1.000000
    7        5.776731   1.000000
    8        5.962245   1.000000
    9        7.139643  -0.007132
   10        7.453918  -0.000002
   11        7.674511  -0.000000
   12       13.627316   0.000000
   13       14.936188   0.000000
   14       20.754711   0.000000
   15       21.470920   0.000000
   16       26.792764   0.000000
   17       28.094881   0.000000
   18       29.913943   0.000000
   19       30.651733   0.000000
   20       36.059263   0.000000
   21       37.050403   0.000000
   22       40.604720   0.000000
   23       40.909265   0.000000
   24       43.440487   0.000000
   25       44.047880   0.000000
   26       46.033510   0.000000
   27       47.464614   0.000000
   28       52.631503   0.000000
   29       52.650410   0.000000
   30       54.502565   0.000000
   31       54.739168   0.000000
   32       57.590343   0.000000
   33       57.680450   0.000000
   34       60.112575   0.000000
   35       60.501711   0.000000
   36       61.097195   0.000000
   37       61.100851   0.000000
   38       65.027215   0.000000
   39       65.165805   0.000000
   40       67.672918   0.000000
 
  0.2727273E+00  0.1818182E+00  0.0000000E+00  0.9015778E-02
    1        2.436744   1.000000
    2        2.990649   1.000000
    3        3.206891   1.000000
    4        3.866612   1.000000
    5        4.805147   1.000000
    6        5.277037   1.000000
    7        5.412492   1.000000
    8        6.487820   1.035458
    9        7.381827  -0.000022
   10        7.631782  -0.000000
   11        8.881639  -0.000000
   12       15.343815   0.000000
   13       15.764257   0.000000
   14       17.993252   0.000000
   15       19.916079   0.000000
   16       24.179655   0.000000
   17       26.532269   0.000000
   18       26.541112   0.000000
   19       29.319647   0.000000
   20       37.501756   0.000000
   21       38.068451   0.000000
   22       40.976171   0.000000
   23       43.090521   0.000000
   24       43.831462   0.000000
   25       45.483611   0.000000
   26       47.277196   0.000000
   27       48.696505   0.000000
   28       50.327177   0.000000
   29       53.490566   0.000000
   30       53.861424   0.000000
   31       55.894692   0.000000
   32       58.449772   0.000000
   33       59.870050   0.000000
   34       60.867528   0.000000
   35       63.068539   0.000000
   36       63.140264   0.000000
   37       64.133076   0.000000
   38       65.273040   0.000000
   39       66.019853   0.000000
   40       67.240585   0.000000
 
  0.3636364E+00  0.1818182E+00  0.0000000E+00  0.9015778E-02
    1        2.846300   1.000000
    2        2.909243   1.000000
    3        2.994815   1.000000
    4        4.307845   1.000000
    5        4.811934   1.000000
    6        5.045625   1.000000
    7        5.531159   1.000000
    8        7.136168  -0.007553
    9        7.341314  -0.000073
   10        7.667869  -0.000000
   11       10.429239  -0.000000
   12       13.409625   0.000000
   13       17.951013   0.000000
   14       18.347757   0.000000
   15       19.197839   0.000000
   16       21.566620   0.000000
   17       23.673154   0.000000
   18       25.957352   0.000000
   19       28.678024   0.000000
   20       37.356964   0.000000
   21       39.729203   0.000000
   22       41.554301   0.000000
   23       43.201944   0.000000
   24       43.853489   0.000000
   25       47.523783   0.000000
   26       47.689175   0.000000
   27       49.831695   0.000000
   28       49.900988   0.000000
   29       53.469240   0.000000
   30       54.809274   0.000000
   31       55.151886   0.000000
   32       58.819199   0.000000
   33       59.153088   0.000000
   34       60.327638   0.000000
   35       64.095821   0.000000
   36       64.783491   0.000000
   37       65.910367   0.000000
   38       66.247839   0.000000
   39       66.430493   0.000000
   40       66.731600   0.000000
 
  0.2727273E+00  0.2727273E+00  0.0000000E+00  0.4507889E-02
    1        2.965158   1.000000
    2        3.227248   1.000000
    3        3.562727   1.000000
    4        3.589939   1.000000
    5        4.661857   1.000000
    6        5.060929   1.000000
    7        5.576892   1.000000
    8        6.740991   0.464862
    9        7.244652  -0.000883
   10        7.642819  -0.000000
   11       10.543808  -0.000000
   12       15.491915   0.000000
   13       15.997126   0.000000
   14       17.975279   0.000000
   15       19.083593   0.000000
   16       23.552728   0.000000
   17       23.557576   0.000000
   18       25.331388   0.000000
   19       26.215090   0.000000
   20       39.599238   0.000000
   21       40.554883   0.000000
   22       43.197875   0.000000
   23       44.158497   0.000000
   24       45.585644   0.000000
   25       45.625978   0.000000
   26       45.905412   0.000000
   27       48.304427   0.000000
   28       50.809165   0.000000
   29       51.147559   0.000000
   30       54.248917   0.000000
   31       54.990301   0.000000
   32       57.352611   0.000000
   33       58.999078   0.000000
   34       60.543736   0.000000
   35       63.992777   0.000000
   36       65.127832   0.000000
   37       65.394618   0.000000
   38       66.930338   0.000000
   39       67.185896   0.000000
   40       67.388488   0.000000
 
  0.3636364E+00  0.2727273E+00  0.0000000E+00  0.4507889E-02
    1        2.979951   1.000000
    2        3.403899   1.000000
    3        3.416614   1.000000
    4        3.903485   1.000000
    5        4.722560   1.000000
    6        4.791964   1.000000
    7        5.720139   1.000000
    8        7.085065  -0.015937
    9        7.191616  -0.002757
   10        7.366215  -0.000035
   11       12.271574   0.000000
   12       13.497654   0.000000
   13       15.615755   0.000000
   14       19.900802   0.000000
   15       20.061936   0.000000
   16       21.365160   0.000000
   17       23.344348   0.000000
   18       23.723354   0.000000
   19       25.612057   0.000000
   20       40.047278   0.000000
   21       42.667543   0.000000
   22       43.534782   0.000000
   23       44.073427   0.000000
   24       44.844849   0.000000
   25       46.549453   0.000000
   26       46.807348   0.000000
   27       49.564040   0.000000
   28       49.810159   0.000000
   29       50.109073   0.000000
   30       53.615111   0.000000
   31       55.205785   0.000000
   32       55.563510   0.000000
   33       58.845337   0.000000
   34       59.478256   0.000000
   35       64.996814   0.000000
   36       65.519075   0.000000
   37       66.751431   0.000000
   38       66.935493   0.000000
   39       67.274466   0.000000
   40       67.318659   0.000000
 
  0.0000000E+00  0.0000000E+00  0.9090909E-01  0.1502630E-02
    1       -1.995475   1.000000
    2        1.809628   1.000000
    3        4.697268   1.000000
    4        5.185671   1.000000
    5        5.185809   1.000000
    6        5.504765   1.000000
    7        5.504919   1.000000
    8        6.047472   1.000007
    9        6.377863   1.015447
   10        6.377900   1.015455
   11        7.454776  -0.000002
   12        7.454815  -0.000002
   13       14.578857   0.000000
   14       29.479220   0.000000
   15       30.400649   0.000000
   16       32.647816   0.000000
   17       34.649545   0.000000
   18       34.649598   0.000000
   19       35.470772   0.000000
   20       35.470977   0.000000
   21       37.761182   0.000000
   22       38.486509   0.000000
   23       38.486528   0.000000
   24       39.898627   0.000000
   25       41.785127   0.000000
   26       41.785141   0.000000
   27       43.318718   0.000000
   28       45.922484   0.000000
   29       45.922853   0.000000
   30       47.904311   0.000000
   31       47.904450   0.000000
   32       50.079881   0.000000
   33       57.621006   0.000000
   34       61.054516   0.000000
   35       61.055486   0.000000
   36       61.689302   0.000000
   37       61.689728   0.000000
   38       61.901572   0.000000
   39       63.294305   0.000000
   40       64.908892   0.000000
 
  0.9090909E-01 -0.6571180E-17  0.9090909E-01  0.9015778E-02
    1       -1.675460   1.000000
    2        2.047412   1.000000
    3        4.672503   1.000000
    4        5.143948   1.000000
    5        5.167613   1.000000
    6        5.363741   1.000000
    7        5.489494   1.000000
    8        5.670849   1.000000
    9        6.263291   1.002232
   10        6.277546   1.002973
   11        7.487667  -0.000001
   12        8.471289  -0.000000
   13       14.636610   0.000000
   14       28.396201   0.000000
   15       30.315448   0.000000
   16       31.050135   0.000000
   17       31.965877   0.000000
   18       33.807572   0.000000
   19       35.238580   0.000000
   20       37.293796   0.000000
   21       37.661415   0.000000
   22       38.433301   0.000000
   23       38.956085   0.000000
   24       39.515952   0.000000
   25       42.869681   0.000000
   26       43.030827   0.000000
   27       43.926589   0.000000
   28       44.132769   0.000000
   29       47.018831   0.000000
   30       49.181424   0.000000
   31       50.226095   0.000000
   32       52.074384   0.000000
   33       56.517307   0.000000
   34       59.383155   0.000000
   35       60.086299   0.000000
   36       61.137356   0.000000
   37       61.589205   0.000000
   38       63.049542   0.000000
   39       64.256122   0.000000
   40       65.099912   0.000000
 
  0.1818182E+00 -0.1884127E-16  0.9090909E-01  0.9015778E-02
    1       -0.768909   1.000000
    2        2.615555   1.000000
    3        4.197083   1.000000
    4        4.441003   1.000000
    5        5.008274   1.000000
    6        5.497834   1.000000
    7        5.811455   1.000000
    8        6.037721   1.000005
    9        6.047055   1.000007
   10        6.179927   1.000329
   11        7.543451  -0.000000
   12       10.103668  -0.000000
   13       14.861680   0.000000
   14       24.679166   0.000000
   15       29.219781   0.000000
   16       29.313293   0.000000
   17       30.644375   0.000000
   18       31.219352   0.000000
   19       34.869213   0.000000
   20       36.322474   0.000000
   21       36.587245   0.000000
   22       37.421762   0.000000
   23       39.893287   0.000000
   24       41.275680   0.000000
   25       43.137858   0.000000
   26       44.170780   0.000000
   27       45.657443   0.000000
   28       48.128307   0.000000
   29       49.773219   0.000000
   30       52.521986   0.000000
   31       53.166439   0.000000
   32       54.544658   0.000000
   33       55.484884   0.000000
   34       57.664957   0.000000
   35       58.494018   0.000000
   36       59.936171   0.000000
   37       61.430043   0.000000
   38       63.959434   0.000000
   39       65.393721   0.000000
   40       66.040521   0.000000
 
  0.2727273E+00 -0.3790281E-16  0.9090909E-01  0.9015778E-02
    1        0.522513   1.000000
    2        2.924081   1.000000
    3        3.430515   1.000000
    4        4.339045   1.000000
    5        4.826271   1.000000
    6        5.536686   1.000000
    7        5.693251   1.000000
    8        6.336223   1.008462
    9        6.633044   0.869094
   10        6.799978   0.232320
   11        7.581942  -0.000000
   12       11.811825  -0.000000
   13       15.372985   0.000000
   14       20.749755   0.000000
   15       26.293172   0.000000
   16       26.868328   0.000000
   17       28.584328   0.000000
   18       31.231470   0.000000
   19       33.098190   0.000000
   20       35.365712   0.000000
   21       35.757778   0.000000
   22       38.193609   0.000000
   23       38.294311   0.000000
   24       42.019106   0.000000
   25       46.531226   0.000000
   26       48.040273   0.000000
   27       48.939776   0.000000
   28       49.392154   0.000000
   29       52.779938   0.000000
   30       53.207982   0.000000
   31       54.763335   0.000000
   32       56.211002   0.000000
   33       57.269370   0.000000
   34       57.453812   0.000000
   35       59.153407   0.000000
   36       60.213807   0.000000
   37       62.528768   0.000000
   38       64.077204   0.000000
   39       64.950983   0.000000
   40       66.326164   0.000000
 
  0.3636364E+00 -0.4308656E-16  0.9090909E-01  0.9015778E-02
    1        1.691221   1.000000
    2        2.664464   1.000000
    3        2.992116   1.000000
    4        4.327595   1.000000
    5        5.200394   1.000000
    6        5.399580   1.000000
    7        5.462836   1.000000
    8        7.355721  -0.000048
    9        7.409047  -0.000009
   10        7.414989  -0.000008
   11        7.629040  -0.000000
   12       13.157687   0.000000
   13       15.890090   0.000000
   14       18.073687   0.000000
   15       23.117646   0.000000
   16       25.073775   0.000000
   17       25.931225   0.000000
   18       30.459007   0.000000
   19       31.966526   0.000000
   20       34.071402   0.000000
   21       36.840408   0.000000
   22       37.224929   0.000000
   23       39.420383   0.000000
   24       42.680212   0.000000
   25       47.435455   0.000000
   26       49.982385   0.000000
   27       51.274063   0.000000
   28       52.411481   0.000000
   29       53.447239   0.000000
   30       55.201465   0.000000
   31       56.123078   0.000000
   32       57.371339   0.000000
   33       58.044359   0.000000
   34       59.030623   0.000000
   35       61.174113   0.000000
   36       62.770075   0.000000
   37       63.714855   0.000000
   38       63.944151   0.000000
   39       65.853179   0.000000
   40       66.080830   0.000000
 
  0.4545455E+00 -0.4286629E-16  0.9090909E-01  0.9015778E-02
    1        2.157035   1.000000
    2        2.380122   1.000000
    3        2.868428   1.000000
    4        4.400696   1.000000
    5        5.330430   1.000000
    6        5.411289   1.000000
    7        5.650445   1.000000
    8        7.556743  -0.000000
    9        7.804062  -0.000000
   10        7.925556  -0.000000
   11        8.953230  -0.000000
   12       12.218550   0.000000
   13       16.573207   0.000000
   14       18.133834   0.000000
   15       21.081139   0.000000
   16       23.252881   0.000000
   17       24.075407   0.000000
   18       29.873878   0.000000
   19       31.614693   0.000000
   20       33.223852   0.000000
   21       36.780282   0.000000