 vasp.6.2.0 18Jan21 (build Mar 17 2021 09:06:54) complex                        
  
 executed on             LinuxIFC date 2021.09.09  12:08:38
 serial version


--------------------------------------------------------------------------------------------------------


 INCAR:
   ENCUT = 280.000000
   SIGMA = 0.200000
   EDIFF = 1.00e-06
   GGA = PE
   PREC = normal
   IBRION = 1
   ICHARG = 1
   ISIF = 2
   ISMEAR = 1
   KPAR = 1
   NBANDS = 40
   NSW = 0
   NCORE = 1
   LCHARG = .TRUE.

 POTCAR:    PAW_PBE Fe 06Sep2000                  
 POTCAR:    PAW_PBE Fe 06Sep2000                  
   SHA256 =  cd5a22d9368cc8b5cc476bea79732366149640da08ac9009b0e1b7fc627eea28 Fe/POTCAR             
   COPYR  = (c) Copyright 06Sep2000 Georg Kresse                                                    
   COPYR  = This file is part of the software VASP. Any use, copying, and all other rights are regul
   COPYR  = If you do not have a valid VASP license, you may not use, copy or distribute this file. 
   VRHFIN =Fe:  d7 s1                                                                               
   LEXCH  = PE                                                                                      
   EATOM  =   594.3153 eV,   43.6809 Ry                                                             
                                                                                                    
   TITEL  = PAW_PBE Fe 06Sep2000                                                                    
   LULTRA =        F    use ultrasoft PP ?                                                          
   IUNSCR =        1    unscreen: 0-lin 1-nonlin 2-no                                               
   RPACOR =    2.000    partial core radius                                                         
   POMASS =   55.847; ZVAL   =    8.000    mass and valenz                                          
   RCORE  =    2.300    outmost cutoff radius                                                       
   RWIGS  =    2.460; RWIGS  =    1.302    wigner-seitz radius (au A)                               
   ENMAX  =  267.882; ENMIN  =  200.911 eV                                                          
   RCLOC  =    1.701    cutoff for local pot                                                        
   LCOR   =        T    correct aug charges                                                         
   LPAW   =        T    paw PP                                                                      
   EAUG   =  511.368                                                                                
   DEXC   =    0.000                                                                                
   RMAX   =    2.356    core radius for proj-oper                                                   
   RAUG   =    1.300    factor for augmentation sphere                                              
   RDEP   =    2.442    radius for radial grids                                                     
   RDEPT  =    1.890    core radius for aug-charge                                                  
                                                                                                    
   Atomic configuration                                                                             
    9 entries                                                                                       
     n  l   j            E        occ.                                                              
     1  0  0.50     -6993.8440   2.0000                                                             
     2  0  0.50      -814.6047   2.0000                                                             
     2  1  1.50      -693.3689   6.0000                                                             
     3  0  0.50       -89.4732   2.0000                                                             
     3  1  1.50       -55.6373   6.0000                                                             
     3  2  2.50        -3.8151   7.0000                                                             
     4  0  0.50        -4.2551   1.0000                                                             
     4  1  1.50        -3.4015   0.0000                                                             
     4  3  2.50        -1.3606   0.0000                                                             
   Description                                                                                      
     l       E           TYP  RCUT    TYP  RCUT                                                     
     2     -3.8151135     23  2.300                                                                 
     2     -5.1756961     23  2.300                                                                 
     0     -4.2550963     23  2.300                                                                 
     0      7.2035603     23  2.300                                                                 
     1     -2.7211652     23  2.300                                                                 
     1     18.4316424     23  2.300                                                                 
  local pseudopotential read in
  partial core-charges read in
  partial kinetic energy density read in
  atomic valenz-charges read in
  non local Contribution for L=           2  read in
    real space projection operators read in
  non local Contribution for L=           2  read in
    real space projection operators read in
  non local Contribution for L=           0  read in
    real space projection operators read in
  non local Contribution for L=           0  read in
    real space projection operators read in
  non local Contribution for L=           1  read in
    real space projection operators read in
  non local Contribution for L=           1  read in
    real space projection operators read in
    PAW grid and wavefunctions read in
 
   number of l-projection  operators is LMAX  =           6
   number of lm-projection operators is LMMAX =          18
 
  PAW_PBE Fe 06Sep2000                  :
 energy of atom  1       EATOM= -594.3153
 kinetic energy error for atom=    0.0278 (will be added to EATOM!!)
 
 
 POSCAR: Fe
  positions in cartesian coordinates
  No initial velocities read in
 exchange correlation table for  LEXCH =        8
   RHO(1)=    0.500       N(1)  =     2000
   RHO(2)=  100.500       N(2)  =     4000
 


--------------------------------------------------------------------------------------------------------


 ion  position               nearest neighbor table
   1  0.000  0.000  0.000-   2 2.49   2 2.49   2 2.49   2 2.49   2 2.49   2 2.49
   2  0.333  0.667  0.500-   1 2.49   1 2.49   1 2.49   1 2.49   1 2.49   1 2.49
 
  LATTYP: Found a hexagonal cell.
 ALAT       =     2.3999000000
 C/A-ratio  =     1.7244635193
  
  Lattice vectors:
  
 A1 = (   2.3999000000,   0.0000000000,   0.0000000000)
 A2 = (  -1.1999500000,   2.0783743665,   0.0000000000)
 A3 = (   0.0000000000,   0.0000000000,   4.1385400000)


Analysis of symmetry for initial positions (statically):
=====================================================================
 Subroutine PRICEL returns:
 Original cell was already a primitive cell.
 

 Routine SETGRP: Setting up the symmetry group for a 
 hexagonal supercell.


 Subroutine GETGRP returns: Found 24 space group operations
 (whereof 12 operations were pure point group operations)
 out of a pool of 24 trial point group operations.


The static configuration has the point symmetry D_3h.
 The point group associated with its full space group is D_6h.


Analysis of symmetry for dynamics (positions and initial velocities):
=====================================================================
 Subroutine PRICEL returns:
 Original cell was already a primitive cell.
 

 Routine SETGRP: Setting up the symmetry group for a 
 hexagonal supercell.


 Subroutine GETGRP returns: Found 24 space group operations
 (whereof 12 operations were pure point group operations)
 out of a pool of 24 trial point group operations.


The dynamic configuration has the point symmetry D_3h.
 The point group associated with its full space group is D_6h.


 Subroutine INISYM returns: Found 24 space group operations
 (whereof 12 operations are pure point group operations),
 and found     1 'primitive' translations


----------------------------------------------------------------------------------------

                                     Primitive cell                                     

  volume of cell :      20.6426

  direct lattice vectors                    reciprocal lattice vectors
     2.399900000  0.000000000  0.000000000     0.416684029  0.240572636  0.000000000
    -1.199950000  2.078374367  0.000000000     0.000000000  0.481145272  0.000000000
     0.000000000  0.000000000  4.138540000     0.000000000  0.000000000  0.241631107

  length of vectors
     2.399900000  2.399900000  4.138540000     0.481145272  0.481145272  0.241631107

  position of ions in fractional coordinates (direct lattice)
     0.000000000  0.000000000  0.000000000
     0.333333333  0.666666667  0.500000000

  ion indices of the primitive-cell ions
   primitive index   ion index
                 1           1
                 2           2

----------------------------------------------------------------------------------------

 
 
 KPOINTS: KPOINTS created by Atomic Simulation Env

Automatic generation of k-mesh.
 Grid dimensions read from file:
 generate k-points for:   11   11   11

 Generating k-lattice:

  Cartesian coordinates                     Fractional coordinates (reciprocal lattice)
     0.037880366  0.021870240  0.000000000     0.090909091  0.000000000  0.000000000
     0.000000000  0.043740479  0.000000000     0.000000000  0.090909091  0.000000000
     0.000000000  0.000000000  0.021966464     0.000000000  0.000000000  0.090909091

  Length of vectors
     0.043740479  0.043740479  0.021966464

  Shift w.r.t. Gamma in fractional coordinates (k-lattice)
     0.000000000  0.000000000  0.000000000

 
 Subroutine IBZKPT returns following result:
 ===========================================
 
 Found     96 irreducible k-points:
 
 Following reciprocal coordinates:
            Coordinates               Weight
  0.000000  0.000000  0.000000      1.000000
  0.090909 -0.000000  0.000000      6.000000
  0.181818 -0.000000  0.000000      6.000000
  0.272727 -0.000000  0.000000      6.000000
  0.363636 -0.000000  0.000000      6.000000
  0.454545 -0.000000  0.000000      6.000000
  0.090909  0.090909  0.000000      6.000000
  0.181818  0.090909  0.000000     12.000000
  0.272727  0.090909  0.000000     12.000000
  0.363636  0.090909  0.000000     12.000000
  0.454545  0.090909  0.000000      6.000000
  0.181818  0.181818  0.000000      6.000000
  0.272727  0.181818  0.000000     12.000000
  0.363636  0.181818  0.000000     12.000000
  0.272727  0.272727  0.000000      6.000000
  0.363636  0.272727  0.000000      6.000000
  0.000000  0.000000  0.090909      2.000000
  0.090909 -0.000000  0.090909     12.000000
  0.181818 -0.000000  0.090909     12.000000
  0.272727 -0.000000  0.090909     12.000000
  0.363636 -0.000000  0.090909     12.000000
  0.454545 -0.000000  0.090909     12.000000
  0.090909  0.090909  0.090909     12.000000
  0.181818  0.090909  0.090909     24.000000
  0.272727  0.090909  0.090909     24.000000
  0.363636  0.090909  0.090909     24.000000
  0.454545  0.090909  0.090909     12.000000
  0.181818  0.181818  0.090909     12.000000
  0.272727  0.181818  0.090909     24.000000
  0.363636  0.181818  0.090909     24.000000
  0.272727  0.272727  0.090909     12.000000
  0.363636  0.272727  0.090909     12.000000
  0.000000  0.000000  0.181818      2.000000
  0.090909 -0.000000  0.181818     12.000000
  0.181818 -0.000000  0.181818     12.000000
  0.272727 -0.000000  0.181818     12.000000
  0.363636 -0.000000  0.181818     12.000000
  0.454545 -0.000000  0.181818     12.000000
  0.090909  0.090909  0.181818     12.000000
  0.181818  0.090909  0.181818     24.000000
  0.272727  0.090909  0.181818     24.000000
  0.363636  0.090909  0.181818     24.000000
  0.454545  0.090909  0.181818     12.000000
  0.181818  0.181818  0.181818     12.000000
  0.272727  0.181818  0.181818     24.000000
  0.363636  0.181818  0.181818     24.000000
  0.272727  0.272727  0.181818     12.000000
  0.363636  0.272727  0.181818     12.000000
  0.000000  0.000000  0.272727      2.000000
  0.090909 -0.000000  0.272727     12.000000
  0.181818 -0.000000  0.272727     12.000000
  0.272727 -0.000000  0.272727     12.000000
  0.363636 -0.000000  0.272727     12.000000
  0.454545 -0.000000  0.272727     12.000000
  0.090909  0.090909  0.272727     12.000000
  0.181818  0.090909  0.272727     24.000000
  0.272727  0.090909  0.272727     24.000000
  0.363636  0.090909  0.272727     24.000000
  0.454545  0.090909  0.272727     12.000000
  0.181818  0.181818  0.272727     12.000000
  0.272727  0.181818  0.272727     24.000000
  0.363636  0.181818  0.272727     24.000000
  0.272727  0.272727  0.272727     12.000000
  0.363636  0.272727  0.272727     12.000000
  0.000000  0.000000  0.363636      2.000000
  0.090909 -0.000000  0.363636     12.000000
  0.181818 -0.000000  0.363636     12.000000
  0.272727 -0.000000  0.363636     12.000000
  0.363636 -0.000000  0.363636     12.000000
  0.454545 -0.000000  0.363636     12.000000
  0.090909  0.090909  0.363636     12.000000
  0.181818  0.090909  0.363636     24.000000
  0.272727  0.090909  0.363636     24.000000
  0.363636  0.090909  0.363636     24.000000
  0.454545  0.090909  0.363636     12.000000
  0.181818  0.181818  0.363636     12.000000
  0.272727  0.181818  0.363636     24.000000
  0.363636  0.181818  0.363636     24.000000
  0.272727  0.272727  0.363636     12.000000
  0.363636  0.272727  0.363636     12.000000
  0.000000  0.000000  0.454545      2.000000
  0.090909 -0.000000  0.454545     12.000000
  0.181818 -0.000000  0.454545     12.000000
  0.272727 -0.000000  0.454545     12.000000
  0.363636 -0.000000  0.454545     12.000000
  0.454545 -0.000000  0.454545     12.000000
  0.090909  0.090909  0.454545     12.000000
  0.181818  0.090909  0.454545     24.000000
  0.272727  0.090909  0.454545     24.000000
  0.363636  0.090909  0.454545     24.000000
  0.454545  0.090909  0.454545     12.000000
  0.181818  0.181818  0.454545     12.000000
  0.272727  0.181818  0.454545     24.000000
  0.363636  0.181818  0.454545     24.000000
  0.272727  0.272727  0.454545     12.000000
  0.363636  0.272727  0.454545     12.000000
 
 Following cartesian coordinates:
            Coordinates               Weight
  0.000000  0.000000  0.000000      1.000000
  0.037880  0.021870  0.000000      6.000000
  0.075761  0.043740  0.000000      6.000000
  0.113641  0.065611  0.000000      6.000000
  0.151521  0.087481  0.000000      6.000000
  0.189402  0.109351  0.000000      6.000000
  0.037880  0.065611  0.000000      6.000000
  0.075761  0.087481  0.000000     12.000000
  0.113641  0.109351  0.000000     12.000000
  0.151521  0.131221  0.000000     12.000000
  0.189402  0.153092  0.000000      6.000000
  0.075761  0.131221  0.000000      6.000000
  0.113641  0.153092  0.000000     12.000000
  0.151521  0.174962  0.000000     12.000000
  0.113641  0.196832  0.000000      6.000000
  0.151521  0.218702  0.000000      6.000000
  0.000000  0.000000  0.021966      2.000000
  0.037880  0.021870  0.021966     12.000000
  0.075761  0.043740  0.021966     12.000000
  0.113641  0.065611  0.021966     12.000000
  0.151521  0.087481  0.021966     12.000000
  0.189402  0.109351  0.021966     12.000000
  0.037880  0.065611  0.021966     12.000000
  0.075761  0.087481  0.021966     24.000000
  0.113641  0.109351  0.021966     24.000000
  0.151521  0.131221  0.021966     24.000000
  0.189402  0.153092  0.021966     12.000000
  0.075761  0.131221  0.021966     12.000000
  0.113641  0.153092  0.021966     24.000000
  0.151521  0.174962  0.021966     24.000000
  0.113641  0.196832  0.021966     12.000000
  0.151521  0.218702  0.021966     12.000000
  0.000000  0.000000  0.043933      2.000000
  0.037880  0.021870  0.043933     12.000000
  0.075761  0.043740  0.043933     12.000000
  0.113641  0.065611  0.043933     12.000000
  0.151521  0.087481  0.043933     12.000000
  0.189402  0.109351  0.043933     12.000000
  0.037880  0.065611  0.043933     12.000000
  0.075761  0.087481  0.043933     24.000000
  0.113641  0.109351  0.043933     24.000000
  0.151521  0.131221  0.043933     24.000000
  0.189402  0.153092  0.043933     12.000000
  0.075761  0.131221  0.043933     12.000000
  0.113641  0.153092  0.043933     24.000000
  0.151521  0.174962  0.043933     24.000000
  0.113641  0.196832  0.043933     12.000000
  0.151521  0.218702  0.043933     12.000000
  0.000000  0.000000  0.065899      2.000000
  0.037880  0.021870  0.065899     12.000000
  0.075761  0.043740  0.065899     12.000000
  0.113641  0.065611  0.065899     12.000000
  0.151521  0.087481  0.065899     12.000000
  0.189402  0.109351  0.065899     12.000000
  0.037880  0.065611  0.065899     12.000000
  0.075761  0.087481  0.065899     24.000000
  0.113641  0.109351  0.065899     24.000000
  0.151521  0.131221  0.065899     24.000000
  0.189402  0.153092  0.065899     12.000000
  0.075761  0.131221  0.065899     12.000000
  0.113641  0.153092  0.065899     24.000000
  0.151521  0.174962  0.065899     24.000000
  0.113641  0.196832  0.065899     12.000000
  0.151521  0.218702  0.065899     12.000000
  0.000000  0.000000  0.087866      2.000000
  0.037880  0.021870  0.087866     12.000000
  0.075761  0.043740  0.087866     12.000000
  0.113641  0.065611  0.087866     12.000000
  0.151521  0.087481  0.087866     12.000000
  0.189402  0.109351  0.087866     12.000000
  0.037880  0.065611  0.087866     12.000000
  0.075761  0.087481  0.087866     24.000000
  0.113641  0.109351  0.087866     24.000000
  0.151521  0.131221  0.087866     24.000000
  0.189402  0.153092  0.087866     12.000000
  0.075761  0.131221  0.087866     12.000000
  0.113641  0.153092  0.087866     24.000000
  0.151521  0.174962  0.087866     24.000000
  0.113641  0.196832  0.087866     12.000000
  0.151521  0.218702  0.087866     12.000000
  0.000000  0.000000  0.109832      2.000000
  0.037880  0.021870  0.109832     12.000000
  0.075761  0.043740  0.109832     12.000000
  0.113641  0.065611  0.109832     12.000000
  0.151521  0.087481  0.109832     12.000000
  0.189402  0.109351  0.109832     12.000000
  0.037880  0.065611  0.109832     12.000000
  0.075761  0.087481  0.109832     24.000000
  0.113641  0.109351  0.109832     24.000000
  0.151521  0.131221  0.109832     24.000000
  0.189402  0.153092  0.109832     12.000000
  0.075761  0.131221  0.109832     12.000000
  0.113641  0.153092  0.109832     24.000000
  0.151521  0.174962  0.109832     24.000000
  0.113641  0.196832  0.109832     12.000000
  0.151521  0.218702  0.109832     12.000000
 


--------------------------------------------------------------------------------------------------------




 Dimension of arrays:
   k-points           NKPTS =     96   k-points in BZ     NKDIM =     96   number of bands    NBANDS=     40
   number of dos      NEDOS =    301   number of ions     NIONS =      2
   non local maximal  LDIM  =      6   non local SUM 2l+1 LMDIM =     18
   total plane-waves  NPLWV =   1800
   max r-space proj   IRMAX =      1   max aug-charges    IRDMAX=   3305
   dimension x,y,z NGX =    10 NGY =   10 NGZ =   18
   dimension x,y,z NGXF=    20 NGYF=   20 NGZF=   36
   support grid    NGXF=    20 NGYF=   20 NGZF=   36
   ions per type =               2
   NGX,Y,Z   is equivalent  to a cutoff of   6.93,  6.93,  7.23 a.u.
   NGXF,Y,Z  is equivalent  to a cutoff of  13.85, 13.85, 14.46 a.u.

 SYSTEM =  unknown system                          
 POSCAR =  Fe                                      

 Startparameter for this run:
   NWRITE =      2    write-flag & timer
   PREC   = normal    normal or accurate (medium, high low for compatibility)
   ISTART =      0    job   : 0-new  1-cont  2-samecut
   ICHARG =      1    charge: 1-file 2-atom 10-const
   ISPIN  =      1    spin polarized calculation?
   LNONCOLLINEAR =      F non collinear calculations
   LSORBIT =      F    spin-orbit coupling
   INIWAV =      1    electr: 0-lowe 1-rand  2-diag
   LASPH  =      F    aspherical Exc in radial PAW
   METAGGA=      F    non-selfconsistent MetaGGA calc.

 Electronic Relaxation 1
   ENCUT  =  280.0 eV  20.58 Ry    4.54 a.u.   3.27  3.27  5.65*2*pi/ulx,y,z
   ENINI  =  280.0     initial cutoff
   ENAUG  =  511.4 eV  augmentation charge cutoff
   NELM   =     60;   NELMIN=  2; NELMDL= -5     # of ELM steps 
   EDIFF  = 0.1E-05   stopping-criterion for ELM
   LREAL  =      F    real-space projection
   NLSPLINE    = F    spline interpolate recip. space projectors
   LCOMPAT=      F    compatible to vasp.4.4
   GGA_COMPAT  = T    GGA compatible to vasp.4.4-vasp.4.6
   LMAXPAW     = -100 max onsite density
   LMAXMIX     =    2 max onsite mixed and CHGCAR
   VOSKOWN=      0    Vosko Wilk Nusair interpolation
   ROPT   =    0.00000
 Ionic relaxation
   EDIFFG = 0.1E-04   stopping-criterion for IOM
   NSW    =      0    number of steps for IOM
   NBLOCK =      1;   KBLOCK =      1    inner block; outer block 
   IBRION =     -1    ionic relax: 0-MD 1-quasi-New 2-CG
   NFREE  =      0    steps in history (QN), initial steepest desc. (CG)
   ISIF   =      2    stress and relaxation
   IWAVPR =      0    prediction:  0-non 1-charg 2-wave 3-comb
   ISYM   =      2    0-nonsym 1-usesym 2-fastsym
   LCORR  =      T    Harris-Foulkes like correction to forces

   POTIM  = 0.5000    time-step for ionic-motion
   TEIN   =    0.0    initial temperature
   TEBEG  =    0.0;   TEEND  =   0.0 temperature during run
   SMASS  =  -3.00    Nose mass-parameter (am)
   estimated Nose-frequenzy (Omega)   =  0.10E-29 period in steps = 0.13E+47 mass=  -0.132E-27a.u.
   SCALEE = 1.0000    scale energy and forces
   NPACO  =    256;   APACO  = 16.0  distance and # of slots for P.C.
   PSTRESS=    0.0 pullay stress

  Mass of Ions in am
   POMASS =  55.85
  Ionic Valenz
   ZVAL   =   8.00
  Atomic Wigner-Seitz radii
   RWIGS  =  -1.00
  virtual crystal weights 
   VCA    =   1.00
   NELECT =      16.0000    total number of electrons
   NUPDOWN=      -1.0000    fix difference up-down

 DOS related values:
   EMIN   =  10.00;   EMAX   =-10.00  energy-range for DOS
   EFERMI =   0.00
   ISMEAR =     1;   SIGMA  =   0.20  broadening in eV -4-tet -1-fermi 0-gaus

 Electronic relaxation 2 (details)
   IALGO  =     38    algorithm
   LDIAG  =      T    sub-space diagonalisation (order eigenvalues)
   LSUBROT=      F    optimize rotation matrix (better conditioning)
   TURBO    =      0    0=normal 1=particle mesh
   IRESTART =      0    0=no restart 2=restart with 2 vectors
   NREBOOT  =      0    no. of reboots
   NMIN     =      0    reboot dimension
   EREF     =   0.00    reference energy to select bands
   IMIX   =      4    mixing-type and parameters
     AMIX     =   0.40;   BMIX     =  1.00
     AMIX_MAG =   1.60;   BMIX_MAG =  1.00
     AMIN     =   0.10
     WC   =   100.;   INIMIX=   1;  MIXPRE=   1;  MAXMIX= -45

 Intra band minimization:
   WEIMIN = 0.0000     energy-eigenvalue tresh-hold
   EBREAK =  0.62E-08  absolut break condition
   DEPER  =   0.30     relativ break condition  

   TIME   =   0.40     timestep for ELM

  volume/ion in A,a.u.               =      10.32        69.65
  Fermi-wavevector in a.u.,A,eV,Ry     =   1.503812  2.841792 30.768891  2.261450
  Thomas-Fermi vector in A             =   2.614873
 
 Write flags
   LWAVE        =      T    write WAVECAR
   LDOWNSAMPLE  =      F    k-point downsampling of WAVECAR
   LCHARG       =      T    write CHGCAR
   LVTOT        =      F    write LOCPOT, total local potential
   LVHAR        =      F    write LOCPOT, Hartree potential only
   LELF         =      F    write electronic localiz. function (ELF)
   LORBIT       =      0    0 simple, 1 ext, 2 COOP (PROOUT), +10 PAW based schemes


 Dipole corrections
   LMONO  =      F    monopole corrections only (constant potential shift)
   LDIPOL =      F    correct potential (dipole corrections)
   IDIPOL =      0    1-x, 2-y, 3-z, 4-all directions 
   EPSILON=  1.0000000 bulk dielectric constant

 Exchange correlation treatment:
   GGA     =    PE    GGA type
   LEXCH   =     8    internal setting for exchange type
   VOSKOWN=      0    Vosko Wilk Nusair interpolation
   LHFCALC =     F    Hartree Fock is set to
   LHFONE  =     F    Hartree Fock one center treatment
   AEXX    =    0.0000 exact exchange contribution

 Linear response parameters
   LEPSILON=     F    determine dielectric tensor
   LRPA    =     F    only Hartree local field effects (RPA)
   LNABLA  =     F    use nabla operator in PAW spheres
   LVEL    =     F    velocity operator in full k-point grid
   LINTERFAST=   F  fast interpolation
   KINTER  =     0    interpolate to denser k-point grid
   CSHIFT  =0.1000    complex shift for real part using Kramers Kronig
   OMEGAMAX=  -1.0    maximum frequency
   DEG_THRESHOLD= 0.2000000E-02 threshold for treating states as degnerate
   RTIME   =   -0.100 relaxation time in fs
  (WPLASMAI=    0.000 imaginary part of plasma frequency in eV, 0.658/RTIME)
   DFIELD  = 0.0000000 0.0000000 0.0000000 field for delta impulse in time
 
 Orbital magnetization related:
   ORBITALMAG=     F  switch on orbital magnetization
   LCHIMAG   =     F  perturbation theory with respect to B field
   DQ        =  0.001000  dq finite difference perturbation B field
   LLRAUG    =     F  two centre corrections for induced B field



--------------------------------------------------------------------------------------------------------


 Static calculation
 charge density and potential will be updated during run
 non-spin polarized calculation
 Variant of blocked Davidson
 Davidson routine will perform the subspace rotation
 perform sub-space diagonalisation
    after iterative eigenvector-optimisation
 modified Broyden-mixing scheme, WC =      100.0
 initial mixing is a Kerker type mixing with AMIX =  0.4000 and BMIX =      1.0000
 Hartree-type preconditioning will be used
 using additional bands           32
 reciprocal scheme for non local part
 use partial core corrections
 calculate Harris-corrections to forces 
   (improved forces if not selfconsistent)
 use gradient corrections 
 use of overlap-Matrix (Vanderbilt PP)
 Methfessel and Paxton  Order N= 1 SIGMA  =   0.20


--------------------------------------------------------------------------------------------------------


  energy-cutoff  :      280.00
  volume of cell :       20.64
      direct lattice vectors                 reciprocal lattice vectors
     2.399900000  0.000000000  0.000000000     0.416684029  0.240572636  0.000000000
    -1.199950000  2.078374367  0.000000000     0.000000000  0.481145272  0.000000000
     0.000000000  0.000000000  4.138540000     0.000000000  0.000000000  0.241631107

  length of vectors
     2.399900000  2.399900000  4.138540000     0.481145272  0.481145272  0.241631107


 
 k-points in units of 2pi/SCALE and weight: KPOINTS created by Atomic Simulation Env
   0.00000000  0.00000000  0.00000000       0.001
   0.03788037  0.02187024  0.00000000       0.005
   0.07576073  0.04374048  0.00000000       0.005
   0.11364110  0.06561072  0.00000000       0.005
   0.15152146  0.08748096  0.00000000       0.005
   0.18940183  0.10935120  0.00000000       0.005
   0.03788037  0.06561072  0.00000000       0.005
   0.07576073  0.08748096  0.00000000       0.009
   0.11364110  0.10935120  0.00000000       0.009
   0.15152146  0.13122144  0.00000000       0.009
   0.18940183  0.15309168  0.00000000       0.005
   0.07576073  0.13122144  0.00000000       0.005
   0.11364110  0.15309168  0.00000000       0.009
   0.15152146  0.17496192  0.00000000       0.009
   0.11364110  0.19683216  0.00000000       0.005
   0.15152146  0.21870240  0.00000000       0.005
   0.00000000  0.00000000  0.02196646       0.002
   0.03788037  0.02187024  0.02196646       0.009
   0.07576073  0.04374048  0.02196646       0.009
   0.11364110  0.06561072  0.02196646       0.009
   0.15152146  0.08748096  0.02196646       0.009
   0.18940183  0.10935120  0.02196646       0.009
   0.03788037  0.06561072  0.02196646       0.009
   0.07576073  0.08748096  0.02196646       0.018
   0.11364110  0.10935120  0.02196646       0.018
   0.15152146  0.13122144  0.02196646       0.018
   0.18940183  0.15309168  0.02196646       0.009
   0.07576073  0.13122144  0.02196646       0.009
   0.11364110  0.15309168  0.02196646       0.018
   0.15152146  0.17496192  0.02196646       0.018
   0.11364110  0.19683216  0.02196646       0.009
   0.15152146  0.21870240  0.02196646       0.009
   0.00000000  0.00000000  0.04393293       0.002
   0.03788037  0.02187024  0.04393293       0.009
   0.07576073  0.04374048  0.04393293       0.009
   0.11364110  0.06561072  0.04393293       0.009
   0.15152146  0.08748096  0.04393293       0.009
   0.18940183  0.10935120  0.04393293       0.009
   0.03788037  0.06561072  0.04393293       0.009
   0.07576073  0.08748096  0.04393293       0.018
   0.11364110  0.10935120  0.04393293       0.018
   0.15152146  0.13122144  0.04393293       0.018
   0.18940183  0.15309168  0.04393293       0.009
   0.07576073  0.13122144  0.04393293       0.009
   0.11364110  0.15309168  0.04393293       0.018
   0.15152146  0.17496192  0.04393293       0.018
   0.11364110  0.19683216  0.04393293       0.009
   0.15152146  0.21870240  0.04393293       0.009
   0.00000000  0.00000000  0.06589939       0.002
   0.03788037  0.02187024  0.06589939       0.009
   0.07576073  0.04374048  0.06589939       0.009
   0.11364110  0.06561072  0.06589939       0.009
   0.15152146  0.08748096  0.06589939       0.009
   0.18940183  0.10935120  0.06589939       0.009
   0.03788037  0.06561072  0.06589939       0.009
   0.07576073  0.08748096  0.06589939       0.018
   0.11364110  0.10935120  0.06589939       0.018
   0.15152146  0.13122144  0.06589939       0.018
   0.18940183  0.15309168  0.06589939       0.009
   0.07576073  0.13122144  0.06589939       0.009
   0.11364110  0.15309168  0.06589939       0.018
   0.15152146  0.17496192  0.06589939       0.018
   0.11364110  0.19683216  0.06589939       0.009
   0.15152146  0.21870240  0.06589939       0.009
   0.00000000  0.00000000  0.08786586       0.002
   0.03788037  0.02187024  0.08786586       0.009
   0.07576073  0.04374048  0.08786586       0.009
   0.11364110  0.06561072  0.08786586       0.009
   0.15152146  0.08748096  0.08786586       0.009
   0.18940183  0.10935120  0.08786586       0.009
   0.03788037  0.06561072  0.08786586       0.009
   0.07576073  0.08748096  0.08786586       0.018
   0.11364110  0.10935120  0.08786586       0.018
   0.15152146  0.13122144  0.08786586       0.018
   0.18940183  0.15309168  0.08786586       0.009
   0.07576073  0.13122144  0.08786586       0.009
   0.11364110  0.15309168  0.08786586       0.018
   0.15152146  0.17496192  0.08786586       0.018
   0.11364110  0.19683216  0.08786586       0.009
   0.15152146  0.21870240  0.08786586       0.009
   0.00000000  0.00000000  0.10983232       0.002
   0.03788037  0.02187024  0.10983232       0.009
   0.07576073  0.04374048  0.10983232       0.009
   0.11364110  0.06561072  0.10983232       0.009
   0.15152146  0.08748096  0.10983232       0.009
   0.18940183  0.10935120  0.10983232       0.009
   0.03788037  0.06561072  0.10983232       0.009
   0.07576073  0.08748096  0.10983232       0.018
   0.11364110  0.10935120  0.10983232       0.018
   0.15152146  0.13122144  0.10983232       0.018
   0.18940183  0.15309168  0.10983232       0.009
   0.07576073  0.13122144  0.10983232       0.009
   0.11364110  0.15309168  0.10983232       0.018
   0.15152146  0.17496192  0.10983232       0.018
   0.11364110  0.19683216  0.10983232       0.009
   0.15152146  0.21870240  0.10983232       0.009
 
 k-points in reciprocal lattice and weights: KPOINTS created by Atomic Simulation Env
   0.00000000  0.00000000  0.00000000       0.001
   0.09090909 -0.00000000  0.00000000       0.005
   0.18181818 -0.00000000  0.00000000       0.005
   0.27272727 -0.00000000  0.00000000       0.005
   0.36363636 -0.00000000  0.00000000       0.005
   0.45454545 -0.00000000  0.00000000       0.005
   0.09090909  0.09090909  0.00000000       0.005
   0.18181818  0.09090909  0.00000000       0.009
   0.27272727  0.09090909  0.00000000       0.009
   0.36363636  0.09090909  0.00000000       0.009
   0.45454545  0.09090909  0.00000000       0.005
   0.18181818  0.18181818  0.00000000       0.005
   0.27272727  0.18181818  0.00000000       0.009
   0.36363636  0.18181818  0.00000000       0.009
   0.27272727  0.27272727  0.00000000       0.005
   0.36363636  0.27272727  0.00000000       0.005
   0.00000000  0.00000000  0.09090909       0.002
   0.09090909 -0.00000000  0.09090909       0.009
   0.18181818 -0.00000000  0.09090909       0.009
   0.27272727 -0.00000000  0.09090909       0.009
   0.36363636 -0.00000000  0.09090909       0.009
   0.45454545 -0.00000000  0.09090909       0.009
   0.09090909  0.09090909  0.09090909       0.009
   0.18181818  0.09090909  0.09090909       0.018
   0.27272727  0.09090909  0.09090909       0.018
   0.36363636  0.09090909  0.09090909       0.018
   0.45454545  0.09090909  0.09090909       0.009
   0.18181818  0.18181818  0.09090909       0.009
   0.27272727  0.18181818  0.09090909       0.018
   0.36363636  0.18181818  0.09090909       0.018
   0.27272727  0.27272727  0.09090909       0.009
   0.36363636  0.27272727  0.09090909       0.009
   0.00000000  0.00000000  0.18181818       0.002
   0.09090909 -0.00000000  0.18181818       0.009
   0.18181818 -0.00000000  0.18181818       0.009
   0.27272727 -0.00000000  0.18181818       0.009
   0.36363636 -0.00000000  0.18181818       0.009
   0.45454545 -0.00000000  0.18181818       0.009
   0.09090909  0.09090909  0.18181818       0.009
   0.18181818  0.09090909  0.18181818       0.018
   0.27272727  0.09090909  0.18181818       0.018
   0.36363636  0.09090909  0.18181818       0.018
   0.45454545  0.09090909  0.18181818       0.009
   0.18181818  0.18181818  0.18181818       0.009
   0.27272727  0.18181818  0.18181818       0.018
   0.36363636  0.18181818  0.18181818       0.018
   0.27272727  0.27272727  0.18181818       0.009
   0.36363636  0.27272727  0.18181818       0.009
   0.00000000  0.00000000  0.27272727       0.002
   0.09090909 -0.00000000  0.27272727       0.009
   0.18181818 -0.00000000  0.27272727       0.009
   0.27272727 -0.00000000  0.27272727       0.009
   0.36363636 -0.00000000  0.27272727       0.009
   0.45454545 -0.00000000  0.27272727       0.009
   0.09090909  0.09090909  0.27272727       0.009
   0.18181818  0.09090909  0.27272727       0.018
   0.27272727  0.09090909  0.27272727       0.018
   0.36363636  0.09090909  0.27272727       0.018
   0.45454545  0.09090909  0.27272727       0.009
   0.18181818  0.18181818  0.27272727       0.009
   0.27272727  0.18181818  0.27272727       0.018
   0.36363636  0.18181818  0.27272727       0.018
   0.27272727  0.27272727  0.27272727       0.009
   0.36363636  0.27272727  0.27272727       0.009
   0.00000000  0.00000000  0.36363636       0.002
   0.09090909 -0.00000000  0.36363636       0.009
   0.18181818 -0.00000000  0.36363636       0.009
   0.27272727 -0.00000000  0.36363636       0.009
   0.36363636 -0.00000000  0.36363636       0.009
   0.45454545 -0.00000000  0.36363636       0.009
   0.09090909  0.09090909  0.36363636       0.009
   0.18181818  0.09090909  0.36363636       0.018
   0.27272727  0.09090909  0.36363636       0.018
   0.36363636  0.09090909  0.36363636       0.018
   0.45454545  0.09090909  0.36363636       0.009
   0.18181818  0.18181818  0.36363636       0.009
   0.27272727  0.18181818  0.36363636       0.018
   0.36363636  0.18181818  0.36363636       0.018
   0.27272727  0.27272727  0.36363636       0.009
   0.36363636  0.27272727  0.36363636       0.009
   0.00000000  0.00000000  0.45454545       0.002
   0.09090909 -0.00000000  0.45454545       0.009
   0.18181818 -0.00000000  0.45454545       0.009
   0.27272727 -0.00000000  0.45454545       0.009
   0.36363636 -0.00000000  0.45454545       0.009
   0.45454545 -0.00000000  0.45454545       0.009
   0.09090909  0.09090909  0.45454545       0.009
   0.18181818  0.09090909  0.45454545       0.018
   0.27272727  0.09090909  0.45454545       0.018
   0.36363636  0.09090909  0.45454545       0.018
   0.45454545  0.09090909  0.45454545       0.009
   0.18181818  0.18181818  0.45454545       0.009
   0.27272727  0.18181818  0.45454545       0.018
   0.36363636  0.18181818  0.45454545       0.018
   0.27272727  0.27272727  0.45454545       0.009
   0.36363636  0.27272727  0.45454545       0.009
 
 position of ions in fractional coordinates (direct lattice) 
   0.00000000  0.00000000  0.00000000
   0.33333333  0.66666667  0.50000000
 
 position of ions in cartesian coordinates  (Angst):
   0.00000000  0.00000000  0.00000000
   0.00000000  1.38558291  2.06927000
 


--------------------------------------------------------------------------------------------------------


 k-point   1 :   0.0000 0.0000 0.0000  plane waves:     245
 k-point   2 :   0.0909-0.0000 0.0000  plane waves:     227
 k-point   3 :   0.1818-0.0000 0.0000  plane waves:     224
 k-point   4 :   0.2727-0.0000 0.0000  plane waves:     222
 k-point   5 :   0.3636-0.0000 0.0000  plane waves:     222
 k-point   6 :   0.4545-0.0000 0.0000  plane waves:     222
 k-point   7 :   0.0909 0.0909 0.0000  plane waves:     221
 k-point   8 :   0.1818 0.0909 0.0000  plane waves:     222
 k-point   9 :   0.2727 0.0909 0.0000  plane waves:     221
 k-point  10 :   0.3636 0.0909 0.0000  plane waves:     217
 k-point  11 :   0.4545 0.0909 0.0000  plane waves:     218
 k-point  12 :   0.1818 0.1818 0.0000  plane waves:     221
 k-point  13 :   0.2727 0.1818 0.0000  plane waves:     220
 k-point  14 :   0.3636 0.1818 0.0000  plane waves:     218
 k-point  15 :   0.2727 0.2727 0.0000  plane waves:     213
 k-point  16 :   0.3636 0.2727 0.0000  plane waves:     214
 k-point  17 :   0.0000 0.0000 0.0909  plane waves:     227
 k-point  18 :   0.0909-0.0000 0.0909  plane waves:     227
 k-point  19 :   0.1818-0.0000 0.0909  plane waves:     222
 k-point  20 :   0.2727-0.0000 0.0909  plane waves:     217
 k-point  21 :   0.3636-0.0000 0.0909  plane waves:     220
 k-point  22 :   0.4545-0.0000 0.0909  plane waves:     222
 k-point  23 :   0.0909 0.0909 0.0909  plane waves:     223
 k-point  24 :   0.1818 0.0909 0.0909  plane waves:     221
 k-point  25 :   0.2727 0.0909 0.0909  plane waves:     217
 k-point  26 :   0.3636 0.0909 0.0909  plane waves:     219
 k-point  27 :   0.4545 0.0909 0.0909  plane waves:     218
 k-point  28 :   0.1818 0.1818 0.0909  plane waves:     221
 k-point  29 :   0.2727 0.1818 0.0909  plane waves:     220
 k-point  30 :   0.3636 0.1818 0.0909  plane waves:     217
 k-point  31 :   0.2727 0.2727 0.0909  plane waves:     216
 k-point  32 :   0.3636 0.2727 0.0909  plane waves:     216
 k-point  33 :   0.0000 0.0000 0.1818  plane waves:     227
 k-point  34 :   0.0909-0.0000 0.1818  plane waves:     226
 k-point  35 :   0.1818-0.0000 0.1818  plane waves:     217
 k-point  36 :   0.2727-0.0000 0.1818  plane waves:     217
 k-point  37 :   0.3636-0.0000 0.1818  plane waves:     221
 k-point  38 :   0.4545-0.0000 0.1818  plane waves:     226
 k-point  39 :   0.0909 0.0909 0.1818  plane waves:     223
 k-point  40 :   0.1818 0.0909 0.1818  plane waves:     217
 k-point  41 :   0.2727 0.0909 0.1818  plane waves:     219
 k-point  42 :   0.3636 0.0909 0.1818  plane waves:     223
 k-point  43 :   0.4545 0.0909 0.1818  plane waves:     217
 k-point  44 :   0.1818 0.1818 0.1818  plane waves:     223
 k-point  45 :   0.2727 0.1818 0.1818  plane waves:     219
 k-point  46 :   0.3636 0.1818 0.1818  plane waves:     219
 k-point  47 :   0.2727 0.2727 0.1818  plane waves:     218
 k-point  48 :   0.3636 0.2727 0.1818  plane waves:     212
 k-point  49 :   0.0000 0.0000 0.2727  plane waves:     227
 k-point  50 :   0.0909-0.0000 0.2727  plane waves:     224
 k-point  51 :   0.1818-0.0000 0.2727  plane waves:     219
 k-point  52 :   0.2727-0.0000 0.2727  plane waves:     215
 k-point  53 :   0.3636-0.0000 0.2727  plane waves:     219
 k-point  54 :   0.4545-0.0000 0.2727  plane waves:     221
 k-point  55 :   0.0909 0.0909 0.2727  plane waves:     218
 k-point  56 :   0.1818 0.0909 0.2727  plane waves:     218
 k-point  57 :   0.2727 0.0909 0.2727  plane waves:     220
 k-point  58 :   0.3636 0.0909 0.2727  plane waves:     222
 k-point  59 :   0.4545 0.0909 0.2727  plane waves:     217
 k-point  60 :   0.1818 0.1818 0.2727  plane waves:     217
 k-point  61 :   0.2727 0.1818 0.2727  plane waves:     219
 k-point  62 :   0.3636 0.1818 0.2727  plane waves:     219
 k-point  63 :   0.2727 0.2727 0.2727  plane waves:     216
 k-point  64 :   0.3636 0.2727 0.2727  plane waves:     221
 k-point  65 :   0.0000 0.0000 0.3636  plane waves:     222
 k-point  66 :   0.0909-0.0000 0.3636  plane waves:     218
 k-point  67 :   0.1818-0.0000 0.3636  plane waves:     218
 k-point  68 :   0.2727-0.0000 0.3636  plane waves:     217
 k-point  69 :   0.3636-0.0000 0.3636  plane waves:     215
 k-point  70 :   0.4545-0.0000 0.3636  plane waves:     221
 k-point  71 :   0.0909 0.0909 0.3636  plane waves:     222
 k-point  72 :   0.1818 0.0909 0.3636  plane waves:     216
 k-point  73 :   0.2727 0.0909 0.3636  plane waves:     218
 k-point  74 :   0.3636 0.0909 0.3636  plane waves:     218
 k-point  75 :   0.4545 0.0909 0.3636  plane waves:     222
 k-point  76 :   0.1818 0.1818 0.3636  plane waves:     217
 k-point  77 :   0.2727 0.1818 0.3636  plane waves:     219
 k-point  78 :   0.3636 0.1818 0.3636  plane waves:     220
 k-point  79 :   0.2727 0.2727 0.3636  plane waves:     218
 k-point  80 :   0.3636 0.2727 0.3636  plane waves:     221
 k-point  81 :   0.0000 0.0000 0.4545  plane waves:     222
 k-point  82 :   0.0909-0.0000 0.4545  plane waves:     220
 k-point  83 :   0.1818-0.0000 0.4545  plane waves:     224
 k-point  84 :   0.2727-0.0000 0.4545  plane waves:     216
 k-point  85 :   0.3636-0.0000 0.4545  plane waves:     215
 k-point  86 :   0.4545-0.0000 0.4545  plane waves:     216
 k-point  87 :   0.0909 0.0909 0.4545  plane waves:     220
 k-point  88 :   0.1818 0.0909 0.4545  plane waves:     216
 k-point  89 :   0.2727 0.0909 0.4545  plane waves:     218
 k-point  90 :   0.3636 0.0909 0.4545  plane waves:     217
 k-point  91 :   0.4545 0.0909 0.4545  plane waves:     224
 k-point  92 :   0.1818 0.1818 0.4545  plane waves:     214
 k-point  93 :   0.2727 0.1818 0.4545  plane waves:     219
 k-point  94 :   0.3636 0.1818 0.4545  plane waves:     225
 k-point  95 :   0.2727 0.2727 0.4545  plane waves:     224
 k-point  96 :   0.3636 0.2727 0.4545  plane waves:     221

 maximum number of plane-waves:       245
 maximum index in each direction: 
   IXMAX=    3   IYMAX=    3   IZMAX=    5
   IXMIN=   -3   IYMIN=   -3   IZMIN=   -6


 total amount of memory used by VASP MPI-rank0    51501. kBytes
=======================================================================

   base      :      30000. kBytes
   nonl-proj :       3394. kBytes
   grid      :        812. kBytes
   one-center:         31. kBytes
   wavefun   :      17264. kBytes
 
     INWAV:  cpu time    0.0000: real time    0.0000
 Broyden mixing: mesh for mixing (old mesh)
   NGX =  7   NGY =  7   NGZ = 11
  (NGX  = 20   NGY  = 20   NGZ  = 36)
  gives a total of    539 points

 initial charge density was supplied:
 charge density of overlapping atoms calculated
 number of electron      16.0000000 magnetization 
 keeping initial charge density in first step


--------------------------------------------------------------------------------------------------------


 Maximum index for augmentation-charges         3006 (set IRDMAX)


--------------------------------------------------------------------------------------------------------


 First call to EWALD:  gamma=   0.646
 Maximum number of real-space cells 3x 3x 2
 Maximum number of reciprocal cells 2x 2x 4

    FEWALD:  cpu time    0.0008: real time    0.0008


--------------------------------------- Iteration      1(   1)  ---------------------------------------


    POTLOK:  cpu time    0.0036: real time    0.0036
    SETDIJ:  cpu time    0.0021: real time    0.0021
     EDDAV:  cpu time    0.8117: real time    0.8316
       DOS:  cpu time    0.0056: real time    0.0056
    --------------------------------------------
      LOOP:  cpu time    0.8229: real time    0.8428

 eigenvalue-minimisations  :  9248
 total energy-change (2. order) : 0.6131259E+02  (-0.2703872E+03)
 number of electron      16.0000000 magnetization 
 augmentation part       16.0000000 magnetization 

 Free energy of the ion-electron system (eV)
  ---------------------------------------------------
  alpha Z        PSCENC =       133.92465373
  Ewald energy   TEWEN  =     -1221.98250213
  -Hartree energ DENC   =      -209.10815750
  -exchange      EXHF   =         0.00000000
  -V(xc)+E(xc)   XCENC  =         8.40840547
  PAW double counting   =      1109.69170683    -1125.09647265
  entropy T*S    EENTRO =        -0.00237306
  eigenvalues    EBANDS =       176.90242535
  atomic energy  EATOM  =      1188.57490811
  Solvation  Ediel_sol  =         0.00000000
  ---------------------------------------------------
  free energy    TOTEN  =        61.31259415 eV

  energy without entropy =       61.31496721  energy(sigma->0) =       61.31338517


--------------------------------------------------------------------------------------------------------




--------------------------------------- Iteration      1(   2)  ---------------------------------------


     EDDAV:  cpu time    0.6897: real time    0.6898
       DOS:  cpu time    0.0062: real time    0.0062
    --------------------------------------------
      LOOP:  cpu time    0.6960: real time    0.6960

 eigenvalue-minimisations  :  7936
 total energy-change (2. order) :-0.7603063E+02  (-0.6455047E+02)
 number of electron      16.0000000 magnetization 
 augmentation part       16.0000000 magnetization 

 Free energy of the ion-electron system (eV)
  ---------------------------------------------------
  alpha Z        PSCENC =       133.92465373
  Ewald energy   TEWEN  =     -1221.98250213
  -Hartree energ DENC   =      -209.10815750
  -exchange      EXHF   =         0.00000000
  -V(xc)+E(xc)   XCENC  =         8.40840547
  PAW double counting   =      1109.69170683    -1125.09647265
  entropy T*S    EENTRO =         0.00166077
  eigenvalues    EBANDS =       100.86775722
  atomic energy  EATOM  =      1188.57490811
  Solvation  Ediel_sol  =         0.00000000
  ---------------------------------------------------
  free energy    TOTEN  =       -14.71804014 eV

  energy without entropy =      -14.71970091  energy(sigma->0) =      -14.71859373


--------------------------------------------------------------------------------------------------------




--------------------------------------- Iteration      1(   3)  ---------------------------------------


     EDDAV:  cpu time    0.7911: real time    0.7911
       DOS:  cpu time    0.0063: real time    0.0063
    --------------------------------------------
      LOOP:  cpu time    0.7975: real time    0.7975

 eigenvalue-minimisations  :  9488
 total energy-change (2. order) :-0.4592465E+01  (-0.4337096E+01)
 number of electron      16.0000000 magnetization 
 augmentation part       16.0000000 magnetization 

 Free energy of the ion-electron system (eV)
  ---------------------------------------------------
  alpha Z        PSCENC =       133.92465373
  Ewald energy   TEWEN  =     -1221.98250213
  -Hartree energ DENC   =      -209.10815750
  -exchange      EXHF   =         0.00000000
  -V(xc)+E(xc)   XCENC  =         8.40840547
  PAW double counting   =      1109.69170683    -1125.09647265
  entropy T*S    EENTRO =        -0.00007538
  eigenvalues    EBANDS =        96.27702817
  atomic energy  EATOM  =      1188.57490811
  Solvation  Ediel_sol  =         0.00000000
  ---------------------------------------------------
  free energy    TOTEN  =       -19.31050534 eV

  energy without entropy =      -19.31042996  energy(sigma->0) =      -19.31048022


--------------------------------------------------------------------------------------------------------




--------------------------------------- Iteration      1(   4)  ---------------------------------------


     EDDAV:  cpu time    0.7621: real time    0.7622
       DOS:  cpu time    0.0065: real time    0.0065
    --------------------------------------------
      LOOP:  cpu time    0.7686: real time    0.7686

 eigenvalue-minimisations  :  9168
 total energy-change (2. order) :-0.2250674E-01  (-0.2249250E-01)
 number of electron      16.0000000 magnetization 
 augmentation part       16.0000000 magnetization 

 Free energy of the ion-electron system (eV)
  ---------------------------------------------------
  alpha Z        PSCENC =       133.92465373
  Ewald energy   TEWEN  =     -1221.98250213
  -Hartree energ DENC   =      -209.10815750
  -exchange      EXHF   =         0.00000000
  -V(xc)+E(xc)   XCENC  =         8.40840547
  PAW double counting   =      1109.69170683    -1125.09647265
  entropy T*S    EENTRO =        -0.00011468
  eigenvalues    EBANDS =        96.25456073
  atomic energy  EATOM  =      1188.57490811
  Solvation  Ediel_sol  =         0.00000000
  ---------------------------------------------------
  free energy    TOTEN  =       -19.33301208 eV

  energy without entropy =      -19.33289740  energy(sigma->0) =      -19.33297385


--------------------------------------------------------------------------------------------------------




--------------------------------------- Iteration      1(   5)  ---------------------------------------


     EDDAV:  cpu time    0.7605: real time    0.7605
       DOS:  cpu time    0.0066: real time    0.0066
    CHARGE:  cpu time    0.0216: real time    0.0216
    MIXING:  cpu time    0.0002: real time    0.0002
    --------------------------------------------
      LOOP:  cpu time    0.7889: real time    0.7889

 eigenvalue-minimisations  :  9136
 total energy-change (2. order) :-0.2882742E-04  (-0.2882686E-04)
 number of electron      15.9999861 magnetization 
 augmentation part        7.0601025 magnetization 

 Broyden mixing:
  rms(total) = 0.16777E+01    rms(broyden)= 0.16777E+01
  rms(prec ) = 0.29325E+01
  weight for this iteration     100.00

 Free energy of the ion-electron system (eV)
  ---------------------------------------------------
  alpha Z        PSCENC =       133.92465373
  Ewald energy   TEWEN  =     -1221.98250213
  -Hartree energ DENC   =      -209.10815750
  -exchange      EXHF   =         0.00000000
  -V(xc)+E(xc)   XCENC  =         8.40840547
  PAW double counting   =      1109.69170683    -1125.09647265
  entropy T*S    EENTRO =        -0.00011473
  eigenvalues    EBANDS =        96.25453195
  atomic energy  EATOM  =      1188.57490811
  Solvation  Ediel_sol  =         0.00000000
  ---------------------------------------------------
  free energy    TOTEN  =       -19.33304091 eV

  energy without entropy =      -19.33292618  energy(sigma->0) =      -19.33300266


--------------------------------------------------------------------------------------------------------




--------------------------------------- Iteration      1(   6)  ---------------------------------------


    POTLOK:  cpu time    0.0033: real time    0.0033
    SETDIJ:  cpu time    0.0022: real time    0.0022
     EDDAV:  cpu time    0.9082: real time    0.9083
       DOS:  cpu time    0.0066: real time    0.0066
    CHARGE:  cpu time    0.0204: real time    0.0204
    MIXING:  cpu time    0.0002: real time    0.0002
    --------------------------------------------
      LOOP:  cpu time    0.9410: real time    0.9411

 eigenvalue-minimisations  : 11128
 total energy-change (2. order) : 0.2906114E+01  (-0.1850789E+00)
 number of electron      15.9999826 magnetization 
 augmentation part        8.5048980 magnetization 

 Broyden mixing:
  rms(total) = 0.26512E+00    rms(broyden)= 0.26502E+00
  rms(prec ) = 0.46682E+00
  weight for this iteration     100.00

 eigenvalues of (default mixing * dielectric matrix)
  average eigenvalue GAMMA=   0.9094
  0.9094

 Free energy of the ion-electron system (eV)
  ---------------------------------------------------
  alpha Z        PSCENC =       133.92465373
  Ewald energy   TEWEN  =     -1221.98250213
  -Hartree energ DENC   =      -174.10905709
  -exchange      EXHF   =         0.00000000
  -V(xc)+E(xc)   XCENC  =         6.69979265
  PAW double counting   =      1247.01078809    -1257.80145203
  entropy T*S    EENTRO =         0.00205280
  eigenvalues    EBANDS =        61.25388941
  atomic energy  EATOM  =      1188.57490811
  Solvation  Ediel_sol  =         0.00000000
  ---------------------------------------------------
  free energy    TOTEN  =       -16.42692644 eV

  energy without entropy =      -16.42897924  energy(sigma->0) =      -16.42761071


--------------------------------------------------------------------------------------------------------




--------------------------------------- Iteration      1(   7)  ---------------------------------------


    POTLOK:  cpu time    0.0034: real time    0.0034
    SETDIJ:  cpu time    0.0021: real time    0.0021
     EDDAV:  cpu time    0.8381: real time    0.8381
       DOS:  cpu time    0.0068: real time    0.0068
    CHARGE:  cpu time    0.0205: real time    0.0205
    MIXING:  cpu time    0.0002: real time    0.0002
    --------------------------------------------
      LOOP:  cpu time    0.8711: real time    0.8711

 eigenvalue-minimisations  : 10152
 total energy-change (2. order) : 0.2148884E+00  (-0.1365292E-01)
 number of electron      15.9999834 magnetization 
 augmentation part        8.1804864 magnetization 

 Broyden mixing:
  rms(total) = 0.10149E+00    rms(broyden)= 0.10149E+00
  rms(prec ) = 0.20259E+00
  weight for this iteration     100.00

 eigenvalues of (default mixing * dielectric matrix)
  average eigenvalue GAMMA=   0.9509
  1.1697  0.7320

 Free energy of the ion-electron system (eV)
  ---------------------------------------------------
  alpha Z        PSCENC =       133.92465373
  Ewald energy   TEWEN  =     -1221.98250213
  -Hartree energ DENC   =      -178.76025981
  -exchange      EXHF   =         0.00000000
  -V(xc)+E(xc)   XCENC  =         6.95826031
  PAW double counting   =      1321.90882459    -1336.29358268
  entropy T*S    EENTRO =         0.00200948
  eigenvalues    EBANDS =        69.45565038
  atomic energy  EATOM  =      1188.57490811
  Solvation  Ediel_sol  =         0.00000000
  ---------------------------------------------------
  free energy    TOTEN  =       -16.21203800 eV

  energy without entropy =      -16.21404748  energy(sigma->0) =      -16.21270783


--------------------------------------------------------------------------------------------------------




--------------------------------------- Iteration      1(   8)  ---------------------------------------


    POTLOK:  cpu time    0.0033: real time    0.0033
    SETDIJ:  cpu time    0.0021: real time    0.0021
     EDDAV:  cpu time    0.8253: real time    0.8254
       DOS:  cpu time    0.0067: real time    0.0067
    CHARGE:  cpu time    0.0204: real time    0.0204
    MIXING:  cpu time    0.0002: real time    0.0002
    --------------------------------------------
      LOOP:  cpu time    0.8581: real time    0.8581

 eigenvalue-minimisations  : 10056
 total energy-change (2. order) : 0.2576105E-01  (-0.3698816E-03)
 number of electron      15.9999833 magnetization 
 augmentation part        8.2101461 magnetization 

 Broyden mixing:
  rms(total) = 0.48183E-01    rms(broyden)= 0.48182E-01
  rms(prec ) = 0.94955E-01
  weight for this iteration     100.00

 eigenvalues of (default mixing * dielectric matrix)
  average eigenvalue GAMMA=   1.4501
  0.7808  1.0412  2.5284

 Free energy of the ion-electron system (eV)
  ---------------------------------------------------
  alpha Z        PSCENC =       133.92465373
  Ewald energy   TEWEN  =     -1221.98250213
  -Hartree energ DENC   =      -176.75119604
  -exchange      EXHF   =         0.00000000
  -V(xc)+E(xc)   XCENC  =         6.87877720
  PAW double counting   =      1378.14273710    -1393.78949407
  entropy T*S    EENTRO =         0.00205838
  eigenvalues    EBANDS =        68.81378075
  atomic energy  EATOM  =      1188.57490811
  Solvation  Ediel_sol  =         0.00000000
  ---------------------------------------------------
  free energy    TOTEN  =       -16.18627695 eV

  energy without entropy =      -16.18833533  energy(sigma->0) =      -16.18696308


--------------------------------------------------------------------------------------------------------




--------------------------------------- Iteration      1(   9)  ---------------------------------------


    POTLOK:  cpu time    0.0033: real time    0.0033
    SETDIJ:  cpu time    0.0021: real time    0.0021
     EDDAV:  cpu time    0.9095: real time    0.9095
       DOS:  cpu time    0.0067: real time    0.0067
    CHARGE:  cpu time    0.0205: real time    0.0205
    MIXING:  cpu time    0.0002: real time    0.0002
    --------------------------------------------
      LOOP:  cpu time    0.9422: real time    0.9423

 eigenvalue-minimisations  : 11200
 total energy-change (2. order) : 0.1123414E-01  (-0.9358908E-04)
 number of electron      15.9999832 magnetization 
 augmentation part        8.2267084 magnetization 

 Broyden mixing:
  rms(total) = 0.59891E-02    rms(broyden)= 0.59872E-02
  rms(prec ) = 0.64908E-02
  weight for this iteration     100.00

 eigenvalues of (default mixing * dielectric matrix)
  average eigenvalue GAMMA=   1.5357
  2.5619  0.7799  1.0024  1.7987

 Free energy of the ion-electron system (eV)
  ---------------------------------------------------
  alpha Z        PSCENC =       133.92465373
  Ewald energy   TEWEN  =     -1221.98250213
  -Hartree energ DENC   =      -174.60628868
  -exchange      EXHF   =         0.00000000
  -V(xc)+E(xc)   XCENC  =         6.80079991
  PAW double counting   =      1456.90587915    -1474.31804606
  entropy T*S    EENTRO =         0.00205287
  eigenvalues    EBANDS =        68.52350027
  atomic energy  EATOM  =      1188.57490811
  Solvation  Ediel_sol  =         0.00000000
  ---------------------------------------------------
  free energy    TOTEN  =       -16.17504281 eV

  energy without entropy =      -16.17709569  energy(sigma->0) =      -16.17572711


--------------------------------------------------------------------------------------------------------




--------------------------------------- Iteration      1(  10)  ---------------------------------------


    POTLOK:  cpu time    0.0034: real time    0.0034
    SETDIJ:  cpu time    0.0021: real time    0.0021
     EDDAV:  cpu time    0.7430: real time    0.7430
       DOS:  cpu time    0.0068: real time    0.0068
    CHARGE:  cpu time    0.0205: real time    0.0205
    MIXING:  cpu time    0.0002: real time    0.0002
    --------------------------------------------
      LOOP:  cpu time    0.7761: real time    0.7785

 eigenvalue-minimisations  :  8896
 total energy-change (2. order) :-0.2586121E-04  (-0.3810386E-05)
 number of electron      15.9999832 magnetization 
 augmentation part        8.2270134 magnetization 

 Broyden mixing:
  rms(total) = 0.24498E-02    rms(broyden)= 0.24490E-02
  rms(prec ) = 0.30890E-02
  weight for this iteration     100.00

 eigenvalues of (default mixing * dielectric matrix)
  average eigenvalue GAMMA=   1.6163
  2.5492  2.5492  0.7799  1.0089  1.1941

 Free energy of the ion-electron system (eV)
  ---------------------------------------------------
  alpha Z        PSCENC =       133.92465373
  Ewald energy   TEWEN  =     -1221.98250213
  -Hartree energ DENC   =      -174.62916427
  -exchange      EXHF   =         0.00000000
  -V(xc)+E(xc)   XCENC  =         6.80278296
  PAW double counting   =      1458.90994018    -1476.28791416
  entropy T*S    EENTRO =         0.00204734
  eigenvalues    EBANDS =        68.51017956
  atomic energy  EATOM  =      1188.57490811
  Solvation  Ediel_sol  =         0.00000000
  ---------------------------------------------------
  free energy    TOTEN  =       -16.17506867 eV

  energy without entropy =      -16.17711602  energy(sigma->0) =      -16.17575112


--------------------------------------------------------------------------------------------------------




--------------------------------------- Iteration      1(  11)  ---------------------------------------


    POTLOK:  cpu time    0.0034: real time    0.0058
    SETDIJ:  cpu time    0.0021: real time    0.0021
     EDDAV:  cpu time    0.7552: real time    0.7553
       DOS:  cpu time    0.0066: real time    0.0066
    CHARGE:  cpu time    0.0206: real time    0.0206
    MIXING:  cpu time    0.0002: real time    0.0002
    --------------------------------------------
      LOOP:  cpu time    0.7881: real time    0.7882

 eigenvalue-minimisations  :  8888
 total energy-change (2. order) : 0.6336016E-05  (-0.3225119E-07)
 number of electron      15.9999832 magnetization 
 augmentation part        8.2267220 magnetization 

 Broyden mixing:
  rms(total) = 0.16102E-03    rms(broyden)= 0.16071E-03
  rms(prec ) = 0.19394E-03
  weight for this iteration     100.00

 eigenvalues of (default mixing * dielectric matrix)
  average eigenvalue GAMMA=   1.5461
  2.5705  2.5705  0.7797  1.0055  1.0055  1.3447

 Free energy of the ion-electron system (eV)
  ---------------------------------------------------
  alpha Z        PSCENC =       133.92465373
  Ewald energy   TEWEN  =     -1221.98250213
  -Hartree energ DENC   =      -174.68419755
  -exchange      EXHF   =         0.00000000
  -V(xc)+E(xc)   XCENC  =         6.80548923
  PAW double counting   =      1458.84680822    -1476.17408345
  entropy T*S    EENTRO =         0.00204723
  eigenvalues    EBANDS =        68.51181425
  atomic energy  EATOM  =      1188.57490811
  Solvation  Ediel_sol  =         0.00000000
  ---------------------------------------------------
  free energy    TOTEN  =       -16.17506234 eV

  energy without entropy =      -16.17710957  energy(sigma->0) =      -16.17574475


--------------------------------------------------------------------------------------------------------




--------------------------------------- Iteration      1(  12)  ---------------------------------------


    POTLOK:  cpu time    0.0034: real time    0.0034
    SETDIJ:  cpu time    0.0022: real time    0.0022
     EDDAV:  cpu time    0.6217: real time    0.6218
       DOS:  cpu time    0.0062: real time    0.0062
    --------------------------------------------
      LOOP:  cpu time    0.6335: real time    0.6336

 eigenvalue-minimisations  :  5952
 total energy-change (2. order) : 0.3850801E-06  (-0.5045979E-08)
 number of electron      15.9999832 magnetization 
 augmentation part        8.2267220 magnetization 

 Free energy of the ion-electron system (eV)
  ---------------------------------------------------
  alpha Z        PSCENC =       133.92465373
  Ewald energy   TEWEN  =     -1221.98250213
  -Hartree energ DENC   =      -174.68686503
  -exchange      EXHF   =         0.00000000
  -V(xc)+E(xc)   XCENC  =         6.80563046
  PAW double counting   =      1458.94383341    -1476.26791140
  entropy T*S    EENTRO =         0.00204760
  eigenvalues    EBANDS =        68.51114330
  atomic energy  EATOM  =      1188.57490811
  Solvation  Ediel_sol  =         0.00000000
  ---------------------------------------------------
  free energy    TOTEN  =       -16.17506195 eV

  energy without entropy =      -16.17710955  energy(sigma->0) =      -16.17574449


--------------------------------------------------------------------------------------------------------




 average (electrostatic) potential at core
  the test charge radii are     1.0103
  (the norm of the test charge is              1.0000)
       1 -42.7723       2 -42.7722
 
 
 
 E-fermi :   6.7327     XC(G=0): -13.7175     alpha+bet :-15.0180

 Fermi energy:         6.7326791336

 k-point     1 :       0.0000    0.0000    0.0000
  band No.  band energies     occupation 
      1      -2.0767      2.00000
      2       1.8397      2.00000
      3       4.7202      2.00000
      4       5.1955      2.00000
      5       5.1956      2.00000
      6       5.5233      2.00000
      7       5.5234      2.00000
      8       6.2791      2.00613
      9       6.3344      2.01644
     10       6.3344      2.01645
     11       7.4593     -0.00000
     12       7.4593     -0.00000
     13      14.1819      0.00000
     14      29.7533      0.00000
     15      30.7280      0.00000
     16      32.8215      0.00000
     17      34.5900      0.00000
     18      34.5900      0.00000
     19      35.4188      0.00000
     20      35.4190      0.00000
     21      37.2812      0.00000
     22      38.5761      0.00000
     23      38.5761      0.00000
     24      39.6457      0.00000
     25      42.1388      0.00000
     26      42.1388      0.00000
     27      43.0455      0.00000
     28      45.6167      0.00000
     29      45.6171      0.00000
     30      47.4154      0.00000
     31      47.4156      0.00000
     32      50.1518      0.00000
     33      58.2122      0.00000
     34      61.2505      0.00000
     35      61.2519      0.00000
     36      61.7480      0.00000
     37      62.5973      0.00000
     38      63.3609      0.00000
     39      63.3620      0.00000
     40      64.3114      0.00000

 k-point     2 :       0.0909   -0.0000    0.0000
  band No.  band energies     occupation 
      1      -1.7549      2.00000
      2       2.0732      2.00000
      3       4.6784      2.00000
      4       5.1867      2.00000
      5       5.3588      2.00000
      6       5.3800      2.00000
      7       5.4212      2.00000
      8       5.6926      2.00000
      9       6.2152      2.00155
     10       6.2258      2.00198
     11       7.4985     -0.00000
     12       8.6378     -0.00000
     13      14.2078      0.00000
     14      28.3999      0.00000
     15      30.9738      0.00000
     16      31.0213      0.00000
     17      31.8939      0.00000
     18      34.4639      0.00000
     19      34.6914      0.00000
     20      37.0704      0.00000
     21      38.0128      0.00000
     22      38.3225      0.00000
     23      39.0119      0.00000
     24      39.0663      0.00000
     25      43.0607      0.00000
     26      43.3074      0.00000
     27      43.3277      0.00000
     28      43.7198      0.00000
     29      47.1737      0.00000
     30      48.8912      0.00000
     31      49.8886      0.00000
     32      52.0826      0.00000
     33      57.6499      0.00000
     34      60.0345      0.00000
     35      60.1390      0.00000
     36      60.6178      0.00000
     37      61.3286      0.00000
     38      64.2805      0.00000
     39      64.4155      0.00000
     40      65.3592      0.00000

 k-point     3 :       0.1818   -0.0000    0.0000
  band No.  band energies     occupation 
      1      -0.8412      2.00000
      2       2.6262      2.00000
      3       4.2837      2.00000
      4       4.4231      2.00000
      5       5.0392      2.00000
      6       5.5909      2.00000
      7       5.8928      2.00000
      8       5.9075      2.00000
      9       5.9666      2.00000
     10       6.1613      2.00041
     11       7.5611     -0.00000
     12      10.4657     -0.00000
     13      14.3086      0.00000
     14      24.6202      0.00000
     15      29.1231      0.00000
     16      29.7683      0.00000
     17      30.3869      0.00000
     18      31.8134      0.00000
     19      35.0374      0.00000
     20      36.3912      0.00000
     21      36.8605      0.00000
     22      37.1439      0.00000
     23      39.4723      0.00000
     24      40.5848      0.00000
     25      42.8569      0.00000
     26      44.1791      0.00000
     27      45.8816      0.00000
     28      48.1011      0.00000
     29      49.8483      0.00000
     30      52.5056      0.00000
     31      52.8107      0.00000
     32      55.6044      0.00000
     33      56.2189      0.00000
     34      56.9946      0.00000
     35      58.3011      0.00000
     36      60.0520      0.00000
     37      61.1677      0.00000
     38      64.0329      0.00000
     39      65.6119      0.00000
     40      66.6304      0.00000

 k-point     4 :       0.2727   -0.0000    0.0000
  band No.  band energies     occupation 
      1       0.4704      2.00000
      2       2.9213      2.00000
      3       3.4605      2.00000
      4       4.3263      2.00000
      5       4.8768      2.00000
      6       5.5173      2.00000
      7       5.6722      2.00000
      8       6.2975      2.00870
      9       6.6219      1.79628
     10       6.8165      0.35487
     11       7.6033     -0.00000
     12      12.5187      0.00000
     13      14.5286      0.00000
     14      20.6828      0.00000
     15      26.7581      0.00000
     16      26.7963      0.00000
     17      28.1663      0.00000
     18      31.4583      0.00000
     19      33.0879      0.00000
     20      36.4877      0.00000
     21      36.9595      0.00000
     22      37.1500      0.00000
     23      37.2006      0.00000
     24      41.1631      0.00000
     25      46.4167      0.00000
     26      48.1747      0.00000
     27      49.2838      0.00000
     28      50.7513      0.00000
     29      52.0780      0.00000
     30      52.9590      0.00000
     31      54.4684      0.00000
     32      55.6066      0.00000
     33      57.8714      0.00000
     34      58.3946      0.00000
     35      58.7677      0.00000
     36      59.9347      0.00000
     37      62.2717      0.00000
     38      63.7105      0.00000
     39      65.7217      0.00000
     40      66.2462      0.00000

 k-point     5 :       0.3636   -0.0000    0.0000
  band No.  band energies     occupation 
      1       1.6947      2.00000
      2       2.6893      2.00000
      3       2.9156      2.00000
      4       4.5026      2.00000
      5       5.1708      2.00000
      6       5.1976      2.00000
      7       5.4277      2.00000
      8       7.3505     -0.00011
      9       7.4433     -0.00001
     10       7.4760     -0.00000
     11       7.6195     -0.00000
     12      14.3548      0.00000
     13      14.7174      0.00000
     14      17.9222      0.00000
     15      23.5834      0.00000
     16      24.9515      0.00000
     17      25.4100      0.00000
     18      30.5110      0.00000
     19      31.9583      0.00000
     20      35.1759      0.00000
     21      36.0675      0.00000
     22      38.0588      0.00000
     23      39.0223      0.00000
     24      41.6355      0.00000
     25      49.0892      0.00000
     26      49.8359      0.00000
     27      50.0485      0.00000
     28      53.3223      0.00000
     29      53.4274      0.00000
     30      54.3757      0.00000
     31      56.6025      0.00000
     32      57.3504      0.00000
     33      57.6467      0.00000
     34      59.2385      0.00000
     35      61.0272      0.00000
     36      62.7930      0.00000
     37      63.2786      0.00000
     38      64.3644      0.00000
     39      65.6740      0.00000
     40      66.0353      0.00000

 k-point     6 :       0.4545   -0.0000    0.0000
  band No.  band energies     occupation 
      1       2.2437      2.00000
      2       2.4515      2.00000
      3       2.6464      2.00000
      4       4.9679      2.00000
      5       4.9828      2.00000
      6       5.2914      2.00000
      7       5.4297      2.00000
      8       7.6225     -0.00000
      9       7.7971     -0.00000
     10       7.9235     -0.00000
     11       9.0376     -0.00000
     12      12.3879      0.00000
     13      16.8025      0.00000
     14      18.0395      0.00000
     15      21.0097      0.00000
     16      22.7982      0.00000
     17      23.9452      0.00000
     18      29.8863      0.00000
     19      31.6156      0.00000
     20      34.0891      0.00000
     21      35.8703      0.00000
     22      38.7871      0.00000
     23      41.2460      0.00000
     24      41.8098      0.00000
     25      45.7338      0.00000
     26      50.3106      0.00000
     27      51.9033      0.00000
     28      55.6551      0.00000
     29      56.4483      0.00000
     30      56.4565      0.00000
     31      57.6289      0.00000
     32      59.3168      0.00000
     33      59.5471      0.00000
     34      61.0968      0.00000
     35      61.3135      0.00000
     36      61.9811      0.00000
     37      64.2683      0.00000
     38      64.8145      0.00000
     39      64.8413      0.00000
     40      65.6418      0.00000

 k-point     7 :       0.0909    0.0909    0.0000
  band No.  band energies     occupation 
      1      -1.1349      2.00000
      2       2.4824      2.00000
      3       4.4724      2.00000
      4       4.5651      2.00000
      5       5.2214      2.00000
      6       5.3097      2.00000
      7       5.7552      2.00000
      8       5.8388      2.00000
      9       6.0591      2.00002
     10       6.2105      2.00139
     11       7.5220     -0.00000
     12       9.9574     -0.00000
     13      14.2744      0.00000
     14      26.3550      0.00000
     15      27.5381      0.00000
     16      31.3447      0.00000
     17      31.9829      0.00000
     18      33.0775      0.00000
     19      33.4954      0.00000
     20      35.3272      0.00000
     21      36.5722      0.00000
     22      40.0412      0.00000
     23      40.6889      0.00000
     24      41.2313      0.00000
     25      42.2407      0.00000
     26      42.2843      0.00000
     27      42.3776      0.00000
     28      48.6067      0.00000
     29      50.6729      0.00000
     30      50.7657      0.00000
     31      50.8415      0.00000
     32      54.9684      0.00000
     33      56.7678      0.00000
     34      57.9090      0.00000
     35      58.5037      0.00000
     36      60.0208      0.00000
     37      60.8851      0.00000
     38      64.4977      0.00000
     39      65.6443      0.00000
     40      66.8724      0.00000

 k-point     8 :       0.1818    0.0909    0.0000
  band No.  band energies     occupation 
      1      -0.0008      2.00000
      2       3.0131      2.00000
      3       3.7589      2.00000
      4       4.1441      2.00000
      5       4.9631      2.00000
      6       5.4454      2.00000
      7       5.7229      2.00000
      8       5.9765      2.00000
      9       6.4244      2.05156
     10       6.7345      0.98483
     11       7.5345     -0.00000
     12      11.7959     -0.00000
     13      14.4778      0.00000
     14      22.6865      0.00000
     15      25.2122      0.00000
     16      28.5914      0.00000
     17      30.8222      0.00000
     18      30.9106      0.00000
     19      33.9969      0.00000
     20      34.9368      0.00000
     21      35.3274      0.00000
     22      39.8689      0.00000
     23      40.1003      0.00000
     24      40.7324      0.00000
     25      43.9307      0.00000
     26      44.9996      0.00000
     27      46.7214      0.00000
     28      50.8979      0.00000
     29      53.0556      0.00000
     30      53.6981      0.00000
     31      53.9637      0.00000
     32      56.0610      0.00000
     33      56.9708      0.00000
     34      57.1462      0.00000
     35      58.4023      0.00000
     36      58.4722      0.00000
     37      61.5799      0.00000
     38      64.6209      0.00000
     39      65.8302      0.00000
     40      66.8972      0.00000

 k-point     9 :       0.2727    0.0909    0.0000
  band No.  band energies     occupation 
      1       1.3458      2.00000
      2       2.9939      2.00000
      3       3.1551      2.00000
      4       4.1841      2.00000
      5       5.0189      2.00000
      6       5.1347      2.00000
      7       5.6301      2.00000
      8       6.4326      2.05526
      9       7.1611     -0.00984
     10       7.5391     -0.00000
     11       7.6169     -0.00000
     12      13.8929      0.00000
     13      14.7882      0.00000
     14      19.0833      0.00000
     15      23.5403      0.00000
     16      25.2707      0.00000
     17      27.6623      0.00000
     18      29.6098      0.00000
     19      33.2243      0.00000
     20      34.2738      0.00000
     21      36.3120      0.00000
     22      39.6544      0.00000
     23      39.7506      0.00000
     24      42.2462      0.00000
     25      45.8649      0.00000
     26      48.6996      0.00000
     27      50.3181      0.00000
     28      51.1360      0.00000
     29      51.8336      0.00000
     30      54.6286      0.00000
     31      56.2479      0.00000
     32      56.9840      0.00000
     33      57.8669      0.00000
     34      58.6122      0.00000
     35      60.3646      0.00000
     36      62.2331      0.00000
     37      63.1209      0.00000
     38      64.3629      0.00000
     39      64.9254      0.00000
     40      66.8514      0.00000

 k-point    10 :       0.3636    0.0909    0.0000
  band No.  band energies     occupation 
      1       2.2595      2.00000
      2       2.7011      2.00000
      3       2.7937      2.00000
      4       4.5495      2.00000
      5       4.9656      2.00000
      6       5.3136      2.00000
      7       5.3491      2.00000
      8       7.2757     -0.00084
      9       7.5344     -0.00000
     10       7.6794     -0.00000
     11       8.7655     -0.00000
     12      13.8010      0.00000
     13      16.1073      0.00000
     14      17.8011      0.00000
     15      22.2530      0.00000
     16      22.3384      0.00000
     17      24.4999      0.00000
     18      28.7337      0.00000
     19      32.2630      0.00000
     20      33.7415      0.00000
     21      37.1897      0.00000
     22      40.1070      0.00000
     23      41.0342      0.00000
     24      42.1661      0.00000
     25      47.6729      0.00000
     26      48.6726      0.00000
     27      50.7489      0.00000
     28      52.4744      0.00000
     29      53.7998      0.00000
     30      56.3160      0.00000
     31      56.6518      0.00000
     32      58.4579      0.00000
     33      59.5959      0.00000
     34      61.6067      0.00000
     35      61.7594      0.00000
     36      62.9616      0.00000
     37      63.5911      0.00000
     38      64.5539      0.00000
     39      65.8258      0.00000
     40      65.9959      0.00000

 k-point    11 :       0.4545    0.0909    0.0000
  band No.  band energies     occupation 
      1       2.4722      2.00000
      2       2.5791      2.00000
      3       2.6741      2.00000
      4       4.8859      2.00000
      5       4.9300      2.00000
      6       5.1696      2.00000
      7       5.4677      2.00000
      8       7.5311     -0.00000
      9       7.7510     -0.00000
     10       7.7668     -0.00000
     11       9.9626     -0.00000
     12      12.0543     -0.00000
     13      17.6108      0.00000
     14      18.4872      0.00000
     15      20.5898      0.00000
     16      21.4921      0.00000
     17      23.0326      0.00000
     18      28.4247      0.00000
     19      31.8769      0.00000
[...]
     18      26.8295      0.00000
     19      31.8012      0.00000
     20      32.5416      0.00000
     21      35.7174      0.00000
     22      36.4361      0.00000
     23      41.2291      0.00000
     24      42.4434      0.00000
     25      48.0882      0.00000
     26      49.8563      0.00000
     27      51.6036      0.00000
     28      52.3753      0.00000
     29      55.6132      0.00000
     30      57.3309      0.00000
     31      58.4461      0.00000
     32      58.8135      0.00000
     33      61.0842      0.00000
     34      61.3600      0.00000
     35      62.1001      0.00000
     36      62.2683      0.00000
     37      63.8933      0.00000
     38      64.4268      0.00000
     39      65.5285      0.00000
     40      66.1222      0.00000

 k-point    91 :       0.4545    0.0909    0.4545
  band No.  band energies     occupation 
      1       2.1355      2.00000
      2       2.2811      2.00000
      3       3.5114      2.00000
      4       3.6182      2.00000
      5       5.6747      2.00000
      6       6.0791      2.00004
      7       6.6940      1.32066
      8       6.9826     -0.07073
      9       7.6480     -0.00000
     10       7.6509     -0.00000
     11       9.8983     -0.00000
     12      10.3848     -0.00000
     13      16.1390      0.00000
     14      16.1658      0.00000
     15      24.2337      0.00000
     16      25.0385      0.00000
     17      26.3712      0.00000
     18      26.8821      0.00000
     19      31.5167      0.00000
     20      31.7234      0.00000
     21      35.1022      0.00000
     22      35.3505      0.00000
     23      41.3101      0.00000
     24      42.5513      0.00000
     25      48.2182      0.00000
     26      50.0192      0.00000
     27      54.8740      0.00000
     28      55.7011      0.00000
     29      56.0117      0.00000
     30      56.6347      0.00000
     31      57.2087      0.00000
     32      58.2050      0.00000
     33      62.1232      0.00000
     34      62.2806      0.00000
     35      63.0088      0.00000
     36      63.3682      0.00000
     37      63.8680      0.00000
     38      63.9275      0.00000
     39      66.4410      0.00000
     40      66.5456      0.00000

 k-point    92 :       0.1818    0.1818    0.4545
  band No.  band energies     occupation 
      1       2.1100      2.00000
      2       2.4041      2.00000
      3       4.0100      2.00000
      4       4.0843      2.00000
      5       4.5292      2.00000
      6       4.5965      2.00000
      7       6.0114      2.00000
      8       6.2491      2.00332
      9       7.4526     -0.00000
     10       7.5546     -0.00000
     11       8.0304     -0.00000
     12       8.5715     -0.00000
     13      22.2791      0.00000
     14      22.5212      0.00000
     15      22.8673      0.00000
     16      23.8801      0.00000
     17      24.4078      0.00000
     18      25.7898      0.00000
     19      35.8496      0.00000
     20      36.8740      0.00000
     21      37.4652      0.00000
     22      38.4950      0.00000
     23      40.0374      0.00000
     24      40.1414      0.00000
     25      46.0628      0.00000
     26      46.4901      0.00000
     27      50.8143      0.00000
     28      51.2834      0.00000
     29      53.0296      0.00000
     30      54.4292      0.00000
     31      55.8519      0.00000
     32      56.3603      0.00000
     33      58.4628      0.00000
     34      58.5035      0.00000
     35      60.4555      0.00000
     36      60.7759      0.00000
     37      63.6831      0.00000
     38      64.6725      0.00000
     39      65.5783      0.00000
     40      65.9520      0.00000

 k-point    93 :       0.2727    0.1818    0.4545
  band No.  band energies     occupation 
      1       2.5161      2.00000
      2       2.6310      2.00000
      3       3.8509      2.00000
      4       4.0492      2.00000
      5       4.7896      2.00000
      6       4.9397      2.00000
      7       5.9534      2.00000
      8       6.1873      2.00079
      9       7.5501     -0.00000
     10       7.7813     -0.00000
     11       9.4498     -0.00000
     12       9.9828     -0.00000
     13      19.1080      0.00000
     14      19.6979      0.00000
     15      21.8008      0.00000
     16      22.5318      0.00000
     17      25.1324      0.00000
     18      26.8924      0.00000
     19      33.7097      0.00000
     20      35.2579      0.00000
     21      36.3295      0.00000
     22      37.7516      0.00000
     23      40.6133      0.00000
     24      41.0659      0.00000
     25      47.3507      0.00000
     26      47.8742      0.00000
     27      51.8794      0.00000
     28      53.6416      0.00000
     29      55.4418      0.00000
     30      57.2966      0.00000
     31      57.8887      0.00000
     32      58.6938      0.00000
     33      59.6392      0.00000
     34      59.8133      0.00000
     35      61.1212      0.00000
     36      61.2628      0.00000
     37      63.4124      0.00000
     38      64.8045      0.00000
     39      65.5479      0.00000
     40      65.7867      0.00000

 k-point    94 :       0.3636    0.1818    0.4545
  band No.  band energies     occupation 
      1       2.5718      2.00000
      2       2.7189      2.00000
      3       3.7492      2.00000
      4       3.9455      2.00000
      5       4.9038      2.00000
      6       5.2236      2.00000
      7       6.2689      2.00501
      8       6.3907      2.03625
      9       7.5141     -0.00000
     10       7.6747     -0.00000
     11      11.1078     -0.00000
     12      11.5441     -0.00000
     13      16.5630      0.00000
     14      16.9453      0.00000
     15      21.1865      0.00000
     16      21.9357      0.00000
     17      26.7235      0.00000
     18      27.8445      0.00000
     19      32.1405      0.00000
     20      33.2164      0.00000
     21      35.3336      0.00000
     22      36.8003      0.00000
     23      41.3336      0.00000
     24      41.6613      0.00000
     25      50.6747      0.00000
     26      51.3049      0.00000
     27      52.1413      0.00000
     28      53.8464      0.00000
     29      55.4335      0.00000
     30      56.0224      0.00000
     31      57.2876      0.00000
     32      58.8950      0.00000
     33      60.8418      0.00000
     34      61.1987      0.00000
     35      62.9345      0.00000
     36      63.0628      0.00000
     37      64.1966      0.00000
     38      64.4877      0.00000
     39      65.2217      0.00000
     40      65.7427      0.00000

 k-point    95 :       0.2727    0.2727    0.4545
  band No.  band energies     occupation 
      1       2.9603      2.00000
      2       3.0021      2.00000
      3       3.9246      2.00000
      4       4.1431      2.00000
      5       4.4963      2.00000
      6       4.7048      2.00000
      7       5.8892      2.00000
      8       6.0884      2.00005
      9       7.5271     -0.00000
     10       7.7004     -0.00000
     11      11.5166     -0.00000
     12      12.0462     -0.00000
     13      17.6284      0.00000
     14      18.0510      0.00000
     15      19.3939      0.00000
     16      19.7809      0.00000
     17      26.8670      0.00000
     18      28.4973      0.00000
     19      32.2455      0.00000
     20      33.6455      0.00000
     21      35.1697      0.00000
     22      36.2709      0.00000
     23      43.3956      0.00000
     24      43.7920      0.00000
     25      47.5794      0.00000
     26      47.6981      0.00000
     27      54.6499      0.00000
     28      55.2854      0.00000
     29      55.4886      0.00000
     30      56.8954      0.00000
     31      58.2557      0.00000
     32      58.5171      0.00000
     33      59.2848      0.00000
     34      59.6060      0.00000
     35      61.8878      0.00000
     36      62.7529      0.00000
     37      64.0743      0.00000
     38      64.1597      0.00000
     39      65.1065      0.00000
     40      65.3845      0.00000

 k-point    96 :       0.3636    0.2727    0.4545
  band No.  band energies     occupation 
      1       3.1559      2.00000
      2       3.2803      2.00000
      3       3.8489      2.00000
      4       3.9294      2.00000
      5       4.5220      2.00000
      6       4.6360      2.00000
      7       5.9563      2.00000
      8       6.1087      2.00009
      9       7.5003     -0.00000
     10       7.5643     -0.00000
     11      13.3040      0.00000
     12      13.4272      0.00000
     13      15.9912      0.00000
     14      16.3271      0.00000
     15      18.7523      0.00000
     16      19.2028      0.00000
     17      28.5358      0.00000
     18      29.2598      0.00000
     19      31.3701      0.00000
     20      31.7309      0.00000
     21      34.9184      0.00000
     22      35.7504      0.00000
     23      44.5587      0.00000
     24      45.2050      0.00000
     25      49.1859      0.00000
     26      49.5936      0.00000
     27      51.8208      0.00000
     28      52.1941      0.00000
     29      56.1418      0.00000
     30      57.6236      0.00000
     31      58.5776      0.00000
     32      59.7108      0.00000
     33      60.0273      0.00000
     34      60.4568      0.00000
     35      60.9991      0.00000
     36      62.1116      0.00000
     37      63.6442      0.00000
     38      64.5666      0.00000
     39      66.7559      0.00000
     40      66.8041      0.00000


--------------------------------------------------------------------------------------------------------


 soft charge-density along one line, spin component           1
         0         1         2         3         4         5         6         7         8         9
x     7.7733    0.0000    0.1151   -0.1994   -0.0617   -0.1069    0.0156   -0.0000    0.0018   -0.0032
x     0.0000    0.0000
y     7.7733    0.0000    0.1151    0.1994   -0.0617    0.1069    0.0156    0.0000    0.0018    0.0032
y     0.0000    0.0000
z     7.7733    0.0000    0.0000   -0.0000    0.4638    0.0000    0.0000   -0.0000   -0.1696   -0.0000
z     0.0000    0.0000    0.0180    0.0000    0.0000    0.0000    0.0070   -0.0000    0.0000    0.0000
 total charge-density along one line
x    16.0000    0.0000    1.5174   -2.6282    0.3234    0.5601    0.0438   -0.0000    0.0003   -0.0005
x     0.0005    0.0008   -0.0009    0.0000    0.0001   -0.0002   -0.0001   -0.0001    0.0002   -0.0000
x    -0.0000    0.0000
y    16.0000    0.0000    1.5174    2.6282    0.3234   -0.5601    0.0438    0.0000    0.0003    0.0005
y     0.0005   -0.0008   -0.0009   -0.0000    0.0001    0.0002   -0.0001    0.0001    0.0002    0.0000
y    -0.0000   -0.0000
z    16.0000    0.0000   -0.0000    0.0000    6.0562   -0.0000   -0.0000    0.0000    1.3424   -0.0000
z    -0.0000   -0.0000    0.0436   -0.0000   -0.0000   -0.0000    0.0031    0.0000   -0.0000   -0.0000
z     0.0017   -0.0000    0.0000   -0.0000   -0.0008   -0.0000    0.0000   -0.0000    0.0005   -0.0000
z     0.0000    0.0000   -0.0003    0.0000   -0.0000   -0.0000    0.0003   -0.0000
 
 pseudopotential strength for first ion, spin component:           1
 -4.529  -0.000  -0.000  -0.000  -0.000  -5.090  -0.000  -0.000
 -0.000  -4.526   0.000  -0.000   0.000  -0.000  -5.087   0.000
 -0.000   0.000  -4.534  -0.000  -0.000  -0.000   0.000  -5.095
 -0.000  -0.000  -0.000  -4.526  -0.000  -0.000  -0.000  -0.000
 -0.000   0.000  -0.000  -0.000  -4.529  -0.000   0.000  -0.000
 -5.090  -0.000  -0.000  -0.000  -0.000  -5.609  -0.000  -0.000
 -0.000  -5.087   0.000  -0.000   0.000  -0.000  -5.606   0.000
 -0.000   0.000  -5.095  -0.000  -0.000  -0.000   0.000  -5.614
 -0.000  -0.000  -0.000  -5.087  -0.000  -0.000  -0.000  -0.000
 -0.000   0.000  -0.000  -0.000  -5.090  -0.000   0.000  -0.000
  0.000  -0.000   0.001   0.000  -0.000   0.000  -0.000   0.001
  0.000  -0.000   0.003   0.000  -0.000   0.000  -0.000   0.002
 -0.000   0.000   0.000  -0.000  -0.001  -0.000   0.000   0.000
 -0.000  -0.000   0.000   0.000   0.000  -0.000  -0.000   0.000
 -0.001  -0.000   0.000   0.000  -0.000  -0.001  -0.000   0.000
 -0.000   0.000   0.000  -0.000  -0.001  -0.000   0.000   0.000
 -0.000  -0.000   0.000   0.000   0.000  -0.000  -0.000   0.000
 -0.001  -0.000   0.000   0.000  -0.000  -0.001  -0.000   0.000
 total augmentation occupancy for first ion, spin component:           1
  1.601   0.000   0.000   0.000   0.000  -0.888   0.000  -0.000   0.000  -0.000  -0.000  -0.000   0.000  -0.000   0.033  -0.000
  0.000   1.985   0.000  -0.000   0.000   0.000  -1.084  -0.000   0.000   0.000   0.000   0.000  -0.000   0.000   0.000   0.000
  0.000  -0.000   1.320  -0.000  -0.000  -0.000  -0.000  -0.674   0.000   0.000   0.015  -0.008   0.000   0.000  -0.000  -0.000
  0.000  -0.000  -0.000   1.985   0.000   0.000   0.000   0.000  -1.084  -0.000  -0.000   0.000   0.000  -0.000   0.000   0.000
  0.000   0.000  -0.000   0.000   1.601  -0.000   0.000   0.000   0.000  -0.888   0.000  -0.000   0.033  -0.000  -0.000  -0.002
 -0.888   0.000  -0.000   0.000  -0.000   1.538   0.000   0.000   0.000   0.000  -0.000   0.000  -0.000   0.000  -0.048   0.000
  0.000  -1.084   0.000   0.000   0.000   0.000   1.523   0.000  -0.000   0.000  -0.000   0.000   0.000   0.000  -0.000  -0.000
 -0.000   0.000  -0.674  -0.000   0.000   0.000   0.000   1.376   0.000  -0.000  -0.074   0.008   0.000   0.000  -0.000  -0.000
  0.000   0.000   0.000  -1.084   0.000  -0.000  -0.000  -0.000   1.523   0.000   0.000   0.000   0.000   0.000  -0.000   0.000
 -0.000   0.000   0.000  -0.000  -0.888  -0.000   0.000  -0.000  -0.000   1.538  -0.000   0.000  -0.048  -0.000   0.000   0.003
 -0.000   0.000   0.015   0.000   0.000  -0.000   0.000  -0.074   0.000  -0.000   2.621  -0.299   0.000   0.000   0.000  -0.000
 -0.000   0.000  -0.008   0.000  -0.000   0.000   0.000   0.008  -0.000   0.000  -0.299   0.038   0.000   0.000   0.000  -0.000
  0.000   0.000   0.000  -0.000   0.033  -0.000   0.000   0.000   0.000  -0.048   0.000   0.000   0.342   0.000  -0.000  -0.028
  0.000   0.000   0.000  -0.000   0.000   0.000   0.000   0.000   0.000   0.000   0.000   0.000  -0.000   0.327   0.000   0.000
  0.033   0.000  -0.000   0.000  -0.000  -0.048  -0.000   0.000  -0.000   0.000  -0.000   0.000  -0.000   0.000   0.342   0.000
 -0.000  -0.000   0.000   0.000  -0.002   0.000   0.000  -0.000   0.000   0.003   0.000   0.000  -0.028   0.000   0.000   0.003
  0.000   0.000   0.000   0.000   0.000   0.000   0.000   0.000  -0.000   0.000   0.000   0.000   0.000  -0.029   0.000   0.000
 -0.002   0.000  -0.000   0.000   0.000   0.003   0.000   0.000   0.000  -0.000  -0.000   0.000   0.000   0.000  -0.028  -0.000


------------------------ aborting loop because EDIFF is reached ----------------------------------------


    CHARGE:  cpu time    0.0201: real time    0.0201
    FORLOC:  cpu time    0.0002: real time    0.0002
    FORNL :  cpu time    0.1091: real time    0.1091
    STRESS:  cpu time    0.1583: real time    0.1583
    FORCOR:  cpu time    0.0035: real time    0.0035
    FORHAR:  cpu time    0.0008: real time    0.0008
    MIXING:  cpu time    0.0002: real time    0.0002

  FORCE on cell =-STRESS in cart. coord.  units (eV):
  Direction    XX          YY          ZZ          XY          YZ          ZX
  --------------------------------------------------------------------------------------
  Alpha Z   133.92465   133.92465   133.92465
  Ewald    -397.33370  -397.33370  -427.31564     0.00000    -0.00000    -0.00000
  Hartree    62.04338    62.04338    50.59908    -0.00000    -0.00000    -0.00000
  E(xc)     -78.42781   -78.42791   -78.24184     0.00034     0.00000    -0.00000
  Local     108.21730   108.21755   148.25657    -0.00094     0.00000     0.00000
  n-local   -53.21143   -52.48783   -54.53748    -3.56682     1.46234     0.99537
  augment    75.88811    75.88728    75.98542     0.00133    -0.00000    -0.00000
  Kinetic   152.60717   146.48076   147.58395     1.12120    -1.03145     0.12394
  Fock        0.00000     0.00000     0.00000     0.00000     0.00000     0.00000
  -------------------------------------------------------------------------------------
  Total       1.00592     1.00592    -3.74529    -0.00000     0.00000     0.00000
  in kB      78.07498    78.07498  -290.69162    -0.00000     0.00000     0.00000
  external pressure =      -44.85 kB  Pullay stress =        0.00 kB


 VOLUME and BASIS-vectors are now :
 -----------------------------------------------------------------------------
  energy-cutoff  :      280.00
  volume of cell :       20.64
      direct lattice vectors                 reciprocal lattice vectors
     2.399900000  0.000000000  0.000000000     0.416684029  0.240572636  0.000000000
    -1.199950000  2.078374367  0.000000000     0.000000000  0.481145272  0.000000000
     0.000000000  0.000000000  4.138540000     0.000000000  0.000000000  0.241631107

  length of vectors
     2.399900000  2.399900000  4.138540000     0.481145272  0.481145272  0.241631107


 FORCES acting on ions
    electron-ion (+dipol)            ewald-force                    non-local-force                 convergence-correction
 -----------------------------------------------------------------------------------------------
   0.385E-06 -.146E-05 0.847E-14   0.595E-12 -.347E-12 -.216E-13   0.525E-17 -.341E-18 0.347E-19   -.586E-08 0.322E-08 -.299E-14
   0.501E-05 0.723E-05 0.233E-12   -.597E-12 0.337E-12 0.216E-13   -.426E-17 -.627E-18 0.280E-19   0.597E-08 -.329E-08 0.139E-13
 -----------------------------------------------------------------------------------------------
   0.540E-05 0.577E-05 0.242E-12   -.228E-14 -.961E-14 0.252E-16   0.992E-18 -.968E-18 0.627E-19   0.113E-09 -.673E-10 0.109E-13
 
 
 POSITION                                       TOTAL-FORCE (eV/Angst)
 -----------------------------------------------------------------------------------
      0.00000      0.00000      0.00000         0.000000     -0.000000      0.000000
      0.00000      1.38558      2.06927        -0.000000      0.000000     -0.000000
 -----------------------------------------------------------------------------------
    total drift:                                0.000005      0.000006      0.000000


--------------------------------------------------------------------------------------------------------



  FREE ENERGIE OF THE ION-ELECTRON SYSTEM (eV)
  ---------------------------------------------------
  free  energy   TOTEN  =       -16.17506195 eV

  energy  without entropy=      -16.17710955  energy(sigma->0) =      -16.17574449
 


--------------------------------------------------------------------------------------------------------


    POTLOK:  cpu time    0.0055: real time    0.0055


--------------------------------------------------------------------------------------------------------


 writing wavefunctions
     LOOP+:  cpu time   10.0229: real time   10.0458
    4ORBIT:  cpu time    0.0000: real time    0.0000

 total amount of memory used by VASP MPI-rank0    51501. kBytes
=======================================================================

   base      :      30000. kBytes
   nonl-proj :       3394. kBytes
   grid      :        812. kBytes
   one-center:         31. kBytes
   wavefun   :      17264. kBytes
 
  
  
 General timing and accounting informations for this job:
 ========================================================
  
                  Total CPU time used (sec):       10.209
                            User time (sec):       10.157
                          System time (sec):        0.052
                         Elapsed time (sec):       10.221
  
                   Maximum memory used (kb):       55840.
                   Average memory used (kb):          N/A
  
                          Minor page faults:         7692
                          Major page faults:            0
                 Voluntary context switches:           27
