 vasp.6.2.0 18Jan21 (build Mar 17 2021 09:06:54) complex                        
  
 POSCAR found type information on POSCAR Fe
 POSCAR found :  1 types and       2 ions
 LDA part: xc-table for Pade appr. of Perdew
 POSCAR, INCAR and KPOINTS ok, starting setup
 FFT: planning ...
 WAVECAR not read
 WARNING: chargedensity file is incomplete
 entering main loop
       N       E                     dE             d eps       ncg     rms          rms(c)
DAV:   1     0.613125941509E+02    0.61313E+02   -0.27039E+03  9248   0.322E+02
DAV:   2    -0.147180401380E+02   -0.76031E+02   -0.64550E+02  7936   0.956E+01
DAV:   3    -0.193105053415E+02   -0.45925E+01   -0.43371E+01  9488   0.245E+01
DAV:   4    -0.193330120792E+02   -0.22507E-01   -0.22493E-01  9168   0.181E+00
DAV:   5    -0.193330409066E+02   -0.28827E-04   -0.28827E-04  9136   0.602E-02    0.168E+01
DAV:   6    -0.164269264414E+02    0.29061E+01   -0.18508E+00 11128   0.255E+01    0.265E+00
DAV:   7    -0.162120380003E+02    0.21489E+00   -0.13653E-01 10152   0.577E+00    0.101E+00
DAV:   8    -0.161862769492E+02    0.25761E-01   -0.36988E-03 10056   0.399E-01    0.482E-01
DAV:   9    -0.161750428135E+02    0.11234E-01   -0.93589E-04 11200   0.178E-01    0.599E-02
DAV:  10    -0.161750686747E+02   -0.25861E-04   -0.38104E-05  8896   0.236E-02    0.245E-02
DAV:  11    -0.161750623387E+02    0.63360E-05   -0.32251E-07  8888   0.591E-03    0.161E-03
DAV:  12    -0.161750619536E+02    0.38508E-06   -0.50460E-08  5952   0.129E-03
   1 F= -.16175062E+02 E0= -.16175744E+02  d E =0.204760E-02
 writing wavefunctions
