unknown system                          
   1.00000000000000     
     3.509554    0.000000    0.000000
     0.000000    3.509554    0.000000
     0.000000    0.000000    3.509554
   Cu
     4
Direct
  0.000000  0.000000  0.000000
  0.500000  0.500000  0.000000
  0.500000  0.000000  0.500000
  0.000000  0.500000  0.500000
 
   32   32   32
  758.41      717.65      607.55      458.54      305.85      177.48      88.456      40.036      21.640      15.898    
  12.281      10.017      8.7137      8.0195      7.5995      7.2825      7.1467      7.2825      7.5995      8.0195    
  8.7137      10.017      12.281      15.898      21.640      40.036      88.456      177.48      305.85      458.54    
  607.55      717.65      717.65      678.94      574.34      432.81      287.96      166.55      82.901      37.938    
  21.153      15.716      12.212      10.030      8.7789      8.1131      7.7119      7.4109      7.2825      7.4109    
  7.7119      8.1131      8.7789      10.030      12.212      15.716      21.153      37.938      82.901      166.55    
  287.96      432.81      574.34      678.94      607.55      574.34      484.63      363.42      239.91      137.50    
  68.401      32.655      19.957      15.208      12.024      10.066      8.9446      8.3428      7.9792      7.7119    
  7.5995      7.7119      7.9792      8.3428      8.9446      10.066      12.024      15.208      19.957      32.655    
  68.401      137.50      239.91      363.42      484.63      574.34      458.54      432.81      363.42      270.08    
  175.99      99.690      50.319      26.555      18.532      14.482      11.778      10.136      9.1898      8.6660    
  8.3428      8.1131      8.0195      8.1131      8.3428      8.6660      9.1898      10.136      11.778      14.482    
  18.532      26.555      50.319      99.690      175.99      270.08      363.42      432.81      305.85      287.96    
  239.91      175.99      112.98      63.958      34.495      21.810      16.987      13.696      11.578      10.316    
  9.5928      9.1898      8.9446      8.7789      8.7137      8.7789      8.9446      9.1898      9.5928      10.316    
  11.578      13.696      16.987      21.810      34.495      63.958      112.98      175.99      239.91      287.96    
  177.48      166.55      137.50      99.690      63.958      38.152      24.403      18.866      15.437      13.023    
  11.550      10.731      10.316      10.136      10.066      10.030      10.017      10.030      10.066      10.136    
  10.316      10.731      11.550      13.023      15.437      18.866      24.403      38.152      63.958      99.690    
  137.50      166.55      88.456      82.901      68.401      50.319      34.495      24.403      19.560      16.488    
  14.135      12.629      11.839      11.550      11.578      11.778      12.024      12.212      12.281      12.212    
  12.024      11.778      11.578      11.550      11.839      12.629      14.135      16.488      19.560      24.403    
  34.495      50.319      68.401      82.901      40.036      37.938      32.655      26.555      21.810      18.866    
  16.488      14.558      13.278      12.667      12.629      13.023      13.696      14.482      15.208      15.716    
  15.898      15.716      15.208      14.482      13.696      13.023      12.629      12.667      13.278      14.558    
  16.488      18.866      21.810      26.555      32.655      37.938      21.640      21.153      19.957      18.532    
  16.987      15.437      14.135      13.278      12.980      13.278      14.135      15.437      16.987      18.532    
  19.957      21.153      21.640      21.153      19.957      18.532      16.987      15.437      14.135      13.278    
  12.980      13.278      14.135      15.437      16.987      18.532      19.957      21.153      15.898      15.716    
  15.208      14.482      13.696      13.023      12.629      12.667      13.278      14.558      16.488      18.866    
  21.810      26.555      32.655      37.938      40.036      37.938      32.655      26.555      21.810      18.866    
  16.488      14.558      13.278      12.667      12.629      13.023      13.696      14.482      15.208      15.716    
  12.281      12.212      12.024      11.778      11.578      11.550      11.839      12.629      14.135      16.488    
  19.560      24.403      34.495      50.319      68.401      82.901      88.456      82.901      68.401      50.319    
  34.495      24.403      19.560      16.488      14.135      12.629      11.839      11.550      11.578      11.778    
  12.024      12.212      10.017      10.030      10.066      10.136      10.316      10.731      11.550      13.023    
  15.437      18.866      24.403      38.152      63.958      99.690      137.50      166.55      177.48      166.55    
  137.50      99.690      63.958      38.152      24.403      18.866      15.437      13.023      11.550      10.731    
  10.316      10.136      10.066      10.030      8.7137      8.7789      8.9446      9.1898      9.5928      10.316    
  11.578      13.696      16.987      21.810      34.495      63.958      112.98      175.99      239.91      287.96    
  305.85      287.96      239.91      175.99      112.98      63.958      34.495      21.810      16.987      13.696    
  11.578      10.316      9.5928      9.1898      8.9446      8.7789      8.0195      8.1131      8.3428      8.6660    
  9.1898      10.136      11.778      14.482      18.532      26.555      50.319      99.690      175.99      270.08    
  363.42      432.81      458.54      432.81      363.42      270.08      175.99      99.690      50.319      26.555    
  18.532      14.482      11.778      10.136      9.1898      8.6660      8.3428      8.1131      7.5995      7.7119    
  7.9792      8.3428      8.9446      10.066      12.024      15.208      19.957      32.655      68.401      137.50    
  239.91      363.42      484.63      574.34      607.55      574.34      484.63      363.42      239.91      137.50    
  68.401      32.655      19.957      15.208      12.024      10.066      8.9446      8.3428      7.9792      7.7119    
  7.2825      7.4109      7.7119      8.1131      8.7789      10.030      12.212      15.716      21.153      37.938    
  82.901      166.55      287.96      432.81      574.34      678.94      717.65      678.94      574.34      432.81    
  287.96      166.55      82.901      37.938      21.153      15.716      12.212      10.030      8.7789      8.1131    
  7.7119      7.4109      7.1467      7.2825      7.5995      8.0195      8.7137      10.017      12.281      15.898    
  21.640      40.036      88.456      177.48      305.85      458.54      607.55      717.65      758.41      717.65    
  607.55      458.54      305.85      177.48      88.456      40.036      21.640      15.898      12.281      10.017    
  8.7137      8.0195      7.5995      7.2825      7.2825      7.4109      7.7119      8.1131      8.7789      10.030    
  12.212      15.716      21.153      37.938      82.901      166.55      287.96      432.81      574.34      678.94    
  717.65      678.94      574.34      432.81      287.96      166.55      82.901      37.938      21.153      15.716    
  12.212      10.030      8.7789      8.1131      7.7119      7.4109      7.5995      7.7119      7.9792      8.3428    
  8.9446      10.066      12.024      15.208      19.957      32.655      68.401      137.50      239.91      363.42    
  484.63      574.34      607.55      574.34      484.63      363.42      239.91      137.50      68.401      32.655    
  19.957      15.208      12.024      10.066      8.9446      8.3428      7.9792      7.7119      8.0195      8.1131    
  8.3428      8.6660      9.1898      10.136      11.778      14.482      18.532      26.555      50.319      99.690    
  175.99      270.08      363.42      432.81      458.54      432.81      363.42      270.08      175.99      99.690    
  50.319      26.555      18.532      14.482      11.778      10.136      9.1898      8.6660      8.3428      8.1131    
  8.7137      8.7789      8.9446      9.1898      9.5928      10.316      11.578      13.696      16.987      21.810    
  34.495      63.958      112.98      175.99      239.91      287.96      305.85      287.96      239.91      175.99    
  112.98      63.958      34.495      21.810      16.987      13.696      11.578      10.316      9.5928      9.1898    
  8.9446      8.7789      10.017      10.030      10.066      10.136      10.316      10.731      11.550      13.023    
  15.437      18.866      24.403      38.152      63.958      99.690      137.50      166.55      177.48      166.55    
  137.50      99.690      63.958      38.152      24.403      18.866      15.437      13.023      11.550      10.731    
  10.316      10.136      10.066      10.030      12.281      12.212      12.024      11.778      11.578      11.550    
  11.839      12.629      14.135      16.488      19.560      24.403      34.495      50.319      68.401      82.901    
  88.456      82.901      68.401      50.319      34.495      24.403      19.560      16.488      14.135      12.629    
  11.839      11.550      11.578      11.778      12.024      12.212      15.898      15.716      15.208      14.482    
  13.696      13.023      12.629      12.667      13.278      14.558      16.488      18.866      21.810      26.555    
  32.655      37.938      40.036      37.938      32.655      26.555      21.810      18.866      16.488      14.558    
  13.278      12.667      12.629      13.023      13.696      14.482      15.208      15.716      21.640      21.153    
  19.957      18.532      16.987      15.437      14.135      13.278      12.980      13.278      14.135      15.437    
  16.987      18.532      19.957      21.153      21.640      21.153      19.957      18.532      16.987      15.437    
  14.135      13.278      12.980      13.278      14.135      15.437      16.987      18.532      19.957      21.153    
  40.036      37.938      32.655      26.555      21.810      18.866      16.488      14.558      13.278      12.667    
  12.629      13.023      13.696      14.482      15.208      15.716      15.898      15.716      15.208      14.482    
  13.696      13.023      12.629      12.667      13.278      14.558      16.488      18.866      21.810      26.555    
  32.655      37.938      88.456      82.901      68.401      50.319      34.495      24.403      19.560      16.488    
  14.135      12.629      11.839      11.550      11.578      11.778      12.024      12.212      12.281      12.212    
  12.024      11.778      11.578      11.550      11.839      12.629      14.135      16.488      19.560      24.403    
  34.495      50.319      68.401      82.901      177.48      166.55      137.50      99.690      63.958      38.152    
  24.403      18.866      15.437      13.023      11.550      10.731      10.316      10.136      10.066      10.030    
  10.017      10.030      10.066      10.136      10.316      10.731      11.550      13.023      15.437      18.866    
  24.403      38.152      63.958      99.690      137.50      166.55      305.85      287.96      239.91      175.99    
  112.98      63.958      34.495      21.810      16.987      13.696      11.578      10.316      9.5928      9.1898    
  8.9446      8.7789      8.7137      8.7789      8.9446      9.1898      9.5928      10.316      11.578      13.696    
  16.987      21.810      34.495      63.958      112.98      175.99      239.91      287.96      458.54      432.81    
  363.42      270.08      175.99      99.690      50.319      26.555      18.532      14.482      11.778      10.136    
  9.1898      8.6660      8.3428      8.1131      8.0195      8.1131      8.3428      8.6660      9.1898      10.136    
  11.778      14.482      18.532      26.555      50.319      99.690      175.99      270.08      363.42      432.81    
  607.55      574.34      484.63      363.42      239.91      137.50      68.401      32.655      19.957      15.208    
  12.024      10.066      8.9446      8.3428      7.9792      7.7119      7.5995      7.7119      7.9792      8.3428    
  8.9446      10.066      12.024      15.208      19.957      32.655      68.401      137.50      239.91      363.42    
  484.63      574.34      717.65      678.94      574.34      432.81      287.96      166.55      82.901      37.938    
  21.153      15.716      12.212      10.030      8.7789      8.1131      7.7119      7.4109      7.2825      7.4109    
  7.7119      8.1131      8.7789      10.030      12.212      15.716      21.153      37.938      82.901      166.55    
  287.96      432.81      574.34      678.94      717.65      678.94      574.34      432.81      287.96      166.55    
  82.901      37.938      21.153      15.716      12.212      10.030      8.7789      8.1131      7.7119      7.4109    
  7.2825      7.4109      7.7119      8.1131      8.7789      10.030      12.212      15.716      21.153      37.938    
  82.901      166.55      287.96      432.81      574.34      678.94      678.94      642.16      542.80      408.40    
  271.02      156.26      77.716      36.013      20.710      15.537      12.144      10.042      8.8402      8.2016    
  7.8182      7.5325      7.4109      7.5325      7.8182      8.2016      8.8402      10.042      12.144      15.537    
  20.710      36.013      77.716      156.26      271.02      408.40      542.80      642.16      574.34      542.80    
  457.61      342.57      225.57      128.92      64.208      31.179      19.615      15.040      11.960      10.074    
  8.9970      8.4197      8.0720      7.8182      7.7119      7.8182      8.0720      8.4197      8.9970      10.074    
  11.960      15.040      19.615      31.179      64.208      128.92      225.57      342.57      457.61      542.80    
  432.81      408.40      342.57      254.13      165.20      93.445      47.439      25.631      18.268      14.331    
  11.719      10.139      9.2310      8.7285      8.4197      8.2016      8.1131      8.2016      8.4197      8.7285    
  9.2310      10.139      11.719      14.331      18.268      25.631      47.439      93.445      165.20      254.13    
  342.57      408.40      287.96      271.02      225.57      165.20      105.91      60.097      32.880      21.332    
  16.754      13.565      11.523      10.311      9.6172      9.2310      8.9970      8.8402      8.7789      8.8402    
  8.9970      9.2310      9.6172      10.311      11.523      13.565      16.754      21.332      32.880      60.097    
  105.91      165.20      225.57      271.02      166.55      156.26      128.92      93.445      60.097      36.236    
  23.696      18.577      15.243      12.912      11.494      10.708      10.311      10.139      10.074      10.042    
  10.030      10.042      10.074      10.139      10.311      10.708      11.494      12.912      15.243      18.577    
  23.696      36.236      60.097      93.445      128.92      156.26      82.901      77.716      64.208      47.439    
  32.880      23.696      19.248      16.258      13.980      12.529      11.771      11.494      11.523      11.719    
  11.960      12.144      12.212      12.144      11.960      11.719      11.523      11.494      11.771      12.529    
  13.980      16.258      19.248      23.696      32.880      47.439      64.208      77.716      37.938      36.013    
  31.179      25.631      21.332      18.577      16.258      14.387      13.152      12.564      12.529      12.912    
  13.565      14.331      15.040      15.537      15.716      15.537      15.040      14.331      13.565      12.912    
  12.529      12.564      13.152      14.387      16.258      18.577      21.332      25.631      31.179      36.013    
  21.153      20.710      19.615      18.268      16.754      15.243      13.980      13.152      12.864      13.152    
  13.980      15.243      16.754      18.268      19.615      20.710      21.153      20.710      19.615      18.268    
  16.754      15.243      13.980      13.152      12.864      13.152      13.980      15.243      16.754      18.268    
  19.615      20.710      15.716      15.537      15.040      14.331      13.565      12.912      12.529      12.564    
  13.152      14.387      16.258      18.577      21.332      25.631      31.179      36.013      37.938      36.013    
  31.179      25.631      21.332      18.577      16.258      14.387      13.152      12.564      12.529      12.912    
  13.565      14.331      15.040      15.537      12.212      12.144      11.960      11.719      11.523      11.494    
  11.771      12.529      13.980      16.258      19.248      23.696      32.880      47.439      64.208      77.716    
  82.901      77.716      64.208      47.439      32.880      23.696      19.248      16.258      13.980      12.529    
  11.771      11.494      11.523      11.719      11.960      12.144      10.030      10.042      10.074      10.139    
  10.311      10.708      11.494      12.912      15.243      18.577      23.696      36.236      60.097      93.445    
  128.92      156.26      166.55      156.26      128.92      93.445      60.097      36.236      23.696      18.577    
  15.243      12.912      11.494      10.708      10.311      10.139      10.074      10.042      8.7789      8.8402    
  8.9970      9.2310      9.6172      10.311      11.523      13.565      16.754      21.332      32.880      60.097    
  105.91      165.20      225.57      271.02      287.96      271.02      225.57      165.20      105.91      60.097    
  32.880      21.332      16.754      13.565      11.523      10.311      9.6172      9.2310      8.9970      8.8402    
  8.1131      8.2016      8.4197      8.7285      9.2310      10.139      11.719      14.331      18.268      25.631    
  47.439      93.445      165.20      254.13      342.57      408.40      432.81      408.40      342.57      254.13    
  165.20      93.445      47.439      25.631      18.268      14.331      11.719      10.139      9.2310      8.7285    
  8.4197      8.2016      7.7119      7.8182      8.0720      8.4197      8.9970      10.074      11.960      15.040    
  19.615      31.179      64.208      128.92      225.57      342.57      457.61      542.80      574.34      542.80    
  457.61      342.57      225.57      128.92      64.208      31.179      19.615      15.040      11.960      10.074    
  8.9970      8.4197      8.0720      7.8182      7.4109      7.5325      7.8182      8.2016      8.8402      10.042    
  12.144      15.537      20.710      36.013      77.716      156.26      271.02      408.40      542.80      642.16    
  678.94      642.16      542.80      408.40      271.02      156.26      77.716      36.013      20.710      15.537    
  12.144      10.042      8.8402      8.2016      7.8182      7.5325      7.2825      7.4109      7.7119      8.1131    
  8.7789      10.030      12.212      15.716      21.153      37.938      82.901      166.55      287.96      432.81    
  574.34      678.94      717.65      678.94      574.34      432.81      287.96      166.55      82.901      37.938    
  21.153      15.716      12.212      10.030      8.7789      8.1131      7.7119      7.4109      7.4109      7.5325    
  7.8182      8.2016      8.8402      10.042      12.144      15.537      20.710      36.013      77.716      156.26    
  271.02      408.40      542.80      642.16      678.94      642.16      542.80      408.40      271.02      156.26    
  77.716      36.013      20.710      15.537      12.144      10.042      8.8402      8.2016      7.8182      7.5325    
  7.7119      7.8182      8.0720      8.4197      8.9970      10.074      11.960      15.040      19.615      31.179    
  64.208      128.92      225.57      342.57      457.61      542.80      574.34      542.80      457.61      342.57    
  225.57      128.92      64.208      31.179      19.615      15.040      11.960      10.074      8.9970      8.4197    
  8.0720      7.8182      8.1131      8.2016      8.4197      8.7285      9.2310      10.139      11.719      14.331    
  18.268      25.631      47.439      93.445      165.20      254.13      342.57      408.40      432.81      408.40    
  342.57      254.13      165.20      93.445      47.439      25.631      18.268      14.331      11.719      10.139    
  9.2310      8.7285      8.4197      8.2016      8.7789      8.8402      8.9970      9.2310      9.6172      10.311    
  11.523      13.565      16.754      21.332      32.880      60.097      105.91      165.20      225.57      271.02    
  287.96      271.02      225.57      165.20      105.91      60.097      32.880      21.332      16.754      13.565    
  11.523      10.311      9.6172      9.2310      8.9970      8.8402      10.030      10.042      10.074      10.139    
  10.311      10.708      11.494      12.912      15.243      18.577      23.696      36.236      60.097      93.445    
  128.92      156.26      166.55      156.26      128.92      93.445      60.097      36.236      23.696      18.577    
  15.243      12.912      11.494      10.708      10.311      10.139      10.074      10.042      12.212      12.144    
  11.960      11.719      11.523      11.494      11.771      12.529      13.980      16.258      19.248      23.696    
  32.880      47.439      64.208      77.716      82.901      77.716      64.208      47.439      32.880      23.696    
  19.248      16.258      13.980      12.529      11.771      11.494      11.523      11.719      11.960      12.144    
  15.716      15.537      15.040      14.331      13.565      12.912      12.529      12.564      13.152      14.387    
  16.258      18.577      21.332      25.631      31.179      36.013      37.938      36.013      31.179      25.631    
  21.332      18.577      16.258      14.387      13.152      12.564      12.529      12.912      13.565      14.331    
  15.040      15.537      21.153      20.710      19.615      18.268      16.754      15.243      13.980      13.152    
  12.864      13.152      13.980      15.243      16.754      18.268      19.615      20.710      21.153      20.710    
  19.615      18.268      16.754      15.243      13.980      13.152      12.864      13.152      13.980      15.243    
  16.754      18.268      19.615      20.710      37.938      36.013      31.179      25.631      21.332      18.577    
  16.258      14.387      13.152      12.564      12.529      12.912      13.565      14.331      15.040      15.537    
  15.716      15.537      15.040      14.331      13.565      12.912      12.529      12.564      13.152      14.387    
  16.258      18.577      21.332      25.631      31.179      36.013      82.901      77.716      64.208      47.439    
  32.880      23.696      19.248      16.258      13.980      12.529      11.771      11.494      11.523      11.719    
  11.960      12.144      12.212      12.144      11.960      11.719      11.523      11.494      11.771      12.529    
  13.980      16.258      19.248      23.696      32.880      47.439      64.208      77.716      166.55      156.26    
  128.92      93.445      60.097      36.236      23.696      18.577      15.243      12.912      11.494      10.708    
  10.311      10.139      10.074      10.042      10.030      10.042      10.074      10.139      10.311      10.708    
  11.494      12.912      15.243      18.577      23.696      36.236      60.097      93.445      128.92      156.26    
  287.96      271.02      225.57      165.20      105.91      60.097      32.880      21.332      16.754      13.565    
  11.523      10.311      9.6172      9.2310      8.9970      8.8402      8.7789      8.8402      8.9970      9.2310    
  9.6172      10.311      11.523      13.565      16.754      21.332      32.880      60.097      105.91      165.20    
  225.57      271.02      432.81      408.40      342.57      254.13      165.20      93.445      47.439      25.631    
  18.268      14.331      11.719      10.139      9.2310      8.7285      8.4197      8.2016      8.1131      8.2016    
  8.4197      8.7285      9.2310      10.139      11.719      14.331      18.268      25.631      47.439      93.445    
  165.20      254.13      342.57      408.40      574.34      542.80      457.61      342.57      225.57      128.92    
  64.208      31.179      19.615      15.040      11.960      10.074      8.9970      8.4197      8.0720      7.8182    
  7.7119      7.8182      8.0720      8.4197      8.9970      10.074      11.960      15.040      19.615      31.179    
  64.208      128.92      225.57      342.57      457.61      542.80      678.94      642.16      542.80      408.40    
  271.02      156.26      77.716      36.013      20.710      15.537      12.144      10.042      8.8402      8.2016    
  7.8182      7.5325      7.4109      7.5325      7.8182      8.2016      8.8402      10.042      12.144      15.537    
  20.710      36.013      77.716      156.26      271.02      408.40      542.80      642.16      607.55      574.34    
  484.63      363.42      239.91      137.50      68.401      32.655      19.957      15.208      12.024      10.066    
  8.9446      8.3428      7.9792      7.7119      7.5995      7.7119      7.9792      8.3428      8.9446      10.066    
  12.024      15.208      19.957      32.655      68.401      137.50      239.91      363.42      484.63      574.34    
  574.34      542.80      457.61      342.57      225.57      128.92      64.208      31.179      19.615      15.040    
  11.960      10.074      8.9970      8.4197      8.0720      7.8182      7.7119      7.8182      8.0720      8.4197    
  8.9970      10.074      11.960      15.040      19.615      31.179      64.208      128.92      225.57      342.57    
  457.61      542.80      484.63      457.61      384.68      286.45      187.17      106.23      53.355      27.506    
  18.736      14.574      11.786      10.097      9.1334      8.6120      8.2972      8.0720      7.9792      8.0720    
  8.2972      8.6120      9.1334      10.097      11.786      14.574      18.736      27.506      53.355      106.23    
  187.17      286.45      384.68      457.61      363.42      342.57      286.45      211.35      136.48      77.057    
  40.075      23.354      17.521      13.914      11.562      10.152      9.3414      8.8897      8.6120      8.4197    
  8.3428      8.4197      8.6120      8.8897      9.3414      10.152      11.562      13.914      17.521      23.354    
  40.075      77.057      136.48      211.35      286.45      342.57      239.91      225.57      187.17      136.48    
  87.294      50.112      28.829      20.131      16.102      13.208      11.380      10.302      9.6860      9.3414    
  9.1334      8.9970      8.9446      8.9970      9.1334      9.3414      9.6860      10.302      11.380      13.208    
  16.102      20.131      28.829      50.112      87.294      136.48      187.17      225.57      137.50      128.92    
  106.23      77.057      50.112      31.400      21.944      17.757      14.706      12.609      11.348      10.652    
  10.302      10.152      10.097      10.074      10.066      10.074      10.097      10.152      10.302      10.652    
  11.348      12.609      14.706      17.757      21.944      31.400      50.112      77.057      106.23      128.92    
  68.401      64.208      53.355      40.075      28.829      21.944      18.369      15.612      13.554      12.259    
  11.588      11.348      11.380      11.562      11.786      11.960      12.024      11.960      11.786      11.562    
  11.380      11.348      11.588      12.259      13.554      15.612      18.369      21.944      28.829      40.075    
  53.355      64.208      32.655      31.179      27.506      23.354      20.131      17.757      15.612      13.913    
  12.805      12.284      12.259      12.609      13.208      13.914      14.574      15.040      15.208      15.040    
  14.574      13.914      13.208      12.609      12.259      12.284      12.805      13.913      15.612      17.757    
  20.131      23.354      27.506      31.179      19.957      19.615      18.736      17.521      16.102      14.706    
  13.554      12.805      12.546      12.805      13.554      14.706      16.102      17.521      18.736      19.615    
  19.957      19.615      18.736      17.521      16.102      14.706      13.554      12.805      12.546      12.805    
  13.554      14.706      16.102      17.521      18.736      19.615      15.208      15.040      14.574      13.914    
  13.208      12.609      12.259      12.284      12.805      13.913      15.612      17.757      20.131      23.354    
  27.506      31.179      32.655      31.179      27.506      23.354      20.131      17.757      15.612      13.913    
  12.805      12.284      12.259      12.609      13.208      13.914      14.574      15.040      12.024      11.960    
  11.786      11.562      11.380      11.348      11.588      12.259      13.554      15.612      18.369      21.944    
  28.829      40.075      53.355      64.208      68.401      64.208      53.355      40.075      28.829      21.944    
  18.369      15.612      13.554      12.259      11.588      11.348      11.380      11.562      11.786      11.960    
  10.066      10.074      10.097      10.152      10.302      10.652      11.348      12.609      14.706      17.757    
  21.944      31.400      50.112      77.057      106.23      128.92      137.50      128.92      106.23      77.057    
  50.112      31.400      21.944      17.757      14.706      12.609      11.348      10.652      10.302      10.152    
  10.097      10.074      8.9446      8.9970      9.1334      9.3414      9.6860      10.302      11.380      13.208    
  16.102      20.131      28.829      50.112      87.294      136.48      187.17      225.57      239.91      225.57    