<?xml version="1.0" encoding="ISO-8859-1"?>
<modeling>
 <generator>
  <i name="program" type="string">vasp </i>
  <i name="version" type="string">6.2.0  </i>
  <i name="subversion" type="string">18Jan21 (build Mar 17 2021 09:06:54) complex                          serial </i>
  <i name="platform" type="string">LinuxIFC </i>
  <i name="date" type="string">2021 08 03 </i>
  <i name="time" type="string">10:20:16 </i>
 </generator>
 <incar>
  <i type="string" name="PREC">normal</i>
  <i type="int" name="ICHARG">     1</i>
  <i type="int" name="IBRION">     1</i>
  <i name="EDIFF">      0.00000100</i>
  <i type="int" name="NSW">     0</i>
  <i type="int" name="ISIF">     2</i>
  <i name="ENCUT">    320.00000000</i>
  <i type="int" name="NBANDS">    30</i>
  <i type="int" name="ISMEAR">     1</i>
  <i name="SIGMA">      0.20000000</i>
  <i type="logical" name="LCHARG"> T  </i>
  <i type="int" name="KPAR">     1</i>
  <i type="int" name="NCORE">     1</i>
  <i type="string" name="GGA">PE</i>
 </incar>
 <primitive_cell>
  <structure name="primitive_cell" >
   <crystal>
    <varray name="basis" >
     <v>       1.68721754      -1.68721754       0.00000000 </v>
     <v>       1.68721754       0.00000000       1.68721754 </v>
     <v>       0.00000000      -1.68721754       1.68721754 </v>
    </varray>
    <i name="volume">      9.60601457 </i>
    <varray name="rec_basis" >
     <v>       0.29634590      -0.29634590      -0.29634590 </v>
     <v>       0.29634590       0.29634590       0.29634590 </v>
     <v>      -0.29634590      -0.29634590       0.29634590 </v>
    </varray>
   </crystal>
   <varray name="positions" >
    <v>       0.00000000       0.00000000       0.00000000 </v>
   </varray>
  </structure>
  <varray name="primitive_index" >
   <v type="int" >        1 </v>
  </varray>
 </primitive_cell>
 <kpoints>
  <generation param="Monkhorst-Pack">
   <v type="int" name="divisions">       9        9        9 </v>
   <v name="usershift">      0.00000000       0.00000000       0.00000000 </v>
   <v name="genvec1">      0.11111111       0.00000000       0.00000000 </v>
   <v name="genvec2">      0.00000000       0.11111111       0.00000000 </v>
   <v name="genvec3">      0.00000000       0.00000000       0.11111111 </v>
   <v name="shift">      0.00000000       0.00000000       0.00000000 </v>
  </generation>
  <varray name="kpointlist" >
   <v>       0.00000000       0.00000000       0.00000000 </v>
   <v>       0.11111111       0.00000000       0.00000000 </v>
   <v>       0.22222222       0.00000000       0.00000000 </v>
   <v>       0.33333333       0.00000000       0.00000000 </v>
   <v>       0.44444444       0.00000000       0.00000000 </v>
   <v>       0.11111111       0.11111111       0.00000000 </v>
   <v>       0.22222222       0.11111111       0.00000000 </v>
   <v>       0.33333333       0.11111111       0.00000000 </v>
   <v>       0.44444444       0.11111111       0.00000000 </v>
   <v>       0.22222222       0.22222222       0.00000000 </v>
   <v>       0.33333333       0.22222222       0.00000000 </v>
   <v>       0.44444444       0.22222222       0.00000000 </v>
   <v>       0.33333333       0.33333333       0.00000000 </v>
   <v>       0.44444444       0.33333333       0.00000000 </v>
   <v>       0.44444444       0.44444444       0.00000000 </v>
   <v>       0.11111111       0.11111111       0.11111111 </v>
   <v>       0.22222222       0.11111111       0.11111111 </v>
   <v>       0.33333333       0.11111111       0.11111111 </v>
   <v>       0.44444444       0.11111111       0.11111111 </v>
   <v>       0.22222222       0.22222222       0.11111111 </v>
   <v>       0.33333333       0.22222222       0.11111111 </v>
   <v>       0.44444444       0.22222222       0.11111111 </v>
   <v>       0.33333333       0.33333333       0.11111111 </v>
   <v>       0.44444444       0.33333333       0.11111111 </v>
   <v>       0.44444444       0.44444444       0.11111111 </v>
   <v>       0.22222222       0.22222222       0.22222222 </v>
   <v>       0.33333333       0.22222222       0.22222222 </v>
   <v>       0.44444444       0.22222222       0.22222222 </v>
   <v>       0.33333333       0.33333333       0.22222222 </v>
   <v>       0.44444444       0.33333333       0.22222222 </v>
   <v>       0.44444444       0.44444444       0.22222222 </v>
   <v>       0.33333333       0.33333333       0.33333333 </v>
   <v>       0.44444444       0.33333333       0.33333333 </v>
   <v>       0.44444444       0.44444444       0.33333333 </v>
   <v>       0.44444444       0.44444444       0.44444444 </v>
  </varray>
  <varray name="weights" >
   <v>       0.00137174 </v>
   <v>       0.00823045 </v>
   <v>       0.00823045 </v>
   <v>       0.00823045 </v>
   <v>       0.00823045 </v>
   <v>       0.01646091 </v>
   <v>       0.03292181 </v>
   <v>       0.03292181 </v>
   <v>       0.03292181 </v>
   <v>       0.01646091 </v>
   <v>       0.03292181 </v>
   <v>       0.03292181 </v>
   <v>       0.01646091 </v>
   <v>       0.03292181 </v>
   <v>       0.01646091 </v>
   <v>       0.01097394 </v>
   <v>       0.03292181 </v>
   <v>       0.03292181 </v>
   <v>       0.03292181 </v>
   <v>       0.03292181 </v>
   <v>       0.06584362 </v>
   <v>       0.06584362 </v>
   <v>       0.03292181 </v>
   <v>       0.06584362 </v>
   <v>       0.03292181 </v>
   <v>       0.01097394 </v>
   <v>       0.03292181 </v>
   <v>       0.03292181 </v>
   <v>       0.03292181 </v>
   <v>       0.06584362 </v>
   <v>       0.03292181 </v>
   <v>       0.01097394 </v>
   <v>       0.03292181 </v>
   <v>       0.03292181 </v>
   <v>       0.01097394 </v>
  </varray>
 </kpoints>
 <parameters>
  <separator name="general" >
   <i type="string" name="SYSTEM">unknown system</i>
   <i type="logical" name="LCOMPAT"> F  </i>
  </separator>
  <separator name="electronic" >
   <i type="string" name="PREC">normal</i>
   <i name="ENMAX">    320.00000000</i>
   <i name="ENAUG">    586.98000000</i>
   <i name="EDIFF">      0.00000100</i>
   <i type="int" name="IALGO">    38</i>
   <i type="int" name="IWAVPR">     0</i>
   <i type="int" name="NBANDS">    30</i>
   <i type="int" name="NBANDSLOW">    -1</i>
   <i type="int" name="NBANDSHIGH">    -1</i>
   <i name="NELECT">     44.00000000</i>
   <i type="int" name="TURBO">     0</i>
   <i type="int" name="IRESTART">     0</i>
   <i type="int" name="NREBOOT">     0</i>
   <i type="int" name="NMIN">     0</i>
   <i name="EREF">      0.00000000</i>
   <separator name="electronic smearing" >
    <i type="int" name="ISMEAR">     1</i>
    <i name="SIGMA">      0.20000000</i>
    <i name="KSPACING">      0.50000000</i>
    <i type="logical" name="KGAMMA"> T  </i>
    <i type="logical" name="KBLOWUP"> T  </i>
   </separator>
   <separator name="electronic projectors" >
    <i type="logical" name="LREAL"> F  </i>
    <v name="ROPT">      0.00000000</v>
    <i type="int" name="LMAXPAW">  -100</i>
    <i type="int" name="LMAXMIX">     2</i>
    <i type="logical" name="NLSPLINE"> F  </i>
   </separator>
   <separator name="electronic startup" >
    <i type="int" name="ISTART">     0</i>
    <i type="int" name="ICHARG">     1</i>
    <i type="int" name="INIWAV">     1</i>
   </separator>
   <separator name="electronic spin" >
    <i type="int" name="ISPIN">     1</i>
    <i type="logical" name="LNONCOLLINEAR"> F  </i>
    <v name="MAGMOM">      1.00000000      1.00000000      1.00000000      1.00000000</v>
    <i name="NUPDOWN">     -1.00000000</i>
    <i type="logical" name="LSORBIT"> F  </i>
    <v name="SAXIS">      0.00000000      0.00000000      1.00000000</v>
    <i type="logical" name="LSPIRAL"> F  </i>
    <v name="QSPIRAL">      0.00000000      0.00000000      0.00000000</v>
    <i type="logical" name="LZEROZ"> F  </i>
   </separator>
   <separator name="electronic exchange-correlation" >
    <i type="logical" name="LASPH"> F  </i>
    <i type="logical" name="LMETAGGA"> F  </i>
   </separator>
   <separator name="electronic convergence" >
    <i type="int" name="NELM">    60</i>
    <i type="int" name="NELMDL">    -5</i>
    <i type="int" name="NELMIN">     2</i>
    <i name="ENINI">    320.00000000</i>
    <separator name="electronic convergence detail" >
     <i type="logical" name="LDIAG"> T  </i>
     <i type="logical" name="LSUBROT"> F  </i>
     <i name="WEIMIN">      0.00000000</i>
     <i name="EBREAK">      0.00000001</i>
     <i name="DEPER">      0.30000000</i>
     <i type="int" name="NRMM">     4</i>
     <i name="TIME">      0.40000000</i>
    </separator>
   </separator>
   <separator name="electronic mixer" >
    <i name="AMIX">      0.40000000</i>
    <i name="BMIX">      1.00000000</i>
    <i name="AMIN">      0.10000000</i>
    <i name="AMIX_MAG">      1.60000000</i>
    <i name="BMIX_MAG">      1.00000000</i>
    <separator name="electronic mixer details" >
     <i type="int" name="IMIX">     4</i>
     <i type="logical" name="MIXFIRST"> F  </i>
     <i type="int" name="MAXMIX">   -45</i>
     <i name="WC">    100.00000000</i>
     <i type="int" name="INIMIX">     1</i>
     <i type="int" name="MIXPRE">     1</i>
     <i type="int" name="MREMOVE">     5</i>
    </separator>
   </separator>
   <separator name="electronic dipolcorrection" >
    <i type="logical" name="LDIPOL"> F  </i>
    <i type="logical" name="LMONO"> F  </i>
    <i type="int" name="IDIPOL">     0</i>
    <i name="EPSILON">      1.00000000</i>
    <v name="DIPOL">   -100.00000000   -100.00000000   -100.00000000</v>
    <i name="EFIELD">      0.00000000</i>
   </separator>
  </separator>
  <separator name="grids" >
   <i type="int" name="NGX">    16</i>
   <i type="int" name="NGY">    16</i>
   <i type="int" name="NGZ">    16</i>
   <i type="int" name="NGXF">    32</i>
   <i type="int" name="NGYF">    32</i>
   <i type="int" name="NGZF">    32</i>
   <i type="logical" name="ADDGRID"> F  </i>
  </separator>
  <separator name="ionic" >
   <i type="int" name="NSW">     0</i>
   <i type="int" name="IBRION">    -1</i>
   <i type="int" name="MDALGO">     0</i>
   <i type="int" name="ISIF">     2</i>
   <i name="PSTRESS">      0.00000000</i>
   <i name="EDIFFG">      0.00001000</i>
   <i type="int" name="NFREE">     0</i>
   <i name="POTIM">      0.50000000</i>
   <i name="SMASS">     -3.00000000</i>
   <i name="SCALEE">      1.00000000</i>
  </separator>
  <separator name="ionic md" >
   <i name="TEBEG">      0.00010000</i>
   <i name="TEEND">      0.00010000</i>
   <i type="int" name="NBLOCK">     1</i>
   <i type="int" name="KBLOCK">     1</i>
   <i type="int" name="NPACO">   256</i>
   <i name="APACO">     16.00000000</i>
  </separator>
  <separator name="symmetry" >
   <i type="int" name="ISYM">     2</i>
   <i name="SYMPREC">      0.00001000</i>
  </separator>
  <separator name="dos" >
   <i type="int" name="LORBIT">     0</i>
   <v name="RWIGS">     -1.00000000</v>
   <i type="int" name="NEDOS">   301</i>
   <i name="EMIN">     10.00000000</i>
   <i name="EMAX">    -10.00000000</i>
   <i name="EFERMI">      0.00000000</i>
  </separator>
  <separator name="writing" >
   <i type="int" name="NWRITE">     2</i>
   <i type="logical" name="LWAVE"> T  </i>
   <i type="logical" name="LDOWNSAMPLE"> F  </i>
   <i type="logical" name="LCHARG"> T  </i>
   <i type="logical" name="LPARD"> F  </i>
   <i type="logical" name="LVTOT"> F  </i>
   <i type="logical" name="LVHAR"> F  </i>
   <i type="logical" name="LELF"> F  </i>
   <i type="logical" name="LOPTICS"> F  </i>
   <v name="STM">      0.00000000      0.00000000      0.00000000      0.00000000      0.00000000      0.00000000      0.00000000</v>
  </separator>
  <separator name="performance" >
   <i type="int" name="NPAR">     1</i>
   <i type="int" name="NSIM">     4</i>
   <i type="int" name="NBLK">    -1</i>
   <i type="logical" name="LPLANE"> T  </i>
   <i type="logical" name="LSCALAPACK"> F  </i>
   <i type="logical" name="LSCAAWARE"> F  </i>
   <i type="logical" name="LSCALU"> F  </i>
   <i type="logical" name="LASYNC"> F  </i>
   <i type="logical" name="LORBITALREAL"> F  </i>
  </separator>
  <separator name="miscellaneous" >
   <i type="int" name="IDIOT">     3</i>
   <i type="int" name="PHON_NSTRUCT">    -1</i>
   <i type="logical" name="LMUSIC"> F  </i>
   <v name="POMASS">     63.54600000</v>
   <v name="DARWINR">      0.00000000</v>
   <v name="DARWINV">      1.00000000</v>
   <i type="logical" name="LCORR"> T  </i>
  </separator>
  <i type="logical" name="GGA_COMPAT"> T  </i>
  <i type="logical" name="LBERRY"> F  </i>
  <i type="int" name="ICORELEVEL">     0</i>
  <i type="logical" name="LDAU"> F  </i>
  <i type="int" name="I_CONSTRAINED_M">     0</i>
  <separator name="electronic exchange-correlation" >
   <i type="string" name="GGA">PE</i>
   <i type="int" name="VOSKOWN">     0</i>
   <i type="logical" name="LHFCALC"> F  </i>
   <i type="string" name="PRECFOCK"></i>
   <i type="logical" name="LSYMGRAD"> F  </i>
   <i type="logical" name="LHFONE"> F  </i>
   <i type="logical" name="LRHFCALC"> F  </i>
   <i type="logical" name="LTHOMAS"> F  </i>
   <i type="logical" name="LMODELHF"> F  </i>
   <i type="logical" name="LFOCKACE"> F  </i>
   <i name="ENCUT4O">     -1.00000000</i>
   <i type="int" name="EXXOEP">     0</i>
   <i type="int" name="FOURORBIT">     0</i>
   <i name="AEXX">      0.00000000</i>
   <i name="HFALPHA">      0.00000000</i>
   <i name="MCALPHA">      0.00000000</i>
   <i name="ALDAX">      1.00000000</i>
   <i name="AGGAX">      1.00000000</i>
   <i name="ALDAC">      1.00000000</i>
   <i name="AGGAC">      1.00000000</i>
   <i type="int" name="NKREDX">     1</i>
   <i type="int" name="NKREDY">     1</i>
   <i type="int" name="NKREDZ">     1</i>
   <i type="logical" name="SHIFTRED"> F  </i>
   <i type="logical" name="ODDONLY"> F  </i>
   <i type="logical" name="EVENONLY"> F  </i>
   <i type="int" name="LMAXFOCK">     0</i>
   <i type="int" name="NMAXFOCKAE">     0</i>
   <i type="logical" name="LFOCKAEDFT"> F  </i>
   <i name="HFSCREEN">      0.00000000</i>
   <i name="HFSCREENC">      0.00000000</i>
   <i type="int" name="NBANDSGWLOW">     0</i>
  </separator>
  <separator name="vdW DFT" >
   <i type="logical" name="LUSE_VDW"> F  </i>
   <i name="Zab_VDW">     -0.84910000</i>
   <i name="PARAM1">      0.12340000</i>
   <i name="PARAM2">      1.00000000</i>
   <i name="PARAM3">      0.00000000</i>
  </separator>
  <separator name="model GW" >
   <i type="int" name="MODEL_GW">     0</i>
   <i name="MODEL_EPS0">      5.76360874</i>
   <i name="MODEL_ALPHA">      1.00000000</i>
  </separator>
  <separator name="linear response parameters" >
   <i type="logical" name="LEPSILON"> F  </i>
   <i type="logical" name="LRPA"> F  </i>
   <i type="logical" name="LNABLA"> F  </i>
   <i type="logical" name="LVEL"> F  </i>
   <i type="int" name="KINTER">     0</i>
   <i name="CSHIFT">      0.10000000</i>
   <i name="OMEGAMAX">     -1.00000000</i>
   <i name="DEG_THRESHOLD">      0.00200000</i>
   <i name="RTIME">     -0.10000000</i>
   <i name="WPLASMAI">      0.00000000</i>
   <v name="DFIELD">      0.00000000      0.00000000      0.00000000</v>
   <v name="WPLASMA">      0.00000000      0.00000000      0.00000000      0.00000000      0.00000000      0.00000000      0.00000000      0.00000000      0.00000000</v>
  </separator>
  <separator name="orbital magnetization" >
   <i type="logical" name="NUCIND"> F  </i>
   <v name="MAGPOS">      0.00000000      0.00000000      0.00000000</v>
   <i type="logical" name="LNICSALL"> T  </i>
   <i type="logical" name="ORBITALMAG"> F  </i>
   <i type="logical" name="LMAGBLOCH"> F  </i>
   <i type="logical" name="LCHIMAG"> F  </i>
   <i type="logical" name="LGAUGE"> T  </i>
   <i type="int" name="MAGATOM">     0</i>
   <v name="MAGDIPOL">      0.00000000      0.00000000      0.00000000</v>
   <v name="AVECCONST">      0.00000000      0.00000000      0.00000000</v>
  </separator>
  <separator name="response functions" >
   <i type="logical" name="LFINITE_TEMPERATURE"> F  </i>
   <i type="logical" name="LADDER"> F  </i>
   <i type="logical" name="LRPAFORCE"> F  </i>
   <i type="logical" name="LFXC"> F  </i>
   <i type="logical" name="LHARTREE"> T  </i>
   <i type="int" name="IBSE">     0</i>
   <v type="int" name="KPOINT">    -1     0     0     0</v>
   <i type="logical" name="LTCTC"> F  </i>
   <i type="logical" name="LTCTE"> F  </i>
   <i type="logical" name="LTETE"> F  </i>
   <i type="logical" name="LTRIPLET"> F  </i>
   <i type="logical" name="LFXCEPS"> F  </i>
   <i type="logical" name="LFXHEG"> F  </i>
   <i type="int" name="NATURALO">     2</i>
   <i type="logical" name="LHOLEGF"> F  </i>
   <i type="logical" name="L2ORDER"> F  </i>
   <i type="logical" name="LDMP1"> F  </i>
   <i type="logical" name="LMP2LT"> F  </i>
   <i type="logical" name="LSMP2LT"> F  </i>
   <i type="logical" name="LGWLF"> F  </i>
   <i name="ENCUTGW">     -2.00000000</i>
   <i name="ENCUTGWSOFT">     -2.00000000</i>
   <i name="ENCUTLF">     -1.00000000</i>
   <i type="logical" name="LESF_SPLINES"> F  </i>
   <i type="int" name="LMAXMP2">    -1</i>
   <i name="SCISSOR">      0.00000000</i>
   <i type="int" name="NOMEGA">     0</i>
   <i type="int" name="NOMEGAR">     0</i>
   <i type="int" name="NBANDSGW">    -1</i>
   <i type="int" name="NBANDSO">    -1</i>
   <i type="int" name="NBANDSV">    -1</i>
   <i type="int" name="NELM">     1</i>
   <i type="int" name="NELMHF">     1</i>
   <i type="int" name="DIM">     3</i>
   <i type="int" name="IESPILON">     4</i>
   <i type="int" name="ANTIRES">     0</i>
   <i name="OMEGAMAX">    -30.00000000</i>
   <i name="OMEGAMIN">    -30.00000000</i>
   <i name="OMEGATL">   -200.00000000</i>
   <i type="int" name="OMEGAGRID">     0</i>
   <i name="CSHIFT">     -0.10000000</i>
   <i type="logical" name="LSELFENERGY"> F  </i>
   <i type="logical" name="LSPECTRAL"> F  </i>
   <i type="logical" name="LSPECTRALGW"> F  </i>
   <i type="logical" name="LSINGLES"> F  </i>
   <i type="logical" name="LFERMIGW"> F  </i>
   <i type="logical" name="ODDONLYGW"> F  </i>
   <i type="logical" name="EVENONLYGW"> F  </i>
   <i type="int" name="NKREDLFX">     1</i>
   <i type="int" name="NKREDLFY">     1</i>
   <i type="int" name="NKREDLFZ">     1</i>
   <i type="int" name="MAXMEM">  2800</i>
   <i type="int" name="TELESCOPE">     0</i>
   <i type="int" name="NTAUPAR">    -1</i>
   <i type="int" name="NOMEGAPAR">    -1</i>
   <i name="DAMP_NEWTON">      0.80000001</i>
   <i name="LAMBDA">      1.00000000</i>
  </separator>
  <separator name="External order field" >
   <i name="OFIELD_KAPPA">      0.00000000</i>
   <v name="OFIELD_K">      0.00000000      0.00000000      0.00000000</v>
   <i name="OFIELD_Q6_NEAR">      0.00000000</i>
   <i name="OFIELD_Q6_FAR">      0.00000000</i>
   <i name="OFIELD_A">      0.00000000</i>
  </separator>
 </parameters>
 <atominfo>
  <atoms>       4 </atoms>
  <types>       1 </types>
  <array name="atoms" >
   <dimension dim="1">ion</dimension>
   <field type="string">element</field>
   <field type="int">atomtype</field>
   <set>
    <rc><c>Cu</c><c>   1</c></rc>
    <rc><c>Cu</c><c>   1</c></rc>
    <rc><c>Cu</c><c>   1</c></rc>
    <rc><c>Cu</c><c>   1</c></rc>
   </set>
  </array>
  <array name="atomtypes" >
   <dimension dim="1">type</dimension>
   <field type="int">atomspertype</field>
   <field type="string">element</field>
   <field>mass</field>
   <field>valence</field>
   <field type="string">pseudopotential</field>
   <set>
    <rc><c>   4</c><c>Cu</c><c>     63.54600000</c><c>     11.00000000</c><c>  PAW_PBE Cu 22Jun2005                  </c></rc>
   </set>
  </array>
 </atominfo>
 <structure name="initialpos" >
  <crystal>
   <varray name="basis" >
    <v>       3.37443508       0.00000000       0.00000000 </v>
    <v>       0.00000000       3.37443508       0.00000000 </v>
    <v>       0.00000000       0.00000000       3.37443508 </v>
   </varray>
   <i name="volume">     38.42405830 </i>
   <varray name="rec_basis" >
    <v>       0.29634590       0.00000000       0.00000000 </v>
    <v>       0.00000000       0.29634590       0.00000000 </v>
    <v>       0.00000000       0.00000000       0.29634590 </v>
   </varray>
  </crystal>
  <varray name="positions" >
   <v>       0.00000000       0.00000000       0.00000000 </v>
   <v>       0.50000000       0.50000000       0.00000000 </v>
   <v>       0.50000000       0.00000000       0.50000000 </v>
   <v>       0.00000000       0.50000000       0.50000000 </v>
  </varray>
 </structure>
 <calculation>
  <scstep>
   <time name="dav">    0.43    0.46</time>
   <time name="total">    0.45    0.47</time>
   <energy>
    <i name="alphaZ">    304.52922231 </i>
    <i name="ewald">  -4734.74551764 </i>
    <i name="hartreedc">  -1285.48833429 </i>
    <i name="XCdc">    185.72505334 </i>
    <i name="pawpsdc">   4912.82663951 </i>
    <i name="pawaedc">  -5336.19386850 </i>
    <i name="eentropy">     -0.00713122 </i>
    <i name="bandstr">    673.63901707 </i>
    <i name="atom">   5563.77610493 </i>
    <i name="e_fr_energy">    284.06118550 </i>
    <i name="e_wo_entrp">    284.06831672 </i>
    <i name="e_0_energy">    284.06356258 </i>
   </energy>
  </scstep>
  <scstep>
   <time name="dav">    0.39    0.39</time>
   <time name="total">    0.39    0.39</time>
   <energy>
    <i name="e_fr_energy">      5.53435860 </i>
    <i name="e_wo_entrp">      5.53093168 </i>
    <i name="e_0_energy">      5.53321630 </i>
   </energy>
  </scstep>
  <scstep>
   <time name="dav">    0.41    0.41</time>
   <time name="total">    0.42    0.42</time>
   <energy>
    <i name="e_fr_energy">    -16.94255461 </i>
    <i name="e_wo_entrp">    -16.93924355 </i>
    <i name="e_0_energy">    -16.94145092 </i>
   </energy>
  </scstep>
  <scstep>
   <time name="dav">    0.43    0.43</time>
   <time name="total">    0.43    0.43</time>
   <energy>
    <i name="e_fr_energy">    -17.39759540 </i>
    <i name="e_wo_entrp">    -17.39433216 </i>
    <i name="e_0_energy">    -17.39650765 </i>
   </energy>
  </scstep>
  <scstep>
   <time name="dav">    0.44    0.44</time>
   <time name="total">    0.47    0.47</time>
   <energy>
    <i name="e_fr_energy">    -17.40535005 </i>
    <i name="e_wo_entrp">    -17.40208830 </i>
    <i name="e_0_energy">    -17.40426280 </i>
   </energy>
  </scstep>
  <scstep>
   <time name="dav">    0.41    0.41</time>
   <time name="total">    0.45    0.45</time>
   <energy>
    <i name="e_fr_energy">    -14.47615476 </i>
    <i name="e_wo_entrp">    -14.47396122 </i>
    <i name="e_0_energy">    -14.47542358 </i>
   </energy>
  </scstep>
  <scstep>
   <time name="dav">    0.40    0.40</time>
   <time name="total">    0.45    0.45</time>
   <energy>
    <i name="e_fr_energy">    -13.71680340 </i>
    <i name="e_wo_entrp">    -13.71604680 </i>
    <i name="e_0_energy">    -13.71655120 </i>
   </energy>
  </scstep>
  <scstep>
   <time name="dav">    0.48    0.48</time>
   <time name="total">    0.52    0.52</time>
   <energy>
    <i name="e_fr_energy">    -13.64978569 </i>
    <i name="e_wo_entrp">    -13.64890812 </i>
    <i name="e_0_energy">    -13.64949317 </i>
   </energy>
  </scstep>
  <scstep>
   <time name="dav">    0.46    0.46</time>
   <time name="total">    0.50    0.50</time>
   <energy>
    <i name="e_fr_energy">    -13.64387032 </i>
    <i name="e_wo_entrp">    -13.64286257 </i>
    <i name="e_0_energy">    -13.64353440 </i>
   </energy>
  </scstep>
  <scstep>
   <time name="dav">    0.49    0.49</time>
   <time name="total">    0.53    0.53</time>
   <energy>
    <i name="e_fr_energy">    -13.64390757 </i>
    <i name="e_wo_entrp">    -13.64287785 </i>
    <i name="e_0_energy">    -13.64356433 </i>
   </energy>
  </scstep>
  <scstep>
   <time name="dav">    0.40    0.40</time>
   <time name="total">    0.45    0.45</time>
   <energy>
    <i name="e_fr_energy">    -13.64390375 </i>
    <i name="e_wo_entrp">    -13.64288001 </i>
    <i name="e_0_energy">    -13.64356250 </i>
   </energy>
  </scstep>
  <scstep>
   <time name="dav">    0.38    0.38</time>
   <time name="total">    0.43    0.43</time>
   <energy>
    <i name="e_fr_energy">    -13.64390587 </i>
    <i name="e_wo_entrp">    -13.64287989 </i>
    <i name="e_0_energy">    -13.64356387 </i>
   </energy>
  </scstep>
  <scstep>
   <time name="dav">    0.27    0.27</time>
   <time name="total">    0.28    0.28</time>
   <energy>
    <i name="alphaZ">    304.52922231 </i>
    <i name="ewald">  -4734.74551764 </i>
    <i name="hartreedc">  -1185.23713224 </i>
    <i name="XCdc">    180.75186270 </i>
    <i name="pawpsdc">   5646.22319660 </i>
    <i name="pawaedc">  -6084.55991577 </i>
    <i name="eentropy">     -0.00102545 </i>
    <i name="bandstr">    295.61929905 </i>
    <i name="atom">   5563.77610493 </i>
    <i name="e_fr_energy">    -13.64390551 </i>
    <i name="e_wo_entrp">    -13.64288006 </i>
    <i name="e_0_energy">    -13.64356370 </i>
   </energy>
  </scstep>
  <structure>
   <crystal>
    <varray name="basis" >
     <v>       3.37443508       0.00000000       0.00000000 </v>
     <v>       0.00000000       3.37443508       0.00000000 </v>
     <v>       0.00000000       0.00000000       3.37443508 </v>
    </varray>
    <i name="volume">     38.42405830 </i>
    <varray name="rec_basis" >
     <v>       0.29634590       0.00000000       0.00000000 </v>
     <v>       0.00000000       0.29634590       0.00000000 </v>
     <v>       0.00000000       0.00000000       0.29634590 </v>
    </varray>
   </crystal>
   <varray name="positions" >
    <v>       0.00000000       0.00000000       0.00000000 </v>
    <v>       0.50000000       0.50000000       0.00000000 </v>
    <v>       0.50000000       0.00000000       0.50000000 </v>
    <v>       0.00000000       0.50000000       0.50000000 </v>
   </varray>
  </structure>
  <varray name="forces" >
   <v>      -0.00000000       0.00000000       0.00000000 </v>
   <v>       0.00000000       0.00000000      -0.00000000 </v>
   <v>       0.00000000      -0.00000000      -0.00000000 </v>
   <v>      -0.00000000      -0.00000000       0.00000000 </v>
  </varray>
  <varray name="stress" >
   <v>     530.93300861      -0.00000000      -0.00000000 </v>
   <v>       0.00000000     530.93300861       0.00000000 </v>
   <v>       0.00000000      -0.00000000     530.93300861 </v>
  </varray>
  <energy>
   <i name="e_fr_energy">    -13.64390551 </i>
   <i name="e_wo_entrp">    -13.64288006 </i>
   <i name="e_0_energy">    -13.64356370 </i>
  </energy>
  <time name="totalsc">    6.12    6.14</time>
  <eigenvalues>
   <array>
    <dimension dim="1">band</dimension>
    <dimension dim="2">kpoint</dimension>
    <dimension dim="3">spin</dimension>
    <field>eigene</field>
    <field>occ</field>
    <set>
     <set comment="spin 1">
      <set comment="kpoint 1">
       <r>   -0.5997    1.0000 </r>
       <r>    4.1771    1.0000 </r>
       <r>    4.1771    1.0000 </r>
       <r>    4.1771    1.0000 </r>
       <r>    4.7848    1.0000 </r>
       <r>    4.7848    1.0000 </r>
       <r>    4.7848    1.0000 </r>
       <r>    6.7008    1.0000 </r>
       <r>    6.7008    1.0000 </r>
       <r>    6.7008    1.0000 </r>
       <r>    7.8396    1.0000 </r>
       <r>    7.8396    1.0000 </r>
       <r>    8.5952    1.0000 </r>
       <r>    8.5952    1.0000 </r>
       <r>    8.5952    1.0000 </r>
       <r>    8.8100    1.0000 </r>
       <r>    8.8100    1.0000 </r>
       <r>    8.8100    1.0000 </r>
       <r>    8.8100    1.0000 </r>
       <r>    8.8100    1.0000 </r>
       <r>    8.8100    1.0000 </r>
       <r>   11.7975   -0.0000 </r>
       <r>   11.7975   -0.0000 </r>
       <r>   11.7975   -0.0000 </r>
       <r>   19.1322    0.0000 </r>
       <r>   19.1322    0.0000 </r>
       <r>   19.1322    0.0000 </r>
       <r>   25.2290    0.0000 </r>
       <r>   25.2290    0.0000 </r>
       <r>   25.2290    0.0000 </r>
      </set>
      <set comment="kpoint 2">
       <r>   -0.4253    1.0000 </r>
       <r>    4.1854    1.0000 </r>
       <r>    4.2664    1.0000 </r>
       <r>    4.2664    1.0000 </r>
       <r>    4.8381    1.0000 </r>
       <r>    4.8425    1.0000 </r>
       <r>    4.8425    1.0000 </r>
       <r>    6.6386    1.0000 </r>
       <r>    6.7494    1.0000 </r>
       <r>    6.7494    1.0000 </r>
       <r>    7.7829    1.0000 </r>
       <r>    7.8618    1.0000 </r>
       <r>    8.4284    1.0000 </r>
       <r>    8.4284    1.0000 </r>
       <r>    8.5214    1.0000 </r>
       <r>    8.5214    1.0000 </r>
       <r>    8.5717    1.0000 </r>
       <r>    8.7241    1.0000 </r>
       <r>    8.7241    1.0000 </r>
       <r>    8.8101    1.0000 </r>
       <r>    8.8101    1.0000 </r>
       <r>   10.9370   -0.0058 </r>
       <r>   12.3260   -0.0000 </r>
       <r>   12.3260   -0.0000 </r>
       <r>   19.1730    0.0000 </r>
       <r>   19.1730    0.0000 </r>
       <r>   20.2965    0.0000 </r>
       <r>   24.2342    0.0000 </r>
       <r>   24.2342    0.0000 </r>
       <r>   24.6495    0.0000 </r>
      </set>
      <set comment="kpoint 3">
       <r>    0.0890    1.0000 </r>
       <r>    4.1514    1.0000 </r>
       <r>    4.5115    1.0000 </r>
       <r>    4.5115    1.0000 </r>
       <r>    4.9933    1.0000 </r>
       <r>    5.0168    1.0000 </r>
       <r>    5.0168    1.0000 </r>
       <r>    6.4598    1.0000 </r>
       <r>    6.8916    1.0000 </r>
       <r>    6.8916    1.0000 </r>
       <r>    7.6248    1.0000 </r>
       <r>    7.6851    1.0000 </r>
       <r>    7.6851    1.0000 </r>
       <r>    7.9256    1.0000 </r>
       <r>    8.3142    1.0000 </r>
       <r>    8.3142    1.0000 </r>
       <r>    8.4878    1.0000 </r>
       <r>    8.4878    1.0000 </r>
       <r>    8.5043    1.0000 </r>
       <r>    8.8105    1.0000 </r>
       <r>    8.8105    1.0000 </r>
       <r>    9.3013    1.0000 </r>
       <r>   13.5082   -0.0000 </r>
       <r>   13.5082   -0.0000 </r>
       <r>   19.3023    0.0000 </r>
       <r>   19.3023    0.0000 </r>
       <r>   22.3571    0.0000 </r>
       <r>   22.3571    0.0000 </r>
       <r>   22.8816    0.0000 </r>
       <r>   23.4359    0.0000 </r>
      </set>
      <set comment="kpoint 4">
       <r>    0.9117    1.0000 </r>
       <r>    3.8610    1.0000 </r>
       <r>    4.8360    1.0000 </r>
       <r>    4.8360    1.0000 </r>
       <r>    5.2348    1.0000 </r>
       <r>    5.3110    1.0000 </r>
       <r>    5.3110    1.0000 </r>
       <r>    6.1915    1.0000 </r>
       <r>    6.9324    1.0000 </r>
       <r>    6.9324    1.0000 </r>
       <r>    7.1217    1.0000 </r>
       <r>    7.1217    1.0000 </r>
       <r>    7.4065    1.0000 </r>
       <r>    7.9189    1.0000 </r>
       <r>    8.0240    1.0000 </r>
       <r>    8.0306    1.0000 </r>
       <r>    8.0306    1.0000 </r>
       <r>    8.1536    1.0000 </r>
       <r>    8.1536    1.0000 </r>
       <r>    8.4017    1.0000 </r>
       <r>    8.8108    1.0000 </r>
       <r>    8.8108    1.0000 </r>
       <r>   14.9856   -0.0000 </r>
       <r>   14.9856   -0.0000 </r>
       <r>   19.5295    0.0000 </r>
       <r>   19.5295    0.0000 </r>
       <r>   20.3737    0.0000 </r>
       <r>   20.3737    0.0000 </r>
       <r>   22.2463    0.0000 </r>
       <r>   22.2463    0.0000 </r>
      </set>
      <set comment="kpoint 5">
       <r>    1.9671    1.0000 </r>
       <r>    3.0705    1.0000 </r>
       <r>    5.0896    1.0000 </r>
       <r>    5.0896    1.0000 </r>
       <r>    5.5383    1.0000 </r>
       <r>    5.7293    1.0000 </r>
       <r>    5.7293    1.0000 </r>
       <r>    5.8709    1.0000 </r>
       <r>    6.2714    1.0000 </r>
       <r>    6.2714    1.0000 </r>
       <r>    7.2213    1.0000 </r>
       <r>    7.2711    1.0000 </r>
       <r>    7.4267    1.0000 </r>
       <r>    7.4267    1.0000 </r>
       <r>    7.7827    1.0000 </r>
       <r>    7.7827    1.0000 </r>
       <r>    7.8028    1.0000 </r>
       <r>    7.8028    1.0000 </r>
       <r>    8.1459    1.0000 </r>
       <r>    8.2771    1.0000 </r>
       <r>    8.8110    1.0000 </r>
       <r>    8.8110    1.0000 </r>
       <r>   16.6482    0.0000 </r>
       <r>   16.6482    0.0000 </r>
       <r>   18.4541    0.0000 </r>
       <r>   18.4541    0.0000 </r>
       <r>   19.7989    0.0000 </r>
       <r>   19.7989    0.0000 </r>
       <r>   21.4427    0.0000 </r>
       <r>   21.4427    0.0000 </r>
      </set>
      <set comment="kpoint 6">
       <r>   -0.2525    1.0000 </r>
       <r>    4.2779    1.0000 </r>
       <r>    4.2779    1.0000 </r>
       <r>    4.3524    1.0000 </r>
       <r>    4.8940    1.0000 </r>
       <r>    4.8940    1.0000 </r>
       <r>    4.8966    1.0000 </r>
       <r>    6.6038    1.0000 </r>
       <r>    6.7718    1.0000 </r>
       <r>    6.7884    1.0000 </r>
       <r>    7.7680    1.0000 </r>
       <r>    7.8511    1.0000 </r>
       <r>    8.1820    1.0000 </r>
       <r>    8.2752    1.0000 </r>
       <r>    8.2752    1.0000 </r>
       <r>    8.4533    1.0000 </r>
       <r>    8.5344    1.0000 </r>
       <r>    8.5344    1.0000 </r>
       <r>    8.7239    1.0000 </r>
       <r>    8.7239    1.0000 </r>
       <r>    8.7551    1.0000 </r>
       <r>   11.4669   -0.0000 </r>
       <r>   11.4669   -0.0000 </r>
       <r>   12.7750   -0.0000 </r>
       <r>   19.2035    0.0000 </r>
       <r>   20.3669    0.0000 </r>
       <r>   20.3669    0.0000 </r>
       <r>   22.4531    0.0000 </r>
       <r>   24.4740    0.0000 </r>
       <r>   24.4741    0.0000 </r>
      </set>
      <set comment="kpoint 7">
       <r>    0.2567    1.0000 </r>
       <r>    4.2532    1.0000 </r>
       <r>    4.5326    1.0000 </r>
       <r>    4.5891    1.0000 </r>
       <r>    5.0435    1.0000 </r>
       <r>    5.0586    1.0000 </r>
       <r>    5.0625    1.0000 </r>
       <r>    6.4465    1.0000 </r>
       <r>    6.8998    1.0000 </r>
       <r>    6.8999    1.0000 </r>
       <r>    7.5339    1.0000 </r>
       <r>    7.5688    1.0000 </r>
       <r>    7.6387    1.0000 </r>
       <r>    7.9066    1.0000 </r>
       <r>    7.9175    1.0000 </r>
       <r>    8.2610    1.0000 </r>
       <r>    8.3247    1.0000 </r>
       <r>    8.4707    1.0000 </r>
       <r>    8.4867    1.0000 </r>
       <r>    8.7231    1.0000 </r>
       <r>    8.7257    1.0000 </r>
       <r>    9.9349    1.0001 </r>
       <r>   12.5574   -0.0000 </r>
       <r>   13.8585   -0.0000 </r>
       <r>   19.2198    0.0000 </r>
       <r>   20.5822    0.0000 </r>
       <r>   20.5865    0.0000 </r>
       <r>   22.5787    0.0000 </r>
       <r>   22.9640    0.0000 </r>
       <r>   23.6634    0.0000 </r>
      </set>
      <set comment="kpoint 8">
       <r>    1.0705    1.0000 </r>
       <r>    3.9769    1.0000 </r>
       <r>    4.8744    1.0000 </r>
       <r>    4.9089    1.0000 </r>
       <r>    5.2763    1.0000 </r>
       <r>    5.3235    1.0000 </r>
       <r>    5.3466    1.0000 </r>
       <r>    6.1933    1.0000 </r>
       <r>    6.8055    1.0000 </r>
       <r>    6.8860    1.0000 </r>
       <r>    7.0376    1.0000 </r>
       <r>    7.1253    1.0000 </r>
       <r>    7.3674    1.0000 </r>
       <r>    7.4888    1.0000 </r>
       <r>    7.9966    1.0000 </r>
       <r>    8.0406    1.0000 </r>
       <r>    8.0435    1.0000 </r>
       <r>    8.1523    1.0000 </r>
       <r>    8.2874    1.0000 </r>
       <r>    8.7195    1.0000 </r>
       <r>    8.7219    1.0000 </r>
       <r>    8.8326    1.0000 </r>
       <r>   13.8458   -0.0000 </r>
       <r>   15.2755   -0.0000 </r>
       <r>   18.3091    0.0000 </r>
       <r>   19.9445    0.0000 </r>
       <r>   20.5949    0.0000 </r>
       <r>   20.9048    0.0000 </r>
       <r>   22.5149    0.0000 </r>
       <r>   24.2288    0.0000 </r>
      </set>
      <set comment="kpoint 9">
       <r>    2.1128    1.0000 </r>
       <r>    3.2006    1.0000 </r>
       <r>    5.1517    1.0000 </r>
       <r>    5.1663    1.0000 </r>
       <r>    5.5683    1.0000 </r>
       <r>    5.6857    1.0000 </r>
       <r>    5.7484    1.0000 </r>
       <r>    5.8865    1.0000 </r>
       <r>    6.1794    1.0000 </r>
       <r>    6.2651    1.0000 </r>
       <r>    7.0219    1.0000 </r>
       <r>    7.0261    1.0000 </r>
       <r>    7.4275    1.0000 </r>
       <r>    7.5824    1.0000 </r>
       <r>    7.7822    1.0000 </r>
       <r>    7.7894    1.0000 </r>
       <r>    7.8085    1.0000 </r>
       <r>    7.9200    1.0000 </r>
       <r>    8.2003    1.0000 </r>
       <r>    8.4039    1.0000 </r>
       <r>    8.7191    1.0000 </r>
       <r>    8.7204    1.0000 </r>
       <r>   15.2456   -0.0000 </r>
       <r>   16.7427    0.0000 </r>
       <r>   16.9018    0.0000 </r>
       <r>   18.6861    0.0000 </r>
       <r>   20.3088    0.0000 </r>
       <r>   20.8545    0.0000 </r>
       <r>   22.2395    0.0000 </r>
       <r>   23.0436    0.0000 </r>
      </set>
      <set comment="kpoint 10">
       <r>    0.7501    1.0000 </r>
       <r>    4.5372    1.0000 </r>
       <r>    4.5372    1.0000 </r>
       <r>    4.8024    1.0000 </r>
       <r>    5.1835    1.0000 </r>
       <r>    5.1952    1.0000 </r>
       <r>    5.1952    1.0000 </r>
       <r>    6.3637    1.0000 </r>
       <r>    6.9260    1.0000 </r>
       <r>    6.9733    1.0000 </r>
       <r>    7.1696    1.0000 </r>
       <r>    7.1696    1.0000 </r>
       <r>    7.2237    1.0000 </r>
       <r>    7.5949    1.0000 </r>
       <r>    7.9853    1.0000 </r>
       <r>    8.1072    1.0000 </r>
       <r>    8.2849    1.0000 </r>
       <r>    8.2849    1.0000 </r>
       <r>    8.4842    1.0000 </r>
       <r>    8.4842    1.0000 </r>
       <r>    8.5936    1.0000 </r>
       <r>   10.9278   -0.0068 </r>
       <r>   10.9278   -0.0068 </r>
       <r>   14.7810   -0.0000 </r>
       <r>   17.9763    0.0000 </r>
       <r>   19.8757    0.0000 </r>
       <r>   23.1181    0.0000 </r>
       <r>   23.1181    0.0000 </r>
       <r>   23.2154    0.0000 </r>
       <r>   23.2154    0.0000 </r>
      </set>
      <set comment="kpoint 11">
       <r>    1.5355    1.0000 </r>
       <r>    4.3015    1.0000 </r>
       <r>    4.9302    1.0000 </r>
       <r>    5.1009    1.0000 </r>
       <r>    5.3689    1.0000 </r>
       <r>    5.3998    1.0000 </r>
       <r>    5.4481    1.0000 </r>
       <r>    6.1780    1.0000 </r>
       <r>    6.5160    1.0000 </r>
       <r>    6.7390    1.0000 </r>
       <r>    6.7902    1.0000 </r>
       <r>    6.9302    1.0000 </r>
       <r>    7.1599    1.0000 </r>
       <r>    7.5086    1.0000 </r>
       <r>    7.8901    1.0000 </r>
       <r>    8.0198    1.0000 </r>
       <r>    8.1236    1.0000 </r>
       <r>    8.1503    1.0000 </r>
       <r>    8.1808    1.0000 </r>
       <r>    8.4815    1.0000 </r>
       <r>    8.5195    1.0000 </r>
       <r>    9.6292    1.0000 </r>
       <r>   12.0220   -0.0000 </r>
       <r>   16.0748    0.0000 </r>
       <r>   16.1744    0.0000 </r>
       <r>   20.1539    0.0000 </r>
       <r>   21.2303    0.0000 </r>
       <r>   22.5447    0.0000 </r>
       <r>   24.1985    0.0000 </r>
       <r>   24.2323    0.0000 </r>
      </set>
      <set comment="kpoint 12">
       <r>    2.5349    1.0000 </r>
       <r>    3.5698    1.0000 </r>
       <r>    5.2864    1.0000 </r>
       <r>    5.3804    1.0000 </r>
       <r>    5.5681    1.0000 </r>
       <r>    5.6540    1.0000 </r>
       <r>    5.8001    1.0000 </r>
       <r>    5.9264    1.0000 </r>
       <r>    5.9715    1.0000 </r>
       <r>    6.2405    1.0000 </r>
       <r>    6.6806    1.0000 </r>
       <r>    6.8117    1.0000 </r>
       <r>    7.4414    1.0000 </r>
       <r>    7.5912    1.0000 </r>
       <r>    7.7285    1.0000 </r>
       <r>    7.7811    1.0000 </r>
       <r>    7.7849    1.0000 </r>
       <r>    7.8485    1.0000 </r>
       <r>    8.4621    1.0000 </r>
       <r>    8.4814    1.0000 </r>
       <r>    8.4900    1.0000 </r>
       <r>    8.8763    1.0000 </r>
       <r>   13.2242   -0.0000 </r>
       <r>   14.5877   -0.0000 </r>
       <r>   17.6183    0.0000 </r>
       <r>   19.3494    0.0000 </r>
       <r>   20.7075    0.0000 </r>
       <r>   21.5214    0.0000 </r>
       <r>   24.9632    0.0000 </r>
       <r>   25.4485    0.0000 </r>
      </set>
      <set comment="kpoint 13">
       <r>    2.2674    1.0000 </r>
       <r>    4.7575    1.0000 </r>
       <r>    4.7575    1.0000 </r>
       <r>    5.3118    1.0000 </r>
       <r>    5.4852    1.0000 </r>
       <r>    5.6016    1.0000 </r>
       <r>    5.6016    1.0000 </r>
       <r>    6.1059    1.0000 </r>
       <r>    6.3129    1.0000 </r>
       <r>    6.3129    1.0000 </r>
       <r>    6.4919    1.0000 </r>
       <r>    6.8367    1.0000 </r>
       <r>    7.2762    1.0000 </r>
       <r>    7.4196    1.0000 </r>
       <r>    7.7241    1.0000 </r>
       <r>    7.8810    1.0000 </r>
       <r>    7.8810    1.0000 </r>
       <r>    8.1530    1.0000 </r>
       <r>    8.1530    1.0000 </r>
       <r>    8.3364    1.0000 </r>
       <r>    8.4830    1.0000 </r>
       <r>   10.5115    0.5274 </r>
       <r>   10.5115    0.5274 </r>
       <r>   14.2933   -0.0000 </r>
       <r>   17.2519    0.0000 </r>
       <r>   20.5957    0.0000 </r>
       <r>   22.2139    0.0000 </r>
       <r>   22.2139    0.0000 </r>
       <r>   23.4702    0.0000 </r>
       <r>   23.4702    0.0000 </r>
      </set>
      <set comment="kpoint 14">
       <r>    3.1808    1.0000 </r>
       <r>    4.1062    1.0000 </r>
       <r>    5.1889    1.0000 </r>
       <r>    5.3837    1.0000 </r>
       <r>    5.6877    1.0000 </r>
       <r>    5.7845    1.0000 </r>
       <r>    5.8707    1.0000 </r>
       <r>    5.9474    1.0000 </r>
       <r>    5.9653    1.0000 </r>
       <r>    6.1830    1.0000 </r>
       <r>    6.4151    1.0000 </r>
       <r>    6.6587    1.0000 </r>
       <r>    7.4419    1.0000 </r>
       <r>    7.4988    1.0000 </r>
       <r>    7.5947    1.0000 </r>
       <r>    7.6423    1.0000 </r>
       <r>    7.6556    1.0000 </r>
       <r>    7.8059    1.0000 </r>
       <r>    8.1713    1.0000 </r>
       <r>    8.2241    1.0000 </r>
       <r>    8.9026    1.0000 </r>
       <r>    9.5129    1.0000 </r>
       <r>   11.5232   -0.0000 </r>
       <r>   12.7537   -0.0000 </r>
       <r>   18.7044    0.0000 </r>
       <r>   20.3707    0.0000 </r>
       <r>   21.2782    0.0000 </r>
       <r>   22.2346    0.0000 </r>
       <r>   23.4753    0.0000 </r>
       <r>   24.5776    0.0000 </r>
      </set>
      <set comment="kpoint 15">
       <r>    3.9464    1.0000 </r>
       <r>    4.6719    1.0000 </r>
       <r>    4.6719    1.0000 </r>
       <r>    5.1091    1.0000 </r>
       <r>    5.9371    1.0000 </r>
       <r>    5.9371    1.0000 </r>
       <r>    5.9733    1.0000 </r>
       <r>    5.9930    1.0000 </r>
       <r>    6.0794    1.0000 </r>
       <r>    6.2185    1.0000 </r>
       <r>    6.2185    1.0000 </r>
       <r>    6.4920    1.0000 </r>
       <r>    7.3478    1.0000 </r>
       <r>    7.4477    1.0000 </r>
       <r>    7.4567    1.0000 </r>
       <r>    7.4567    1.0000 </r>
       <r>    7.6370    1.0000 </r>
       <r>    7.8698    1.0000 </r>
       <r>    7.8698    1.0000 </r>
       <r>    8.0057    1.0000 </r>
       <r>    9.4803    1.0000 </r>
       <r>   10.2967    1.0330 </r>
       <r>   10.2967    1.0330 </r>
       <r>   11.3351   -0.0000 </r>
       <r>   20.0758    0.0000 </r>
       <r>   21.6770    0.0000 </r>
       <r>   21.6770    0.0000 </r>
       <r>   22.0965    0.0000 </r>
       <r>   23.1939    0.0000 </r>
       <r>   23.1939    0.0000 </r>
      </set>
      <set comment="kpoint 16">
       <r>   -0.0817    1.0000 </r>
       <r>    4.3661    1.0000 </r>
       <r>    4.3661    1.0000 </r>
       <r>    4.3661    1.0000 </r>
       <r>    4.9465    1.0000 </r>
       <r>    4.9465    1.0000 </r>
       <r>    4.9465    1.0000 </r>
       <r>    6.5734    1.0000 </r>
       <r>    6.8054    1.0000 </r>
       <r>    6.8054    1.0000 </r>
       <r>    7.8014    1.0000 </r>
       <r>    7.8014    1.0000 </r>
       <r>    8.0513    1.0000 </r>
       <r>    8.0513    1.0000 </r>
       <r>    8.0513    1.0000 </r>
       <r>    8.3737    1.0000 </r>
       <r>    8.3737    1.0000 </r>
       <r>    8.3737    1.0000 </r>
       <r>    8.7361    1.0000 </r>
       <r>    8.7361    1.0000 </r>
       <r>    8.7361    1.0000 </r>
       <r>   11.8874   -0.0000 </r>
       <r>   11.8874   -0.0000 </r>
       <r>   11.8874   -0.0000 </r>
       <r>   20.4215    0.0000 </r>
       <r>   20.4215    0.0000 </r>
       <r>   20.4215    0.0000 </r>
       <r>   22.6910    0.0000 </r>
       <r>   22.6910    0.0000 </r>
       <r>   22.6910    0.0000 </r>
      </set>
      <set comment="kpoint 17">
       <r>    0.4218    1.0000 </r>
       <r>    4.3476    1.0000 </r>
       <r>    4.6090    1.0000 </r>
       <r>    4.6090    1.0000 </r>
       <r>    5.0921    1.0000 </r>
       <r>    5.1034    1.0000 </r>
       <r>    5.1034    1.0000 </r>
       <r>    6.4358    1.0000 </r>
       <r>    6.9002    1.0000 </r>
       <r>    6.9073    1.0000 </r>
       <r>    7.4354    1.0000 </r>
       <r>    7.4354    1.0000 </r>
       <r>    7.6719    1.0000 </r>
       <r>    7.6751    1.0000 </r>
       <r>    7.8967    1.0000 </r>
       <r>    8.1668    1.0000 </r>
       <r>    8.2034    1.0000 </r>
       <r>    8.2034    1.0000 </r>
       <r>    8.6675    1.0000 </r>
       <r>    8.7037    1.0000 </r>
       <r>    8.7037    1.0000 </r>
       <r>   10.3173    1.0255 </r>
       <r>   12.8562   -0.0000 </r>
       <r>   12.8562   -0.0000 </r>
       <r>   20.2595    0.0000 </r>
       <r>   20.2595    0.0000 </r>
       <r>   21.0962    0.0000 </r>
       <r>   21.0962    0.0000 </r>
       <r>   22.8479    0.0000 </r>
       <r>   23.5624    0.0000 </r>
      </set>
      <set comment="kpoint 18">
       <r>    1.2251    1.0000 </r>
       <r>    4.0810    1.0000 </r>
       <r>    4.9413    1.0000 </r>
       <r>    4.9413    1.0000 </r>
       <r>    5.3191    1.0000 </r>
       <r>    5.3540    1.0000 </r>
       <r>    5.3540    1.0000 </r>
       <r>    6.1994    1.0000 </r>
       <r>    6.7808    1.0000 </r>
       <r>    6.7808    1.0000 </r>
       <r>    7.0070    1.0000 </r>
       <r>    7.0767    1.0000 </r>
       <r>    7.1687    1.0000 </r>
       <r>    7.5863    1.0000 </r>
       <r>    7.8881    1.0000 </r>
       <r>    7.9701    1.0000 </r>
       <r>    7.9701    1.0000 </r>
       <r>    8.0396    1.0000 </r>
       <r>    8.5463    1.0000 </r>
       <r>    8.6746    1.0000 </r>
       <r>    8.6746    1.0000 </r>
       <r>    9.0563    1.0000 </r>
       <r>   14.0597   -0.0000 </r>
       <r>   14.0597   -0.0000 </r>
       <r>   18.6984    0.0000 </r>
       <r>   18.6984    0.0000 </r>
       <r>   21.2813    0.0000 </r>
       <r>   21.2813    0.0000 </r>
       <r>   24.1994    0.0000 </r>
       <r>   24.4272    0.0000 </r>
      </set>
      <set comment="kpoint 19">
       <r>    2.2517    1.0000 </r>
       <r>    3.3200    1.0000 </r>
       <r>    5.2280    1.0000 </r>
       <r>    5.2280    1.0000 </r>
       <r>    5.6022    1.0000 </r>
       <r>    5.6537    1.0000 </r>
       <r>    5.6537    1.0000 </r>
       <r>    5.9084    1.0000 </r>
       <r>    6.2354    1.0000 </r>
       <r>    6.2354    1.0000 </r>
       <r>    6.9039    1.0000 </r>
       <r>    6.9495    1.0000 </r>
       <r>    7.3089    1.0000 </r>
       <r>    7.5885    1.0000 </r>
       <r>    7.7673    1.0000 </r>
       <r>    7.7673    1.0000 </r>
       <r>    7.7837    1.0000 </r>
       <r>    8.2105    1.0000 </r>
       <r>    8.2669    1.0000 </r>
       <r>    8.3870    1.0000 </r>
       <r>    8.6619    1.0000 </r>
       <r>    8.6619    1.0000 </r>
       <r>   15.3183   -0.0000 </r>
       <r>   15.3183   -0.0000 </r>
       <r>   17.1763    0.0000 </r>
       <r>   17.1763    0.0000 </r>
       <r>   21.8789    0.0000 </r>
       <r>   21.8789    0.0000 </r>
       <r>   23.2861    0.0000 </r>
       <r>   23.2861    0.0000 </r>
      </set>
      <set comment="kpoint 20">
       <r>    0.9068    1.0000 </r>
       <r>    4.6071    1.0000 </r>
       <r>    4.6071    1.0000 </r>
       <r>    4.8164    1.0000 </r>
       <r>    5.2257    1.0000 </r>
       <r>    5.2369    1.0000 </r>
       <r>    5.2369    1.0000 </r>
       <r>    6.3659    1.0000 </r>
       <r>    6.9231    1.0000 </r>
       <r>    6.9492    1.0000 </r>
       <r>    7.1002    1.0000 </r>
       <r>    7.1002    1.0000 </r>
       <r>    7.1253    1.0000 </r>
       <r>    7.6771    1.0000 </r>
       <r>    7.9485    1.0000 </r>
       <r>    7.9896    1.0000 </r>
       <r>    8.0200    1.0000 </r>
       <r>    8.0200    1.0000 </r>
       <r>    8.6374    1.0000 </r>
       <r>    8.6374    1.0000 </r>
       <r>    8.6396    1.0000 </r>
       <r>   11.1517   -0.0000 </r>
       <r>   11.1517   -0.0000 </r>
       <r>   13.6137   -0.0000 </r>
       <r>   18.3938    0.0000 </r>
       <r>   21.1431    0.0000 </r>
       <r>   21.1765    0.0000 </r>
       <r>   21.1765    0.0000 </r>
       <r>   23.5182    0.0000 </r>
       <r>   23.5182    0.0000 </r>
      </set>
      <set comment="kpoint 21">
       <r>    1.6766    1.0000 </r>
       <r>    4.3644    1.0000 </r>
       <r>    4.9614    1.0000 </r>
       <r>    5.1003    1.0000 </r>
       <r>    5.4012    1.0000 </r>
       <r>    5.4494    1.0000 </r>
       <r>    5.4621    1.0000 </r>
       <r>    6.2021    1.0000 </r>
       <r>    6.5441    1.0000 </r>
       <r>    6.6944    1.0000 </r>
       <r>    6.7542    1.0000 </r>
       <r>    6.9228    1.0000 </r>
       <r>    7.0614    1.0000 </r>
       <r>    7.6593    1.0000 </r>
       <r>    7.7507    1.0000 </r>
       <r>    7.7894    1.0000 </r>
       <r>    7.8504    1.0000 </r>
       <r>    8.1471    1.0000 </r>
       <r>    8.4990    1.0000 </r>
       <r>    8.5609    1.0000 </r>
       <r>    8.5630    1.0000 </r>
       <r>    9.7326    1.0000 </r>
       <r>   12.1619   -0.0000 </r>
       <r>   14.5201   -0.0000 </r>
       <r>   16.7240    0.0000 </r>
       <r>   19.3612    0.0000 </r>
       <r>   21.6382    0.0000 </r>
       <r>   22.1553    0.0000 </r>
       <r>   23.9325    0.0000 </r>
       <r>   25.1255    0.0000 </r>
      </set>
      <set comment="kpoint 22">
       <r>    2.6508    1.0000 </r>
       <r>    3.6527    1.0000 </r>
       <r>    5.3053    1.0000 </r>
       <r>    5.4123    1.0000 </r>
       <r>    5.4864    1.0000 </r>
       <r>    5.6202    1.0000 </r>
       <r>    5.7072    1.0000 </r>
       <r>    5.9696    1.0000 </r>
       <r>    6.1969    1.0000 </r>
       <r>    6.3185    1.0000 </r>
       <r>    6.6646    1.0000 </r>
       <r>    6.7993    1.0000 </r>
       <r>    7.2333    1.0000 </r>
       <r>    7.4705    1.0000 </r>
       <r>    7.6426    1.0000 </r>
       <r>    7.6734    1.0000 </r>
       <r>    7.8682    1.0000 </r>
       <r>    8.2329    1.0000 </r>
       <r>    8.4189    1.0000 </r>
       <r>    8.5160    1.0000 </r>
       <r>    8.5169    1.0000 </r>
       <r>    8.8511    1.0000 </r>
       <r>   13.2836   -0.0000 </r>
       <r>   14.4251   -0.0000 </r>
       <r>   16.5188    0.0000 </r>
       <r>   17.7680    0.0000 </r>
       <r>   22.4099    0.0000 </r>
       <r>   23.3847    0.0000 </r>
       <r>   23.4173    0.0000 </r>
       <r>   24.8401    0.0000 </r>
      </set>
      <set comment="kpoint 23">
       <r>    2.3822    1.0000 </r>
       <r>    4.7365    1.0000 </r>
       <r>    4.7365    1.0000 </r>
       <r>    5.2148    1.0000 </r>
       <r>    5.5581    1.0000 </r>
       <r>    5.6645    1.0000 </r>
       <r>    5.6645    1.0000 </r>
       <r>    6.1617    1.0000 </r>
       <r>    6.3779    1.0000 </r>
       <r>    6.3779    1.0000 </r>
       <r>    6.5404    1.0000 </r>
       <r>    6.8404    1.0000 </r>
       <r>    7.0844    1.0000 </r>
       <r>    7.5903    1.0000 </r>
       <r>    7.6253    1.0000 </r>
       <r>    7.6253    1.0000 </r>
       <r>    7.6543    1.0000 </r>
       <r>    8.3811    1.0000 </r>
       <r>    8.3811    1.0000 </r>
       <r>    8.4315    1.0000 </r>
       <r>    8.4384    1.0000 </r>
       <r>   10.5639    0.3113 </r>
       <r>   10.5639    0.3113 </r>
       <r>   14.0475   -0.0000 </r>
       <r>   16.2910    0.0000 </r>
       <r>   20.2987    0.0000 </r>
       <r>   20.2987    0.0000 </r>
       <r>   22.2317    0.0000 </r>
       <r>   24.6062    0.0000 </r>
       <r>   25.5960    0.0000 </r>
      </set>
      <set comment="kpoint 24">
       <r>    3.2510    1.0000 </r>
       <r>    4.1157    1.0000 </r>
       <r>    5.0565    1.0000 </r>
       <r>    5.2140    1.0000 </r>
       <r>    5.7515    1.0000 </r>
       <r>    5.8458    1.0000 </r>
       <r>    5.8856    1.0000 </r>
       <r>    6.0548    1.0000 </r>
       <r>    6.2049    1.0000 </r>
       <r>    6.3552    1.0000 </r>
       <r>    6.4524    1.0000 </r>
       <r>    6.6729    1.0000 </r>
       <r>    7.1746    1.0000 </r>
       <r>    7.3710    1.0000 </r>
       <r>    7.4588    1.0000 </r>
       <r>    7.4887    1.0000 </r>
       <r>    7.8066    1.0000 </r>
       <r>    8.1063    1.0000 </r>
       <r>    8.3105    1.0000 </r>
       <r>    8.3309    1.0000 </r>
       <r>    8.8508    1.0000 </r>
       <r>    9.4843    1.0000 </r>
       <r>   11.5367   -0.0000 </r>
       <r>   12.7120   -0.0000 </r>
       <r>   17.3019    0.0000 </r>
       <r>   18.6773    0.0000 </r>
       <r>   21.4988    0.0000 </r>
       <r>   22.9375    0.0000 </r>
       <r>   23.1015    0.0000 </r>
       <r>   24.2506    0.0000 </r>
      </set>
      <set comment="kpoint 25">
       <r>    3.9412    1.0000 </r>
       <r>    4.5768    1.0000 </r>
       <r>    4.5768    1.0000 </r>
       <r>    4.9391    1.0000 </r>
       <r>    6.0427    1.0000 </r>
       <r>    6.1002    1.0000 </r>
       <r>    6.1002    1.0000 </r>
       <r>    6.1248    1.0000 </r>
       <r>    6.2971    1.0000 </r>
       <r>    6.2971    1.0000 </r>
       <r>    6.3132    1.0000 </r>
       <r>    6.5248    1.0000 </r>
       <r>    7.1518    1.0000 </r>
       <r>    7.2749    1.0000 </r>
       <r>    7.2749    1.0000 </r>
       <r>    7.2962    1.0000 </r>
       <r>    7.8539    1.0000 </r>
       <r>    8.0600    1.0000 </r>
       <r>    8.0600    1.0000 </r>
       <r>    8.1505    1.0000 </r>
       <r>    9.4247    1.0000 </r>
       <r>   10.2604    1.0349 </r>
       <r>   10.2604    1.0349 </r>
       <r>   11.2995   -0.0000 </r>
       <r>   18.4526    0.0000 </r>
       <r>   19.8552    0.0000 </r>
       <r>   19.8552    0.0000 </r>
       <r>   21.2765    0.0000 </r>
       <r>   24.0663    0.0000 </r>
       <r>   25.3104    0.0000 </r>
      </set>
      <set comment="kpoint 26">
       <r>    1.3651    1.0000 </r>
       <r>    4.7840    1.0000 </r>
       <r>    4.7840    1.0000 </r>
       <r>    4.7840    1.0000 </r>
       <r>    5.3690    1.0000 </r>
       <r>    5.3690    1.0000 </r>
       <r>    5.3690    1.0000 </r>
       <r>    6.3491    1.0000 </r>
       <r>    6.8802    1.0000 </r>
       <r>    6.8802    1.0000 </r>
       <r>    6.8802    1.0000 </r>
       <r>    6.9229    1.0000 </r>
       <r>    6.9229    1.0000 </r>
       <r>    7.7436    1.0000 </r>
       <r>    7.7436    1.0000 </r>
       <r>    7.7436    1.0000 </r>
       <r>    7.8722    1.0000 </r>
       <r>    7.8722    1.0000 </r>
       <r>    8.6822    1.0000 </r>
       <r>    8.6822    1.0000 </r>
       <r>    8.6822    1.0000 </r>
       <r>   11.7349   -0.0000 </r>
       <r>   11.7349   -0.0000 </r>
       <r>   11.7349   -0.0000 </r>
       <r>   19.0838    0.0000 </r>
       <r>   19.0838    0.0000 </r>
       <r>   19.0838    0.0000 </r>
       <r>   23.8707    0.0000 </r>
       <r>   23.8707    0.0000 </r>
       <r>   23.8707    0.0000 </r>
      </set>
      <set comment="kpoint 27">
       <r>    2.0839    1.0000 </r>
       <r>    4.5146    1.0000 </r>
       <r>    4.9895    1.0000 </r>
       <r>    4.9895    1.0000 </r>
       <r>    5.5665    1.0000 </r>
       <r>    5.5665    1.0000 </r>
       <r>    5.6107    1.0000 </r>
       <r>    6.2675    1.0000 </r>
       <r>    6.6023    1.0000 </r>
       <r>    6.6023    1.0000 </r>
       <r>    6.6486    1.0000 </r>
       <r>    6.8942    1.0000 </r>
       <r>    6.9513    1.0000 </r>
       <r>    7.4747    1.0000 </r>
       <r>    7.5656    1.0000 </r>
       <r>    7.5656    1.0000 </r>
       <r>    7.8917    1.0000 </r>
       <r>    8.1086    1.0000 </r>
       <r>    8.6166    1.0000 </r>
       <r>    8.6166    1.0000 </r>
       <r>    8.6477    1.0000 </r>
       <r>   10.1063    1.0066 </r>
       <r>   12.5022   -0.0000 </r>
       <r>   12.5022   -0.0000 </r>
       <r>   17.3324    0.0000 </r>
       <r>   17.3324    0.0000 </r>
       <r>   20.0316    0.0000 </r>
       <r>   24.3497    0.0000 </r>
       <r>   24.4602    0.0000 </r>
       <r>   24.4602    0.0000 </r>
      </set>
      <set comment="kpoint 28">
       <r>    2.9746    1.0000 </r>
       <r>    3.8674    1.0000 </r>
       <r>    5.1448    1.0000 </r>
       <r>    5.1448    1.0000 </r>
       <r>    5.6897    1.0000 </r>
       <r>    5.6897    1.0000 </r>
       <r>    5.8814    1.0000 </r>
       <r>    6.1086    1.0000 </r>
       <r>    6.4605    1.0000 </r>
       <r>    6.4605    1.0000 </r>
       <r>    6.6162    1.0000 </r>
       <r>    6.7591    1.0000 </r>
       <r>    7.0554    1.0000 </r>
       <r>    7.2350    1.0000 </r>
       <r>    7.4424    1.0000 </r>
       <r>    7.4424    1.0000 </r>
       <r>    8.2141    1.0000 </r>
       <r>    8.3389    1.0000 </r>
       <r>    8.5279    1.0000 </r>
       <r>    8.5455    1.0000 </r>
       <r>    8.5455    1.0000 </r>
       <r>    8.9333    1.0000 </r>
       <r>   13.2019   -0.0000 </r>
       <r>   13.2019   -0.0000 </r>
       <r>   16.1454    0.0000 </r>
       <r>   16.1454    0.0000 </r>
       <r>   21.2368    0.0000 </r>
       <r>   22.6787    0.0000 </r>
       <r>   25.2304    0.0000 </r>
       <r>   25.2304    0.0000 </r>
      </set>
      <set comment="kpoint 29">
       <r>    2.7041    1.0000 </r>
       <r>    4.6709    1.0000 </r>
       <r>    4.6709    1.0000 </r>
       <r>    4.9519    1.0000 </r>
       <r>    5.7787    1.0000 </r>
       <r>    5.8590    1.0000 </r>
       <r>    5.8590    1.0000 </r>
       <r>    6.3413    1.0000 </r>
       <r>    6.5426    1.0000 </r>
       <r>    6.5426    1.0000 </r>
       <r>    6.6492    1.0000 </r>
       <r>    6.8403    1.0000 </r>
       <r>    6.9032    1.0000 </r>
       <r>    7.3151    1.0000 </r>
       <r>    7.3151    1.0000 </r>
       <r>    7.3366    1.0000 </r>
       <r>    7.9580    1.0000 </r>
       <r>    8.3241    1.0000 </r>
       <r>    8.5728    1.0000 </r>
       <r>    8.5929    1.0000 </r>
       <r>    8.5929    1.0000 </r>
       <r>   10.7281   -0.0296 </r>
       <r>   10.7281   -0.0296 </r>
       <r>   12.7337   -0.0000 </r>
       <r>   15.9886    0.0000 </r>
       <r>   18.2208    0.0000 </r>
       <r>   18.2208    0.0000 </r>
       <r>   22.4398    0.0000 </r>
       <r>   25.1155    0.0000 </r>
       <r>   27.5230    0.0000 </r>
      </set>
      <set comment="kpoint 30">
       <r>    3.4354    1.0000 </r>
       <r>    4.1339    1.0000 </r>
       <r>    4.7911    1.0000 </r>
       <r>    4.8808    1.0000 </r>
       <r>    5.9589    1.0000 </r>
       <r>    6.0083    1.0000 </r>
       <r>    6.1748    1.0000 </r>
       <r>    6.3470    1.0000 </r>
       <r>    6.5636    1.0000 </r>
       <r>    6.5853    1.0000 </r>
       <r>    6.6677    1.0000 </r>
       <r>    6.7002    1.0000 </r>
       <r>    6.9499    1.0000 </r>
       <r>    7.0966    1.0000 </r>
       <r>    7.2086    1.0000 </r>
       <r>    7.2150    1.0000 </r>
       <r>    8.1514    1.0000 </r>
       <r>    8.4418    1.0000 </r>
       <r>    8.4951    1.0000 </r>
       <r>    8.4983    1.0000 </r>
       <r>    8.7020    1.0000 </r>
       <r>    9.4265    1.0000 </r>
       <r>   11.5066   -0.0000 </r>
       <r>   12.3243   -0.0000 </r>
       <r>   15.8862   -0.0000 </r>
       <r>   16.7905    0.0000 </r>
       <r>   19.3769    0.0000 </r>
       <r>   20.7836    0.0000 </r>
       <r>   26.0193    0.0000 </r>
       <r>   27.0932    0.0000 </r>
      </set>
      <set comment="kpoint 31">
       <r>    3.9317    1.0000 </r>
       <r>    4.3886    1.0000 </r>
       <r>    4.3886    1.0000 </r>
       <r>    4.6294    1.0000 </r>
       <r>    6.2178    1.0000 </r>
       <r>    6.3451    1.0000 </r>
       <r>    6.3451    1.0000 </r>
       <r>    6.5692    1.0000 </r>
       <r>    6.6164    1.0000 </r>
       <r>    6.6557    1.0000 </r>
       <r>    6.6557    1.0000 </r>
       <r>    6.7692    1.0000 </r>
       <r>    6.9118    1.0000 </r>
       <r>    7.0196    1.0000 </r>
       <r>    7.0196    1.0000 </r>
       <r>    7.0451    1.0000 </r>
       <r>    8.1526    1.0000 </r>
       <r>    8.3365    1.0000 </r>
       <r>    8.3365    1.0000 </r>
       <r>    8.3798    1.0000 </r>
       <r>    9.2503    1.0000 </r>
       <r>   10.1333    1.0101 </r>
       <r>   10.1333    1.0101 </r>
       <r>   11.1103   -0.0001 </r>
       <r>   16.6300    0.0000 </r>
       <r>   17.8332    0.0000 </r>
       <r>   17.8332    0.0000 </r>
       <r>   19.1687    0.0000 </r>
       <r>   26.9961    0.0000 </r>
       <r>   28.2106    0.0000 </r>
      </set>
      <set comment="kpoint 32">
       <r>    3.1671    1.0000 </r>
       <r>    4.5893    1.0000 </r>
       <r>    4.5893    1.0000 </r>
       <r>    4.5893    1.0000 </r>
       <r>    6.1008    1.0000 </r>
       <r>    6.1008    1.0000 </r>
       <r>    6.1008    1.0000 </r>
       <r>    6.6399    1.0000 </r>
       <r>    6.7697    1.0000 </r>
       <r>    6.7697    1.0000 </r>
       <r>    6.7697    1.0000 </r>
       <r>    6.8074    1.0000 </r>
       <r>    6.8074    1.0000 </r>
       <r>    7.0916    1.0000 </r>
       <r>    7.0916    1.0000 </r>
       <r>    7.0916    1.0000 </r>
       <r>    8.2414    1.0000 </r>
       <r>    8.2414    1.0000 </r>
       <r>    8.6423    1.0000 </r>
       <r>    8.6423    1.0000 </r>
       <r>    8.6423    1.0000 </r>
       <r>   10.9839   -0.0024 </r>
       <r>   10.9839   -0.0024 </r>
       <r>   10.9839   -0.0024 </r>
       <r>   16.6042    0.0000 </r>
       <r>   16.6042    0.0000 </r>
       <r>   16.6042    0.0000 </r>
       <r>   20.5461    0.0000 </r>
       <r>   28.2786    0.0000 </r>
       <r>   28.2786    0.0000 </r>
      </set>
      <set comment="kpoint 33">
       <r>    3.6775    1.0000 </r>
       <r>    4.1607    1.0000 </r>
       <r>    4.5368    1.0000 </r>
       <r>    4.5368    1.0000 </r>
       <r>    6.2417    1.0000 </r>
       <r>    6.2417    1.0000 </r>
       <r>    6.4408    1.0000 </r>
       <r>    6.6908    1.0000 </r>
       <r>    6.8083    1.0000 </r>
       <r>    6.8709    1.0000 </r>
       <r>    6.8770    1.0000 </r>
       <r>    6.9068    1.0000 </r>
       <r>    6.9638    1.0000 </r>
       <r>    6.9638    1.0000 </r>
       <r>    7.0053    1.0000 </r>
       <r>    7.0053    1.0000 </r>
       <r>    8.4675    1.0000 </r>
       <r>    8.5222    1.0000 </r>
       <r>    8.5850    1.0000 </r>
       <r>    8.5850    1.0000 </r>
       <r>    8.6072    1.0000 </r>
       <r>    9.4896    1.0000 </r>
       <r>   11.2092   -0.0000 </r>
       <r>   11.2092   -0.0000 </r>
       <r>   15.6715   -0.0000 </r>
       <r>   15.6715   -0.0000 </r>
       <r>   17.6209    0.0000 </r>
       <r>   18.9398    0.0000 </r>
       <r>   29.0246    0.0000 </r>
       <r>   29.0246    0.0000 </r>
      </set>
      <set comment="kpoint 34">
       <r>    3.9393    1.0000 </r>
       <r>    4.2218    1.0000 </r>
       <r>    4.2218    1.0000 </r>
       <r>    4.3431    1.0000 </r>
       <r>    6.4288    1.0000 </r>
       <r>    6.5002    1.0000 </r>
       <r>    6.5002    1.0000 </r>
       <r>    6.6621    1.0000 </r>
       <r>    6.7434    1.0000 </r>
       <r>    6.8108    1.0000 </r>
       <r>    6.8108    1.0000 </r>
       <r>    6.8328    1.0000 </r>
       <r>    7.2930    1.0000 </r>
       <r>    7.2930    1.0000 </r>
       <r>    7.3194    1.0000 </r>
       <r>    7.3523    1.0000 </r>
       <r>    8.4041    1.0000 </r>
       <r>    8.5463    1.0000 </r>
       <r>    8.5463    1.0000 </r>
       <r>    8.5510    1.0000 </r>
       <r>    8.9426    1.0000 </r>
       <r>    9.8751    1.0000 </r>
       <r>    9.8751    1.0000 </r>
       <r>   10.5444    0.3896 </r>
       <r>   15.5837   -0.0000 </r>
       <r>   16.3169    0.0000 </r>
       <r>   16.3169    0.0000 </r>
       <r>   17.4408    0.0000 </r>
       <r>   30.0309    0.0000 </r>
       <r>   31.0064    0.0000 </r>
      </set>
      <set comment="kpoint 35">
       <r>    3.9969    1.0000 </r>
       <r>    4.1287    1.0000 </r>
       <r>    4.1287    1.0000 </r>
       <r>    4.1287    1.0000 </r>
       <r>    6.5929    1.0000 </r>
       <r>    6.5929    1.0000 </r>
       <r>    6.5929    1.0000 </r>
       <r>    6.6710    1.0000 </r>
       <r>    6.6710    1.0000 </r>
       <r>    6.7024    1.0000 </r>
       <r>    6.7024    1.0000 </r>
       <r>    6.7024    1.0000 </r>
       <r>    7.9085    1.0000 </r>
       <r>    7.9085    1.0000 </r>
       <r>    7.9085    1.0000 </r>
       <r>    8.2966    1.0000 </r>
       <r>    8.5675    1.0000 </r>
       <r>    8.5675    1.0000 </r>
       <r>    8.6187    1.0000 </r>
       <r>    8.6187    1.0000 </r>
       <r>    8.6187    1.0000 </r>
       <r>    9.5435    1.0000 </r>
       <r>    9.5435    1.0000 </r>
       <r>    9.5435    1.0000 </r>
       <r>   15.5004   -0.0000 </r>
       <r>   15.5004   -0.0000 </r>
       <r>   15.5004   -0.0000 </r>
       <r>   16.1837    0.0000 </r>
       <r>   32.4126    0.0000 </r>
       <r>   32.4127    0.0000 </r>
      </set>
     </set>
    </set>
   </array>
  </eigenvalues>
  <separator name="orbital magnetization" >
   <v name="MAGDIPOLOUT">      0.00000000      0.00000000      0.00000000</v>
  </separator>
  <dos>
   <i name="efermi">     10.51803045 </i>
   <total>
    <array>
     <dimension dim="1">gridpoints</dimension>
     <dimension dim="2">spin</dimension>
     <field>energy</field>
     <field>total</field>
     <field>integrated</field>
     <set>
      <set comment="spin 1">
       <r>    -2.5997     0.0000     0.0000 </r>
       <r>    -2.4763     0.0000     0.0000 </r>
       <r>    -2.3529     0.0000     0.0000 </r>
       <r>    -2.2295    -0.0000    -0.0000 </r>
       <r>    -2.1062    -0.0000    -0.0000 </r>
       <r>    -1.9828    -0.0000    -0.0000 </r>
       <r>    -1.8594    -0.0000    -0.0000 </r>
       <r>    -1.7360    -0.0000    -0.0000 </r>
       <r>    -1.6127    -0.0000    -0.0000 </r>
       <r>    -1.4893    -0.0000    -0.0000 </r>
       <r>    -1.3659    -0.0000    -0.0000 </r>
       <r>    -1.2425    -0.0000    -0.0000 </r>
       <r>    -1.1192    -0.0000    -0.0000 </r>
       <r>    -0.9958    -0.0002    -0.0000 </r>
       <r>    -0.8724    -0.0010    -0.0001 </r>
       <r>    -0.7490    -0.0015    -0.0003 </r>
       <r>    -0.6257     0.0048     0.0003 </r>
       <r>    -0.5023     0.0333     0.0044 </r>
       <r>    -0.3789     0.0921     0.0157 </r>
       <r>    -0.2555     0.1550     0.0348 </r>
       <r>    -0.1322     0.1655     0.0553 </r>
       <r>    -0.0088     0.1223     0.0703 </r>
       <r>     0.1146     0.1245     0.0857 </r>
       <r>     0.2379     0.2570     0.1174 </r>
       <r>     0.3613     0.3925     0.1658 </r>
       <r>     0.4847     0.3315     0.2067 </r>
       <r>     0.6081     0.1330     0.2231 </r>
       <r>     0.7314     0.1036     0.2359 </r>
       <r>     0.8548     0.2930     0.2721 </r>
       <r>     0.9782     0.4515     0.3278 </r>
       <r>     1.1016     0.4630     0.3849 </r>
       <r>     1.2249     0.4128     0.4358 </r>
       <r>     1.3483     0.2955     0.4723 </r>
       <r>     1.4717     0.2567     0.5040 </r>
       <r>     1.5951     0.4982     0.5654 </r>
       <r>     1.7184     0.6433     0.6448 </r>
       <r>     1.8418     0.3330     0.6859 </r>
       <r>     1.9652     0.1546     0.7049 </r>
       <r>     2.0886     0.4705     0.7630 </r>
       <r>     2.2119     0.7333     0.8535 </r>
       <r>     2.3353     0.6652     0.9355 </r>
       <r>     2.4587     0.5291     1.0008 </r>
       <r>     2.5821     0.6854     1.0854 </r>
       <r>     2.7054     0.8870     1.1948 </r>
       <r>     2.8288     0.5438     1.2619 </r>
       <r>     2.9522     0.2208     1.2891 </r>
       <r>     3.0756     0.4329     1.3426 </r>
       <r>     3.1989     1.0306     1.4697 </r>
       <r>     3.3223     1.3606     1.6376 </r>
       <r>     3.4457     1.0870     1.7717 </r>
       <r>     3.5691     0.9381     1.8874 </r>
       <r>     3.6924     0.9724     2.0074 </r>
       <r>     3.8158     0.9039     2.1189 </r>
       <r>     3.9392     1.4031     2.2920 </r>
       <r>     4.0626     2.4057     2.5888 </r>
       <r>     4.1859     3.2862     2.9942 </r>
       <r>     4.3093     3.5419     3.4312 </r>
       <r>     4.4327     3.4095     3.8519 </r>
       <r>     4.5561     3.9529     4.3395 </r>
       <r>     4.6794     4.5918     4.9060 </r>
       <r>     4.8028     4.5431     5.4666 </r>
       <r>     4.9262     5.3321     6.1244 </r>
       <r>     5.0496     6.4478     6.9199 </r>
       <r>     5.1729     7.0818     7.7936 </r>
       <r>     5.2963     7.3972     8.7062 </r>
       <r>     5.4197     7.1643     9.5901 </r>
       <r>     5.5430     6.4237    10.3826 </r>
       <r>     5.6664     6.2959    11.1594 </r>
       <r>     5.7898     6.3083    11.9377 </r>
       <r>     5.9132     6.2621    12.7103 </r>
       <r>     6.0365     6.4733    13.5089 </r>
       <r>     6.1599     7.6747    14.4558 </r>
       <r>     6.2833     9.4782    15.6251 </r>
       <r>     6.4067     9.2242    16.7632 </r>
       <r>     6.5300     8.8930    17.8603 </r>
       <r>     6.6534    10.6724    19.1770 </r>
       <r>     6.7768    12.4220    20.7096 </r>
       <r>     6.9002    12.8048    22.2894 </r>
       <r>     7.0235    11.6037    23.7210 </r>
       <r>     7.1469     9.3172    24.8705 </r>
       <r>     7.2703     7.8717    25.8417 </r>
       <r>     7.3937     7.8585    26.8112 </r>
       <r>     7.5170     8.6871    27.8830 </r>
       <r>     7.6404     9.5708    29.0637 </r>
       <r>     7.7638    10.4850    30.3573 </r>
       <r>     7.8872    10.6211    31.6677 </r>
       <r>     8.0105     9.3560    32.8220 </r>
       <r>     8.1339     8.9465    33.9257 </r>
       <r>     8.2573     9.5142    35.0996 </r>
       <r>     8.3807    10.5885    36.4059 </r>
       <r>     8.5040    13.7439    38.1015 </r>
       <r>     8.6274    15.0175    39.9543 </r>
       <r>     8.7508    11.1478    41.3297 </r>
       <r>     8.8742     5.8806    42.0552 </r>
       <r>     8.9975     2.2987    42.3388 </r>
       <r>     9.1209     0.5251    42.4036 </r>
       <r>     9.2443     0.1814    42.4259 </r>
       <r>     9.3677     0.9250    42.5401 </r>
       <r>     9.4910     2.0557    42.7937 </r>
       <r>     9.6144     1.9871    43.0388 </r>
       <r>     9.7378     1.1740    43.1837 </r>
       <r>     9.8612     0.9315    43.2986 </r>
       <r>     9.9845     0.8717    43.4061 </r>
       <r>    10.1079     0.9410    43.5222 </r>
       <r>    10.2313     1.2908    43.6815 </r>
       <r>    10.3547     1.2446    43.8350 </r>
       <r>    10.4780     0.9915    43.9574 </r>
       <r>    10.6014     1.1195    44.0955 </r>
       <r>    10.7248     0.9853    44.2171 </r>
       <r>    10.8482     0.6332    44.2952 </r>
       <r>    10.9715     0.6357    44.3736 </r>
       <r>    11.0949     1.0415    44.5021 </r>
       <r>    11.2183     1.4050    44.6755 </r>
       <r>    11.3416     1.2285    44.8270 </r>
       <r>    11.4650     1.3211    44.9900 </r>
       <r>    11.5884     1.5476    45.1809 </r>
       <r>    11.7118     0.9135    45.2937 </r>
       <r>    11.8351     0.4222    45.3457 </r>
       <r>    11.9585     0.4302    45.3988 </r>
       <r>    12.0819     0.5701    45.4692 </r>
       <r>    12.2053     0.7809    45.5655 </r>
       <r>    12.3286     0.9135    45.6782 </r>
       <r>    12.4520     0.9170    45.7913 </r>
       <r>    12.5754     0.9695    45.9109 </r>
       <r>    12.6988     1.2871    46.0697 </r>
       <r>    12.8221     1.5099    46.2560 </r>
       <r>    12.9455     0.8880    46.3656 </r>
       <r>    13.0689     0.2832    46.4005 </r>
       <r>    13.1923     0.7585    46.4941 </r>
       <r>    13.3156     1.2070    46.6430 </r>
       <r>    13.4390     0.6791    46.7268 </r>
       <r>    13.5624     0.2858    46.7621 </r>
       <r>    13.6858     0.3089    46.8002 </r>
       <r>    13.8091     0.4265    46.8528 </r>
       <r>    13.9325     0.6841    46.9372 </r>
       <r>    14.0559     0.8823    47.0460 </r>
       <r>    14.1793     0.6651    47.1281 </r>
       <r>    14.3026     0.3617    47.1727 </r>
       <r>    14.4260     0.7346    47.2634 </r>
       <r>    14.5494     1.1393    47.4039 </r>
       <r>    14.6728     0.7779    47.4999 </r>
       <r>    14.7961     0.2566    47.5315 </r>
       <r>    14.9195     0.1053    47.5445 </r>
       <r>    15.0429     0.0934    47.5561 </r>
       <r>    15.1663     0.3015    47.5933 </r>
       <r>    15.2896     0.8607    47.6994 </r>
       <r>    15.4130     0.9727    47.8194 </r>
       <r>    15.5364     0.7406    47.9108 </r>
       <r>    15.6598     0.7981    48.0093 </r>
       <r>    15.7831     0.7292    48.0992 </r>
       <r>    15.9065     0.6981    48.1854 </r>
       <r>    16.0299     0.9377    48.3010 </r>
       <r>    16.1533     1.2935    48.4606 </r>
       <r>    16.2766     1.3912    48.6323 </r>
       <r>    16.4000     1.0215    48.7583 </r>
       <r>    16.5234     0.8902    48.8681 </r>
       <r>    16.6467     1.4132    49.0425 </r>
       <r>    16.7701     1.7931    49.2637 </r>
       <r>    16.8935     1.2571    49.4188 </r>
       <r>    17.0169     0.4094    49.4693 </r>
       <r>    17.1402     0.4288    49.5222 </r>
       <r>    17.2636     1.2127    49.6718 </r>
       <r>    17.3870     1.4729    49.8535 </r>
       <r>    17.5104     0.9011    49.9647 </r>
       <r>    17.6337     0.6849    50.0492 </r>
       <r>    17.7571     1.0431    50.1779 </r>
       <r>    17.8805     1.0950    50.3130 </r>
       <r>    18.0039     0.5358    50.3791 </r>
       <r>    18.1272     0.2635    50.4116 </r>
       <r>    18.2506     0.6525    50.4921 </r>
       <r>    18.3740     0.9458    50.6088 </r>
       <r>    18.4974     0.8399    50.7124 </r>
       <r>    18.6207     1.0882    50.8467 </r>
       <r>    18.7441     1.5576    51.0388 </r>
       <r>    18.8675     0.9840    51.1602 </r>
       <r>    18.9909     0.3884    51.2082 </r>
       <r>    19.1142     0.6657    51.2903 </r>
       <r>    19.2376     1.3160    51.4526 </r>
       <r>    19.3610     1.7746    51.6716 </r>
       <r>    19.4844     1.3326    51.8360 </r>
       <r>    19.6077     0.3663    51.8812 </r>
       <r>    19.7311     0.1578    51.9007 </r>
       <r>    19.8545     0.7336    51.9912 </r>
       <r>    19.9779     1.0450    52.1201 </r>
       <r>    20.1012     0.8888    52.2297 </r>
       <r>    20.2246     1.2976    52.3898 </r>
       <r>    20.3480     2.0573    52.6437 </r>
       <r>    20.4714     1.8354    52.8701 </r>
       <r>    20.5947     1.3537    53.0371 </r>
       <r>    20.7181     1.3024    53.1978 </r>
       <r>    20.8415     1.1645    53.3415 </r>
       <r>    20.9649     0.8195    53.4426 </r>
       <r>    21.0882     1.0645    53.5739 </r>
       <r>    21.2116     2.1061    53.8338 </r>
       <r>    21.3350     2.2105    54.1065 </r>
       <r>    21.4584     1.4161    54.2812 </r>
       <r>    21.5817     1.2272    54.4326 </r>
       <r>    21.7051     1.1133    54.5699 </r>
       <r>    21.8285     0.7180    54.6585 </r>
       <r>    21.9519     0.4758    54.7172 </r>
       <r>    22.0752     0.6197    54.7937 </r>
       <r>    22.1986     1.4274    54.9698 </r>
       <r>    22.3220     1.8650    55.1999 </r>
       <r>    22.4453     1.7041    55.4101 </r>
       <r>    22.5687     1.5303    55.5989 </r>
       <r>    22.6921     1.1147    55.7364 </r>
       <r>    22.8155     0.8082    55.8361 </r>
       <r>    22.9388     1.1053    55.9725 </r>
       <r>    23.0622     1.5635    56.1654 </r>
       <r>    23.1856     1.6784    56.3725 </r>
       <r>    23.3090     1.7529    56.5887 </r>
       <r>    23.4323     2.1897    56.8589 </r>
       <r>    23.5557     2.1306    57.1218 </r>
       <r>    23.6791     1.1087    57.2585 </r>
       <r>    23.8025     0.4473    57.3137 </r>
       <r>    23.9258     0.6321    57.3917 </r>
       <r>    24.0492     0.8470    57.4962 </r>
       <r>    24.1726     1.3281    57.6601 </r>
       <r>    24.2960     1.9560    57.9014 </r>
       <r>    24.4193     1.8418    58.1286 </r>
       <r>    24.5427     1.4824    58.3115 </r>
       <r>    24.6661     0.9448    58.4281 </r>
       <r>    24.7895     0.5587    58.4970 </r>
       <r>    24.9128     0.6167    58.5731 </r>
       <r>    25.0362     0.7919    58.6708 </r>
       <r>    25.1596     1.1851    58.8170 </r>
       <r>    25.2830     1.2769    58.9746 </r>
       <r>    25.4063     0.8111    59.0746 </r>
       <r>    25.5297     0.4702    59.1326 </r>
       <r>    25.6531     0.3217    59.1723 </r>
       <r>    25.7765     0.1080    59.1857 </r>
       <r>    25.8998     0.1212    59.2006 </r>
       <r>    26.0232     0.4513    59.2563 </r>
       <r>    26.1466     0.4448    59.3112 </r>
       <r>    26.2700     0.1062    59.3243 </r>
       <r>    26.3933    -0.0251    59.3212 </r>
       <r>    26.5167    -0.0125    59.3196 </r>
       <r>    26.6401    -0.0115    59.3182 </r>
       <r>    26.7635    -0.0295    59.3146 </r>
       <r>    26.8868     0.0670    59.3228 </r>
       <r>    27.0102     0.4640    59.3801 </r>
       <r>    27.1336     0.7265    59.4697 </r>
       <r>    27.2570     0.3790    59.5165 </r>
       <r>    27.3803     0.0623    59.5242 </r>
       <r>    27.5037     0.1743    59.5457 </r>
       <r>    27.6271     0.2395    59.5752 </r>
       <r>    27.7504     0.0795    59.5850 </r>
       <r>    27.8738    -0.0208    59.5825 </r>
       <r>    27.9972    -0.0223    59.5797 </r>
       <r>    28.1206     0.1157    59.5940 </r>
       <r>    28.2439     0.3786    59.6407 </r>
       <r>    28.3673     0.3564    59.6847 </r>
       <r>    28.4907     0.0925    59.6961 </r>
       <r>    28.6141    -0.0234    59.6932 </r>
       <r>    28.7374    -0.0349    59.6889 </r>
       <r>    28.8608     0.0368    59.6934 </r>
       <r>    28.9842     0.3495    59.7366 </r>
       <r>    29.1076     0.5198    59.8007 </r>
       <r>    29.2309     0.2224    59.8281 </r>
       <r>    29.3543    -0.0078    59.8272 </r>
       <r>    29.4777    -0.0191    59.8248 </r>
       <r>    29.6011    -0.0055    59.8241 </r>
       <r>    29.7244    -0.0116    59.8227 </r>
       <r>    29.8478     0.0065    59.8235 </r>
       <r>    29.9712     0.1458    59.8415 </r>
       <r>    30.0946     0.2644    59.8741 </r>
       <r>    30.2179     0.1400    59.8914 </r>
       <r>    30.3413     0.0044    59.8919 </r>
       <r>    30.4647    -0.0113    59.8905 </r>
       <r>    30.5881    -0.0051    59.8899 </r>
       <r>    30.7114    -0.0124    59.8884 </r>
       <r>    30.8348     0.0135    59.8900 </r>
       <r>    30.9582     0.1632    59.9102 </r>
       <r>    31.0816     0.2626    59.9426 </r>
       <r>    31.2049     0.1227    59.9577 </r>
       <r>    31.3283    -0.0009    59.9576 </r>
       <r>    31.4517    -0.0102    59.9563 </r>
       <r>    31.5751    -0.0018    59.9561 </r>
       <r>    31.6984    -0.0001    59.9561 </r>
       <r>    31.8218    -0.0000    59.9561 </r>
       <r>    31.9452    -0.0008    59.9560 </r>
       <r>    32.0686    -0.0055    59.9553 </r>
       <r>    32.1919    -0.0054    59.9547 </r>
       <r>    32.3153     0.0605    59.9621 </r>
       <r>    32.4387     0.1679    59.9828 </r>
       <r>    32.5621     0.1303    59.9989 </r>
       <r>    32.6854     0.0206    60.0014 </r>
       <r>    32.8088    -0.0087    60.0004 </r>
       <r>    32.9322    -0.0028    60.0000 </r>
       <r>    33.0556    -0.0003    60.0000 </r>
       <r>    33.1789    -0.0000    60.0000 </r>
       <r>    33.3023    -0.0000    60.0000 </r>
       <r>    33.4257    -0.0000    60.0000 </r>
       <r>    33.5490    -0.0000    60.0000 </r>
       <r>    33.6724    -0.0000    60.0000 </r>
       <r>    33.7958     0.0000    60.0000 </r>
       <r>    33.9192     0.0000    60.0000 </r>
       <r>    34.0425     0.0000    60.0000 </r>
       <r>    34.1659     0.0000    60.0000 </r>
       <r>    34.2893     0.0000    60.0000 </r>
       <r>    34.4127     0.0000    60.0000 </r>
      </set>
     </set>
    </array>
   </total>
  </dos>
 </calculation>
 <structure name="finalpos" >
  <crystal>
   <varray name="basis" >
    <v>       3.37443508       0.00000000       0.00000000 </v>
    <v>       0.00000000       3.37443508       0.00000000 </v>
    <v>       0.00000000       0.00000000       3.37443508 </v>
   </varray>
   <i name="volume">     38.42405830 </i>
   <varray name="rec_basis" >
    <v>       0.29634590       0.00000000       0.00000000 </v>
    <v>       0.00000000       0.29634590       0.00000000 </v>
    <v>       0.00000000       0.00000000       0.29634590 </v>
   </varray>
  </crystal>
  <varray name="positions" >
   <v>       0.00000000       0.00000000       0.00000000 </v>
   <v>       0.50000000       0.50000000       0.00000000 </v>
   <v>       0.50000000       0.00000000       0.50000000 </v>
   <v>       0.00000000       0.50000000       0.50000000 </v>
  </varray>
 </structure>
</modeling>
