unknown system                          
   1.00000000000000     
     3.866000    0.000000    0.000000
     0.000000    3.866000    0.000000
     0.000000    0.000000    3.866000
   Pd   Ir   Pt   Cu
     1     1     1     1
Direct
  0.000000  0.000000  0.000000
  0.500000  0.500000  0.000000
  0.500000  0.000000  0.500000
  0.000000  0.500000  0.500000
 
   20   20   20
  254.91      230.00      173.26      116.60      77.018      53.972      35.328      16.384      8.7018      12.328    
  15.839      12.328      8.7018      16.384      35.328      53.972      77.018      116.60      173.26      230.00    
  230.00      207.44      156.52      106.40      71.655      50.862      33.003      15.225      7.8259      10.497    
  13.351      10.497      7.8259      15.225      33.003      50.862      71.655      106.40      156.52      207.44    
  173.00      156.35      119.54      84.414      60.002      43.675      27.807      13.761      8.1390      9.5765    
  11.310      9.5765      8.1390      13.761      27.807      43.675      60.002      84.414      119.54      156.35    
  116.03      106.10      84.528      64.074      48.692      35.970      23.618      15.811      14.513      16.919    
  18.443      16.919      14.513      15.811      23.618      35.970      48.692      64.074      84.528      106.10    
  76.546      71.511      60.383      49.087      39.108      29.684      23.416      22.797      26.854      32.039    
  34.358      32.039      26.854      22.797      23.416      29.684      39.108      49.087      60.383      71.511    
  53.166      50.272      43.516      36.105      29.847      26.578      27.412      32.486      40.739      48.842    
  52.283      48.842      40.739      32.486      27.412      26.578      29.847      36.105      43.516      50.272    
  33.813      31.532      26.556      22.850      23.232      27.552      34.272      42.899      53.124      62.605    
  66.644      62.605      53.124      42.899      34.272      27.552      23.232      22.850      26.556      31.532    
  14.983      13.647      11.941      14.208      21.993      32.542      43.177      53.132      63.381      72.899    
  77.050      72.899      63.381      53.132      43.177      32.542      21.993      14.208      11.941      13.647    
  8.0675      6.8905      6.5989      12.715      25.585      40.397      53.310      63.634      73.823      83.758    
  88.244      83.758      73.823      63.634      53.310      40.397      25.585      12.715      6.5989      6.8905    
  12.470      10.357      8.7400      15.448      30.607      47.993      62.384      73.241      84.240      95.534    
  100.75      95.534      84.240      73.241      62.384      47.993      30.607      15.448      8.7400      10.357    
  16.293      13.556      10.834      17.201      32.910      51.201      66.197      77.411      88.999      101.11    
  106.73      101.11      88.999      77.411      66.197      51.201      32.910      17.201      10.834      13.556    
  12.470      10.357      8.7400      15.448      30.607      47.993      62.384      73.241      84.240      95.534    
  100.75      95.534      84.240      73.241      62.384      47.993      30.607      15.448      8.7400      10.357    
  8.0675      6.8905      6.5989      12.715      25.585      40.397      53.310      63.634      73.823      83.758    
  88.244      83.758      73.823      63.634      53.310      40.397      25.585      12.715      6.5989      6.8905    
  14.983      13.647      11.941      14.208      21.993      32.542      43.177      53.132      63.381      72.899    
  77.050      72.899      63.381      53.132      43.177      32.542      21.993      14.208      11.941      13.647    
  33.813      31.532      26.556      22.850      23.232      27.552      34.272      42.899      53.124      62.605    
  66.644      62.605      53.124      42.899      34.272      27.552      23.232      22.850      26.556      31.532    
  53.166      50.272      43.516      36.105      29.847      26.578      27.412      32.486      40.739      48.842    
  52.283      48.842      40.739      32.486      27.412      26.578      29.847      36.105      43.516      50.272    
  76.546      71.511      60.383      49.087      39.108      29.684      23.416      22.797      26.854      32.039    
  34.358      32.039      26.854      22.797      23.416      29.684      39.108      49.087      60.383      71.511    
  116.03      106.10      84.528      64.074      48.692      35.970      23.618      15.811      14.513      16.919    
  18.443      16.919      14.513      15.811      23.618      35.970      48.692      64.074      84.528      106.10    
  173.00      156.35      119.54      84.414      60.002      43.675      27.807      13.761      8.1390      9.5765    
  11.310      9.5765      8.1390      13.761      27.807      43.675      60.002      84.414      119.54      156.35    
  230.00      207.44      156.52      106.40      71.655      50.862      33.003      15.225      7.8259      10.497    
  13.351      10.497      7.8259      15.225      33.003      50.862      71.655      106.40      156.52      207.44    
  230.23      207.80      157.03      106.81      71.840      50.904      32.976      15.118      7.6122      10.179    
  12.989      10.179      7.6122      15.118      32.976      50.904      71.840      106.81      157.03      207.80    
  208.20      187.96      142.53      98.132      67.279      48.151      30.864      14.125      6.9703      8.8020    
  11.080      8.8020      6.9703      14.125      30.864      48.151      67.279      98.132      142.53      187.96    
  157.75      142.95      110.31      79.145      57.099      41.599      26.123      12.938      7.5970      8.5824    
  9.9822      8.5824      7.5970      12.938      26.123      41.599      57.099      79.145      110.31      142.95    
  107.16      98.378      79.232      60.834      46.521      34.130      22.264      15.003      13.769      15.846    
  17.165      15.846      13.769      15.003      22.264      34.130      46.521      60.834      79.232      98.378    
  71.845      67.288      57.090      46.460      36.800      27.763      22.064      21.697      25.498      30.163    
  32.221      30.163      25.498      21.697      22.064      27.763      36.800      46.460      57.090      67.288    
  50.687      47.918      41.310      33.803      27.533      24.571      25.853      31.031      38.754      46.017    
  49.046      46.017      38.754      31.031      25.853      24.571      27.533      33.803      41.310      47.918    
  32.691      30.556      25.744      21.801      21.617      25.601      32.414      41.113      50.808      59.315    
  62.848      59.315      50.808      41.113      32.414      25.601      21.617      21.801      25.744      30.556    
  15.116      14.119      12.839      14.664      21.175      30.625      40.971      51.069      60.948      69.508    
  73.121      69.508      60.948      51.069      40.971      30.625      21.175      14.664      12.839      14.119    
  7.5687      7.0317      7.7302      13.640      25.022      38.281      50.672      61.180      71.060      79.979    
  83.870      79.979      71.060      61.180      50.672      38.281      25.022      13.640      7.7302      7.0317    
  9.6482      8.5410      8.7007      15.842      29.753      45.507      59.291      70.298      80.888      90.984    
  95.504      90.984      80.888      70.298      59.291      45.507      29.753      15.842      8.7007      8.5410    
  12.156      10.599      10.039      17.190      31.835      48.523      62.896      74.228      85.330      96.138    
  101.02      96.138      85.330      74.228      62.896      48.523      31.835      17.190      10.039      10.599    
  9.6482      8.5410      8.7007      15.842      29.753      45.507      59.291      70.298      80.888      90.984    
  95.504      90.984      80.888      70.298      59.291      45.507      29.753      15.842      8.7007      8.5410    
  7.5687      7.0317      7.7302      13.640      25.022      38.281      50.672      61.180      71.060      79.979    
  83.870      79.979      71.060      61.180      50.672      38.281      25.022      13.640      7.7302      7.0317    
  15.116      14.119      12.839      14.664      21.175      30.625      40.971      51.069      60.948      69.508    
  73.121      69.508      60.948      51.069      40.971      30.625      21.175      14.664      12.839      14.119    
  32.691      30.556      25.744      21.801      21.617      25.601      32.414      41.113      50.808      59.315    
  62.848      59.315      50.808      41.113      32.414      25.601      21.617      21.801      25.744      30.556    
  50.687      47.918      41.310      33.803      27.533      24.571      25.853      31.031      38.754      46.017    
  49.046      46.017      38.754      31.031      25.853      24.571      27.533      33.803      41.310      47.918    
  71.845      67.288      57.090      46.460      36.800      27.763      22.064      21.697      25.498      30.163    
  32.221      30.163      25.498      21.697      22.064      27.763      36.800      46.460      57.090      67.288    
  107.16      98.378      79.232      60.834      46.521      34.130      22.264      15.003      13.769      15.846    
  17.165      15.846      13.769      15.003      22.264      34.130      46.521      60.834      79.232      98.378    
  157.75      142.95      110.31      79.145      57.099      41.599      26.123      12.938      7.5970      8.5824    
  9.9822      8.5824      7.5970      12.938      26.123      41.599      57.099      79.145      110.31      142.95    
  208.20      187.96      142.53      98.132      67.279      48.151      30.864      14.125      6.9703      8.8020    
  11.080      8.8020      6.9703      14.125      30.864      48.151      67.279      98.132      142.53      187.96    
  173.31      156.98      120.58      85.236      60.286      43.646      27.659      13.526      7.7759      9.0597    
  10.721      9.0597      7.7759      13.526      27.659      43.646      60.286      85.236      120.58      156.98    
  157.88      143.29      110.92      79.624      57.241      41.549      26.005      12.787      7.3947      8.3064    
  9.6690      8.3064      7.3947      12.787      26.005      41.549      57.241      79.624      110.92      143.29    
  122.54      112.08      89.048      66.748      49.838      36.138      22.227      11.901      8.0449      8.6697    
  9.5740      8.6697      8.0449      11.901      22.227      36.138      49.838      66.748      89.048      112.08    
  86.804      80.579      66.774      52.774      40.699      29.152      19.009      13.534      12.908      14.579    
  15.561      14.579      12.908      13.534      19.009      29.152      40.699      52.774      66.774      80.579    
  61.057      57.548      49.342      40.043      30.913      22.935      18.694      19.053      22.469      26.157    
  27.706      26.157      22.469      19.053      18.694      22.935      30.913      40.043      49.342      57.548    
  44.295      41.880      35.776      28.306      22.237      19.888      21.926      27.206      33.809      39.371    
  41.570      39.371      33.809      27.206      21.926      19.888      22.237      28.306      35.776      41.880    
  28.588      26.935      22.937      19.052      18.012      21.193      27.828      36.310      44.810      51.406    
  53.964      51.406      44.810      36.310      27.828      21.193      18.012      19.052      22.937      26.935    
  14.098      13.802      13.512      14.747      18.968      26.223      35.598      45.567      54.618      61.429    
  64.075      61.429      54.618      45.567      35.598      26.223      18.968      14.747      13.512      13.802    
  6.4681      6.9524      9.1336      14.373      22.878      33.158      44.258      54.823      64.102      71.269    
  74.133      71.269      64.102      54.823      44.258      33.158      22.878      14.373      9.1336      6.9524    
  5.1690      5.5701      8.1991      15.366      26.639      39.271      51.734      62.868      72.745      80.779    
  84.097      80.779      72.745      62.868      51.734      39.271      26.639      15.366      8.1991      5.5701    
  5.6012      5.8041      8.2520      15.884      28.130      41.733      54.806      66.261      76.531      85.076    
  88.648      85.076      76.531      66.261      54.806      41.733      28.130      15.884      8.2520      5.8041    
  5.1690      5.5701      8.1991      15.366      26.639      39.271      51.734      62.868      72.745      80.779    
  84.097      80.779      72.745      62.868      51.734      39.271      26.639      15.366      8.1991      5.5701    
  6.4681      6.9524      9.1336      14.373      22.878      33.158      44.258      54.823      64.102      71.269    
  74.133      71.269      64.102      54.823      44.258      33.158      22.878      14.373      9.1336      6.9524    
  14.098      13.802      13.512      14.747      18.968      26.223      35.598      45.567      54.618      61.429    
  64.075      61.429      54.618      45.567      35.598      26.223      18.968      14.747      13.512      13.802    
  28.588      26.935      22.937      19.052      18.012      21.193      27.828      36.310      44.810      51.406    
  53.964      51.406      44.810      36.310      27.828      21.193      18.012      19.052      22.937      26.935    
  44.295      41.880      35.776      28.306      22.237      19.888      21.926      27.206      33.809      39.371    
  41.570      39.371      33.809      27.206      21.926      19.888      22.237      28.306      35.776      41.880    
  61.057      57.548      49.342      40.043      30.913      22.935      18.694      19.053      22.469      26.157    
  27.706      26.157      22.469      19.053      18.694      22.935      30.913      40.043      49.342      57.548    
  86.804      80.579      66.774      52.774      40.699      29.152      19.009      13.534      12.908      14.579    
  15.561      14.579      12.908      13.534      19.009      29.152      40.699      52.774      66.774      80.579    
  122.54      112.08      89.048      66.748      49.838      36.138      22.227      11.901      8.0449      8.6697    
  9.5740      8.6697      8.0449      11.901      22.227      36.138      49.838      66.748      89.048      112.08    
  157.88      143.29      110.92      79.624      57.241      41.549      26.005      12.787      7.3947      8.3064    
  9.6690      8.3064      7.3947      12.787      26.005      41.549      57.241      79.624      110.92      143.29    
  115.78      106.21      85.083      64.420      48.545      35.629      23.422      15.992      15.048      17.630    
  19.194      17.630      15.048      15.992      23.422      35.629      48.545      64.420      85.083      106.21    
  106.87      98.362      79.561      61.017      46.345      33.815      22.090      15.179      14.295      16.570    
  17.942      16.570      14.295      15.179      22.090      33.815      46.345      61.017      79.561      98.362    
  86.550      80.438      66.777      52.736      40.539      28.953      18.922      13.699      13.346      15.204    
  16.248      15.204      13.346      13.699      18.922      28.953      40.539      52.736      66.777      80.438    
  65.788      61.925      52.913      42.688      32.535      22.712      15.912      13.646      14.846      17.037    
  18.041      17.037      14.846      13.646      15.912      22.712      32.535      42.688      52.913      61.925    
  49.420      46.894      40.512      32.300      23.810      17.464      15.083      16.587      20.175      23.500    
  24.814      23.500      20.175      16.587      15.083      17.464      23.810      32.300      40.512      46.894    
  35.646      33.751      28.715      22.368      17.200      15.332      17.435      22.397      28.122      32.607    
  34.305      32.607      28.122      22.397      17.435      15.332      17.200      22.368      28.715      33.751    
  21.620      20.662      18.223      15.624      14.757      17.094      22.574      29.801      37.023      42.427    
  44.456      42.427      37.023      29.801      22.574      17.094      14.757      15.624      18.223      20.662    
  11.459      11.475      11.724      12.905      16.073      21.766      29.412      38.009      46.047      51.990    
  54.239      51.990      46.047      38.009      29.412      21.766      16.073      12.905      11.724      11.475    
  7.4678      7.7506      9.1064      12.633      18.960      27.319      36.748      46.332      54.997      61.522    
  64.050      61.522      54.997      46.332      36.748      27.319      18.960      12.633      9.1064      7.7506    
  7.6259      7.5683      8.5920      12.954      21.316      31.746      42.748      53.287      62.732      70.045    
  72.946      70.045      62.732      53.287      42.748      31.746      21.316      12.954      8.5920      7.5683    
  8.2631      7.9588      8.6052      13.090      22.164      33.438      45.131      56.131      65.990      73.714    
  76.804      73.714      65.990      56.131      45.131      33.438      22.164      13.090      8.6052      7.9588    
  7.6259      7.5683      8.5920      12.954      21.316      31.746      42.748      53.287      62.732      70.045    
  72.946      70.045      62.732      53.287      42.748      31.746      21.316      12.954      8.5920      7.5683    
  7.4678      7.7506      9.1064      12.633      18.960      27.319      36.748      46.332      54.997      61.522    
  64.050      61.522      54.997      46.332      36.748      27.319      18.960      12.633      9.1064      7.7506    
  11.459      11.475      11.724      12.905      16.073      21.766      29.412      38.009      46.047      51.990    
  54.239      51.990      46.047      38.009      29.412      21.766      16.073      12.905      11.724      11.475    
  21.620      20.662      18.223      15.624      14.757      17.094      22.574      29.801      37.023      42.427    
  44.456      42.427      37.023      29.801      22.574      17.094      14.757      15.624      18.223      20.662    
  35.646      33.751      28.715      22.368      17.200      15.332      17.435      22.397      28.122      32.607    
  34.305      32.607      28.122      22.397      17.435      15.332      17.200      22.368      28.715      33.751    
  49.420      46.894      40.512      32.300      23.810      17.464      15.083      16.587      20.175      23.500    
  24.814      23.500      20.175      16.587      15.083      17.464      23.810      32.300      40.512      46.894    
  65.788      61.925      52.913      42.688      32.535      22.712      15.912      13.646      14.846      17.037    
  18.041      17.037      14.846      13.646      15.912      22.712      32.535      42.688      52.913      61.925    
  86.550      80.438      66.777      52.736      40.539      28.953      18.922      13.699      13.346      15.204    
  16.248      15.204      13.346      13.699      18.922      28.953      40.539      52.736      66.777      80.438    
  106.87      98.362      79.561      61.017      46.345      33.815      22.090      15.179      14.295      16.570    
  17.942      16.570      14.295      15.179      22.090      33.815      46.345      61.017      79.561      98.362    
  75.730      70.918      60.040      48.596      38.403      29.213      23.873      24.581      29.732      35.348    
  37.725      35.348      29.732      24.581      23.873      29.213      38.403      48.596      60.040      70.918    
  71.078      66.703      56.716      45.981      36.161      27.343      22.480      23.324      28.174      33.329    
  35.480      33.329      28.174      23.324      22.480      27.343      36.161      45.981      56.716      66.703    
  60.461      57.052      48.973      39.649      30.458      22.658      19.027      20.298      24.583      28.818    
  30.531      28.818      24.583      20.298      19.027      22.658      30.458      39.649      48.973      57.052    
  49.106      46.615      40.286      32.087      23.601      17.372      15.319      17.329      21.448      25.158    
  26.610      25.158      21.448      17.329      15.319      17.372      23.601      32.087      40.286      46.615    
  38.141      36.297      31.249      24.377      17.806      13.717      13.352      16.358      20.982      24.958    
  26.504      24.958      20.982      16.358      13.352      13.717      17.806      24.377      31.249      36.297    
  26.018      24.810      21.622      17.604      14.238      12.884      14.342      18.436      23.845      28.451    
  30.264      28.451      23.845      18.436      14.342      12.884      14.238      17.604      21.622      24.810    
  15.904      15.289      13.930      12.876      13.008      14.742      18.209      23.270      29.246      34.429    
  36.525      34.429      29.246      23.270      18.209      14.742      13.008      12.876      13.930      15.289    
  12.414      11.737      10.635      10.939      13.632      18.243      23.744      29.825      36.462      42.218    
  44.579      42.218      36.462      29.825      23.744      18.243      13.632      10.939      10.635      11.737    
  16.087      14.615      11.951      11.567      15.304      22.021      29.411      36.902      44.556      51.086    
  53.771      51.086      44.556      36.902      29.411      22.021      15.304      11.567      11.951      14.615    
  22.506      20.053      15.259      13.277      16.983      24.850      33.750      42.693      51.562      59.013    
  62.064      59.013      51.562      42.693      33.750      24.850      16.983      13.277      15.259      20.053    
  25.583      22.692      16.925      14.144      17.682      25.897      35.400      44.991      54.444      62.340    
  65.565      62.340      54.444      44.991      35.400      25.897      17.682      14.144      16.925      22.692    
  22.506      20.053      15.259      13.277      16.983      24.850      33.750      42.693      51.562      59.013    
  62.064      59.013      51.562      42.693      33.750      24.850      16.983      13.277      15.259      20.053    
  16.087      14.615      11.951      11.567      15.304      22.021      29.411      36.902      44.556      51.086    
  53.771      51.086      44.556      36.902      29.411      22.021      15.304      11.567      11.951      14.615    
  12.414      11.737      10.635      10.939      13.632      18.243      23.744      29.825      36.462      42.218    
  44.579      42.218      36.462      29.825      23.744      18.243      13.632      10.939      10.635      11.737    
  15.904      15.289      13.930      12.876      13.008      14.742      18.209      23.270      29.246      34.429    
  36.525      34.429      29.246      23.270      18.209      14.742      13.008      12.876      13.930      15.289    
  26.018      24.810      21.622      17.604      14.238      12.884      14.342      18.436      23.845      28.451    
  30.264      28.451      23.845      18.436      14.342      12.884      14.238      17.604      21.622      24.810    
  38.141      36.297      31.249      24.377      17.806      13.717      13.352      16.358      20.982      24.958    
  26.504      24.958      20.982      16.358      13.352      13.717      17.806      24.377      31.249      36.297    
  49.106      46.615      40.286      32.087      23.601      17.372      15.319      17.329      21.448      25.158    
  26.610      25.158      21.448      17.329      15.319      17.372      23.601      32.087      40.286      46.615    
  60.461      57.052      48.973      39.649      30.458      22.658      19.027      20.298      24.583      28.818    
  30.531      28.818      24.583      20.298      19.027      22.658      30.458      39.649      48.973      57.052    
  71.078      66.703      56.716      45.981      36.161      27.343      22.480      23.324      28.174      33.329    
  35.480      33.329      28.174      23.324      22.480      27.343      36.161      45.981      56.716      66.703    
  52.219      49.401      42.685      35.160      29.051      26.859      29.758      36.701      45.727      53.811    
  57.140      53.811      45.727      36.701      29.758      26.859      29.051      35.160      42.685      49.401    
  49.783      47.086      40.529      32.941      26.821      24.850      28.042      35.054      43.606      50.934    
  53.885      50.934      43.606      35.054      28.042      24.850      26.821      32.941      40.529      47.086    
  43.523      41.168      35.135      27.654      21.741      20.160      23.695      30.652      38.231      44.096    
  46.327      44.096      38.231      30.652      23.695      20.160      21.741      27.654      35.135      41.168    
  35.088      33.233      28.265      21.964      16.949      15.586      18.658      24.863      31.654      36.697    
  38.553      36.697      31.654      24.863      18.658      15.586      16.949      21.964      28.265      33.233    
  25.733      24.540      21.387      17.420      14.162      13.064      14.985      19.716      25.791      30.901    
  32.896      30.901      25.791      19.716      14.985      13.064      14.162      17.420      21.387      24.540    
  18.678      17.866      15.986      14.117      12.934      12.690      13.893      17.276      22.605      27.809    
  30.000      27.809      22.605      17.276      13.893      12.690      12.934      14.117      15.986      17.866    
  17.599      16.411      13.981      12.393      12.495      13.644      15.405      18.473      23.277      28.225    
  30.381      28.225      23.277      18.473      15.405      13.644      12.495      12.393      13.981      16.411    
  23.943      21.750      17.049      13.535      13.223      15.395      18.605      22.545      27.438      32.188    
  34.240      32.188      27.438      22.545      18.605      15.395      13.223      13.535      17.049      21.750    
  35.285      32.014      24.581      17.976      15.669      17.699      22.173      27.620      33.595      38.822    
  40.978      38.822      33.595      27.620      22.173      17.699      15.669      17.976      24.581      32.014    
  46.025      42.052      32.656      23.395      18.787      19.865      24.879      31.755      39.216      45.387    
  47.845      45.387      39.216      31.755      24.879      19.865      18.787      23.395      32.656      42.052    
  50.413      46.216      36.142      25.858      20.242      20.778      25.885      33.350      41.516      48.184    
  50.813      48.184      41.516      33.350      25.885      20.778      20.242      25.858      36.142      46.216    
  46.025      42.052      32.656      23.395      18.787      19.865      24.879      31.755      39.216      45.387    
  47.845      45.387      39.216      31.755      24.879      19.865      18.787      23.395      32.656      42.052    
  35.285      32.014      24.581      17.976      15.669      17.699      22.173      27.620      33.595      38.822    
  40.978      38.822      33.595      27.620      22.173      17.699      15.669      17.976      24.581      32.014    
  23.943      21.750      17.049      13.535      13.223      15.395      18.605      22.545      27.438      32.188    
  34.240      32.188      27.438      22.545      18.605      15.395      13.223      13.535      17.049      21.750    
  17.599      16.411      13.981      12.393      12.495      13.644      15.405      18.473      23.277      28.225    
  30.381      28.225      23.277      18.473      15.405      13.644      12.495      12.393      13.981      16.411    
  18.678      17.866      15.986      14.117      12.934      12.690      13.893      17.276      22.605      27.809    
  30.000      27.809      22.605      17.276      13.893      12.690      12.934      14.117      15.986      17.866    
  25.733      24.540      21.387      17.420      14.162      13.064      14.985      19.716      25.791      30.901    
  32.896      30.901      25.791      19.716      14.985      13.064      14.162      17.420      21.387      24.540    
  35.088      33.233      28.265      21.964      16.949      15.586      18.658      24.863      31.654      36.697    
  38.553      36.697      31.654      24.863      18.658      15.586      16.949      21.964      28.265      33.233    
  43.523      41.168      35.135      27.654      21.741      20.160      23.695      30.652      38.231      44.096    
  46.327      44.096      38.231      30.652      23.695      20.160      21.741      27.654      35.135      41.168    
  49.783      47.086      40.529      32.941      26.821      24.850      28.042      35.054      43.606      50.934    
  53.885      50.934      43.606      35.054      28.042      24.850      26.821      32.941      40.529      47.086    
  33.005      30.696      25.610      21.922      23.114      29.578      38.852      49.403      60.709      70.754    
  75.008      70.754      60.709      49.403      38.852      29.578      23.114      21.922      25.610      30.696    
  31.880      29.735      24.860      20.964      21.544      27.538      36.844      47.423      58.148      67.121    
  70.810      67.121      58.148      47.423      36.844      27.538      21.544      20.964      24.860      29.735    