unknown system                          
   1.00000000000000     
     3.866000    0.000000    0.000000
     0.000000    3.866000    0.000000
     0.000000    0.000000    3.866000
   Pd   Ir   Pt   Cu
     1     1     1     1
Direct
  0.000000  0.000000  0.000000
  0.500000  0.500000  0.000000
  0.500000  0.000000  0.500000
  0.000000  0.500000  0.500000
 
   20   20   20
 0.25491153811E+03 0.22999679892E+03 0.17326352155E+03 0.11659537335E+03 0.77017889777E+02
 0.53971550806E+02 0.35328066604E+02 0.16383640682E+02 0.87018132510E+01 0.12327666794E+02
 0.15839291395E+02 0.12327666794E+02 0.87018132510E+01 0.16383640682E+02 0.35328066604E+02
 0.53971550806E+02 0.77017889777E+02 0.11659537335E+03 0.17326352155E+03 0.22999679892E+03
 0.23000190567E+03 0.20744218923E+03 0.15652427034E+03 0.10640013893E+03 0.71655204167E+02
 0.50862288413E+02 0.33003112389E+02 0.15225364857E+02 0.78259422888E+01 0.10497090314E+02
 0.13351331850E+02 0.10497090314E+02 0.78259422888E+01 0.15225364857E+02 0.33003112389E+02
 0.50862288413E+02 0.71655204167E+02 0.10640013893E+03 0.15652427034E+03 0.20744218923E+03
 0.17299951301E+03 0.15634726050E+03 0.11954380201E+03 0.84414128624E+02 0.60002388918E+02
 0.43674979574E+02 0.27806738191E+02 0.13761148064E+02 0.81389675987E+01 0.95764868224E+01
 0.11310108165E+02 0.95764868224E+01 0.81389675987E+01 0.13761148064E+02 0.27806738191E+02
 0.43674979574E+02 0.60002388918E+02 0.84414128624E+02 0.11954380201E+03 0.15634726050E+03
 0.11603039063E+03 0.10610434459E+03 0.84528480717E+02 0.64073611808E+02 0.48691677106E+02
 0.35969806048E+02 0.23617761894E+02 0.15811418173E+02 0.14513295451E+02 0.16918595701E+02
 0.18443053049E+02 0.16918595701E+02 0.14513295451E+02 0.15811418173E+02 0.23617761894E+02
 0.35969806048E+02 0.48691677106E+02 0.64073611808E+02 0.84528480717E+02 0.10610434459E+03
 0.76546049372E+02 0.71511429063E+02 0.60382712763E+02 0.49086550018E+02 0.39107851356E+02
 0.29684307486E+02 0.23415660748E+02 0.22797097840E+02 0.26853927497E+02 0.32038501473E+02
 0.34357667037E+02 0.32038501473E+02 0.26853927497E+02 0.22797097840E+02 0.23415660748E+02
 0.29684307486E+02 0.39107851356E+02 0.49086550018E+02 0.60382712763E+02 0.71511429063E+02
 0.53165575119E+02 0.50271663313E+02 0.43515951633E+02 0.36104699942E+02 0.29846941568E+02
 0.26578236728E+02 0.27411921660E+02 0.32485581928E+02 0.40738931970E+02 0.48841801267E+02
 0.52283105617E+02 0.48841801267E+02 0.40738931970E+02 0.32485581928E+02 0.27411921660E+02
 0.26578236728E+02 0.29846941568E+02 0.36104699942E+02 0.43515951633E+02 0.50271663313E+02
 0.33812749628E+02 0.31532453902E+02 0.26555697164E+02 0.22850097626E+02 0.23231813010E+02
 0.27552301296E+02 0.34272083729E+02 0.42899107868E+02 0.53123663965E+02 0.62604643851E+02
 0.66644174019E+02 0.62604643851E+02 0.53123663965E+02 0.42899107868E+02 0.34272083729E+02
 0.27552301296E+02 0.23231813010E+02 0.22850097626E+02 0.26555697164E+02 0.31532453902E+02
 0.14982965517E+02 0.13647179528E+02 0.11940546660E+02 0.14207887321E+02 0.21992533286E+02
 0.32541823206E+02 0.43177240122E+02 0.53132385207E+02 0.63380855662E+02 0.72898555033E+02
 0.77050376645E+02 0.72898555033E+02 0.63380855662E+02 0.53132385207E+02 0.43177240122E+02
 0.32541823206E+02 0.21992533286E+02 0.14207887321E+02 0.11940546660E+02 0.13647179528E+02
 0.80674508231E+01 0.68905223569E+01 0.65988776038E+01 0.12714574328E+02 0.25585038368E+02
 0.40397212331E+02 0.53309770183E+02 0.63633989778E+02 0.73822636116E+02 0.83758217079E+02
 0.88243711918E+02 0.83758217079E+02 0.73822636116E+02 0.63633989778E+02 0.53309770183E+02
 0.40397212331E+02 0.25585038368E+02 0.12714574328E+02 0.65988776038E+01 0.68905223569E+01
 0.12470273513E+02 0.10356658385E+02 0.87400449161E+01 0.15448477547E+02 0.30606879222E+02
 0.47992952576E+02 0.62383896947E+02 0.73241090504E+02 0.84240247985E+02 0.95533861571E+02
 0.10074594702E+03 0.95533861571E+02 0.84240247985E+02 0.73241090504E+02 0.62383896947E+02
 0.47992952576E+02 0.30606879222E+02 0.15448477547E+02 0.87400449161E+01 0.10356658385E+02
 0.16292652528E+02 0.13556026005E+02 0.10833615068E+02 0.17200591089E+02 0.32910436462E+02
 0.51201434064E+02 0.66196923164E+02 0.77410865887E+02 0.88998646843E+02 0.10111070866E+03
 0.10673221364E+03 0.10111070866E+03 0.88998646843E+02 0.77410865887E+02 0.66196923164E+02
 0.51201434064E+02 0.32910436462E+02 0.17200591089E+02 0.10833615068E+02 0.13556026005E+02
 0.12470273513E+02 0.10356658385E+02 0.87400449161E+01 0.15448477547E+02 0.30606879222E+02
 0.47992952576E+02 0.62383896947E+02 0.73241090504E+02 0.84240247985E+02 0.95533861571E+02
 0.10074594702E+03 0.95533861571E+02 0.84240247985E+02 0.73241090504E+02 0.62383896947E+02
 0.47992952576E+02 0.30606879222E+02 0.15448477547E+02 0.87400449161E+01 0.10356658385E+02
 0.80674508231E+01 0.68905223569E+01 0.65988776038E+01 0.12714574328E+02 0.25585038368E+02
 0.40397212331E+02 0.53309770183E+02 0.63633989778E+02 0.73822636116E+02 0.83758217079E+02
 0.88243711918E+02 0.83758217079E+02 0.73822636116E+02 0.63633989778E+02 0.53309770183E+02
 0.40397212331E+02 0.25585038368E+02 0.12714574328E+02 0.65988776038E+01 0.68905223569E+01
 0.14982965517E+02 0.13647179528E+02 0.11940546660E+02 0.14207887321E+02 0.21992533286E+02
 0.32541823206E+02 0.43177240122E+02 0.53132385207E+02 0.63380855662E+02 0.72898555033E+02
 0.77050376645E+02 0.72898555033E+02 0.63380855662E+02 0.53132385207E+02 0.43177240122E+02
 0.32541823206E+02 0.21992533286E+02 0.14207887321E+02 0.11940546660E+02 0.13647179528E+02
 0.33812749628E+02 0.31532453902E+02 0.26555697164E+02 0.22850097626E+02 0.23231813010E+02
 0.27552301296E+02 0.34272083729E+02 0.42899107868E+02 0.53123663965E+02 0.62604643851E+02
 0.66644174019E+02 0.62604643851E+02 0.53123663965E+02 0.42899107868E+02 0.34272083729E+02
 0.27552301296E+02 0.23231813010E+02 0.22850097626E+02 0.26555697164E+02 0.31532453902E+02
 0.53165575119E+02 0.50271663313E+02 0.43515951633E+02 0.36104699942E+02 0.29846941568E+02
 0.26578236728E+02 0.27411921660E+02 0.32485581928E+02 0.40738931970E+02 0.48841801267E+02
 0.52283105617E+02 0.48841801267E+02 0.40738931970E+02 0.32485581928E+02 0.27411921660E+02
 0.26578236728E+02 0.29846941568E+02 0.36104699942E+02 0.43515951633E+02 0.50271663313E+02
 0.76546049372E+02 0.71511429063E+02 0.60382712763E+02 0.49086550018E+02 0.39107851356E+02
 0.29684307486E+02 0.23415660748E+02 0.22797097840E+02 0.26853927497E+02 0.32038501473E+02
 0.34357667037E+02 0.32038501473E+02 0.26853927497E+02 0.22797097840E+02 0.23415660748E+02
 0.29684307486E+02 0.39107851356E+02 0.49086550018E+02 0.60382712763E+02 0.71511429063E+02
 0.11603039063E+03 0.10610434459E+03 0.84528480717E+02 0.64073611808E+02 0.48691677106E+02
 0.35969806048E+02 0.23617761894E+02 0.15811418173E+02 0.14513295451E+02 0.16918595701E+02
 0.18443053049E+02 0.16918595701E+02 0.14513295451E+02 0.15811418173E+02 0.23617761894E+02
 0.35969806048E+02 0.48691677106E+02 0.64073611808E+02 0.84528480717E+02 0.10610434459E+03
 0.17299951301E+03 0.15634726050E+03 0.11954380201E+03 0.84414128624E+02 0.60002388918E+02
 0.43674979574E+02 0.27806738191E+02 0.13761148064E+02 0.81389675987E+01 0.95764868224E+01
 0.11310108165E+02 0.95764868224E+01 0.81389675987E+01 0.13761148064E+02 0.27806738191E+02
 0.43674979574E+02 0.60002388918E+02 0.84414128624E+02 0.11954380201E+03 0.15634726050E+03
 0.23000190567E+03 0.20744218923E+03 0.15652427034E+03 0.10640013893E+03 0.71655204167E+02
 0.50862288413E+02 0.33003112389E+02 0.15225364857E+02 0.78259422888E+01 0.10497090314E+02
 0.13351331850E+02 0.10497090314E+02 0.78259422888E+01 0.15225364857E+02 0.33003112389E+02
 0.50862288413E+02 0.71655204167E+02 0.10640013893E+03 0.15652427034E+03 0.20744218923E+03
 0.23023440407E+03 0.20779714074E+03 0.15702843289E+03 0.10681194179E+03 0.71839611877E+02
 0.50903551990E+02 0.32976012969E+02 0.15118040043E+02 0.76122170863E+01 0.10179450926E+02
 0.12989105825E+02 0.10179450926E+02 0.76122170863E+01 0.15118040043E+02 0.32976012969E+02
 0.50903551990E+02 0.71839611877E+02 0.10681194179E+03 0.15702843289E+03 0.20779714074E+03
 0.20820057082E+03 0.18796392571E+03 0.14253259151E+03 0.98131840912E+02 0.67278721119E+02
 0.48150743028E+02 0.30863762943E+02 0.14124995514E+02 0.69703129653E+01 0.88020011299E+01
 0.11080498856E+02 0.88020011299E+01 0.69703129653E+01 0.14124995514E+02 0.30863762943E+02
 0.48150743028E+02 0.67278721119E+02 0.98131840912E+02 0.14253259151E+03 0.18796392571E+03
 0.15774740813E+03 0.14294585297E+03 0.11031165268E+03 0.79144762494E+02 0.57098747575E+02
 0.41598691850E+02 0.26122925052E+02 0.12938187829E+02 0.75970408547E+01 0.85823504513E+01
 0.99821868631E+01 0.85823504513E+01 0.75970408547E+01 0.12938187829E+02 0.26122925052E+02
 0.41598691850E+02 0.57098747575E+02 0.79144762494E+02 0.11031165268E+03 0.14294585297E+03
 0.10715969434E+03 0.98377837363E+02 0.79231716402E+02 0.60833923738E+02 0.46520638556E+02
 0.34129518450E+02 0.22264417651E+02 0.15002652361E+02 0.13769205817E+02 0.15846435638E+02
 0.17164819893E+02 0.15846435638E+02 0.13769205817E+02 0.15002652361E+02 0.22264417651E+02
 0.34129518450E+02 0.46520638556E+02 0.60833923738E+02 0.79231716402E+02 0.98377837363E+02
 0.71844570142E+02 0.67288193649E+02 0.57089954184E+02 0.46459807767E+02 0.36800045629E+02
 0.27763323780E+02 0.22064317704E+02 0.21697194837E+02 0.25497983581E+02 0.30162823930E+02
 0.32220849996E+02 0.30162823930E+02 0.25497983581E+02 0.21697194837E+02 0.22064317704E+02
 0.27763323780E+02 0.36800045629E+02 0.46459807767E+02 0.57089954184E+02 0.67288193649E+02
 0.50686718693E+02 0.47917656236E+02 0.41309544453E+02 0.33802934914E+02 0.27532799949E+02
 0.24571180636E+02 0.25853483090E+02 0.31030950684E+02 0.38754208726E+02 0.46016894744E+02
 0.49045906938E+02 0.46016894744E+02 0.38754208726E+02 0.31030950684E+02 0.25853483090E+02
 0.24571180636E+02 0.27532799949E+02 0.33802934914E+02 0.41309544453E+02 0.47917656236E+02
 0.32690995015E+02 0.30556275955E+02 0.25743819938E+02 0.21800694930E+02 0.21616846084E+02
 0.25600929602E+02 0.32413892497E+02 0.41113492089E+02 0.50808460575E+02 0.59315237013E+02
 0.62847975937E+02 0.59315237013E+02 0.50808460575E+02 0.41113492089E+02 0.32413892497E+02
 0.25600929602E+02 0.21616846084E+02 0.21800694930E+02 0.25743819938E+02 0.30556275955E+02
 0.15115978863E+02 0.14118870066E+02 0.12838627543E+02 0.14663838291E+02 0.21174706255E+02
 0.30625349171E+02 0.40971156412E+02 0.51069018628E+02 0.60948166149E+02 0.69507796642E+02
 0.73120507874E+02 0.69507796642E+02 0.60948166149E+02 0.51069018628E+02 0.40971156412E+02
 0.30625349171E+02 0.21174706255E+02 0.14663838291E+02 0.12838627543E+02 0.14118870066E+02
 0.75686925220E+01 0.70316996028E+01 0.77301529266E+01 0.13640216392E+02 0.25021990855E+02
 0.38280795983E+02 0.50671914124E+02 0.61179883975E+02 0.71060092265E+02 0.79979141276E+02
 0.83869569160E+02 0.79979141276E+02 0.71060092265E+02 0.61179883975E+02 0.50671914124E+02
 0.38280795983E+02 0.25021990855E+02 0.13640216392E+02 0.77301529266E+01 0.70316996028E+01
 0.96481796947E+01 0.85410131485E+01 0.87006993949E+01 0.15841518802E+02 0.29752682281E+02
 0.45507251107E+02 0.59291247173E+02 0.70298430798E+02 0.80888279501E+02 0.90983855657E+02
 0.95503755217E+02 0.90983855657E+02 0.80888279501E+02 0.70298430798E+02 0.59291247173E+02
 0.45507251107E+02 0.29752682281E+02 0.15841518802E+02 0.87006993949E+01 0.85410131485E+01
 0.12155550170E+02 0.10598802388E+02 0.10039114451E+02 0.17190008651E+02 0.31835191827E+02
 0.48522676585E+02 0.62895667215E+02 0.74228403448E+02 0.85329926523E+02 0.96137973266E+02
 0.10101527706E+03 0.96137973266E+02 0.85329926523E+02 0.74228403448E+02 0.62895667215E+02
 0.48522676585E+02 0.31835191827E+02 0.17190008651E+02 0.10039114451E+02 0.10598802388E+02
 0.96481796947E+01 0.85410131485E+01 0.87006993949E+01 0.15841518802E+02 0.29752682281E+02
 0.45507251107E+02 0.59291247173E+02 0.70298430798E+02 0.80888279501E+02 0.90983855657E+02
 0.95503755217E+02 0.90983855657E+02 0.80888279501E+02 0.70298430798E+02 0.59291247173E+02
 0.45507251107E+02 0.29752682281E+02 0.15841518802E+02 0.87006993949E+01 0.85410131485E+01
 0.75686925220E+01 0.70316996028E+01 0.77301529266E+01 0.13640216392E+02 0.25021990855E+02
 0.38280795983E+02 0.50671914124E+02 0.61179883975E+02 0.71060092265E+02 0.79979141276E+02
 0.83869569160E+02 0.79979141276E+02 0.71060092265E+02 0.61179883975E+02 0.50671914124E+02
 0.38280795983E+02 0.25021990855E+02 0.13640216392E+02 0.77301529266E+01 0.70316996028E+01
 0.15115978863E+02 0.14118870066E+02 0.12838627543E+02 0.14663838291E+02 0.21174706255E+02
 0.30625349171E+02 0.40971156412E+02 0.51069018628E+02 0.60948166149E+02 0.69507796642E+02
 0.73120507874E+02 0.69507796642E+02 0.60948166149E+02 0.51069018628E+02 0.40971156412E+02
 0.30625349171E+02 0.21174706255E+02 0.14663838291E+02 0.12838627543E+02 0.14118870066E+02
 0.32690995015E+02 0.30556275955E+02 0.25743819938E+02 0.21800694930E+02 0.21616846084E+02
 0.25600929602E+02 0.32413892497E+02 0.41113492089E+02 0.50808460575E+02 0.59315237013E+02
 0.62847975937E+02 0.59315237013E+02 0.50808460575E+02 0.41113492089E+02 0.32413892497E+02
 0.25600929602E+02 0.21616846084E+02 0.21800694930E+02 0.25743819938E+02 0.30556275955E+02
 0.50686718693E+02 0.47917656236E+02 0.41309544453E+02 0.33802934914E+02 0.27532799949E+02
 0.24571180636E+02 0.25853483090E+02 0.31030950684E+02 0.38754208726E+02 0.46016894744E+02
 0.49045906938E+02 0.46016894744E+02 0.38754208726E+02 0.31030950684E+02 0.25853483090E+02
 0.24571180636E+02 0.27532799949E+02 0.33802934914E+02 0.41309544453E+02 0.47917656236E+02
 0.71844570142E+02 0.67288193649E+02 0.57089954184E+02 0.46459807767E+02 0.36800045629E+02
 0.27763323780E+02 0.22064317704E+02 0.21697194837E+02 0.25497983581E+02 0.30162823930E+02
 0.32220849996E+02 0.30162823930E+02 0.25497983581E+02 0.21697194837E+02 0.22064317704E+02
 0.27763323780E+02 0.36800045629E+02 0.46459807767E+02 0.57089954184E+02 0.67288193649E+02
 0.10715969434E+03 0.98377837363E+02 0.79231716402E+02 0.60833923738E+02 0.46520638556E+02
 0.34129518450E+02 0.22264417651E+02 0.15002652361E+02 0.13769205817E+02 0.15846435638E+02
 0.17164819893E+02 0.15846435638E+02 0.13769205817E+02 0.15002652361E+02 0.22264417651E+02
 0.34129518450E+02 0.46520638556E+02 0.60833923738E+02 0.79231716402E+02 0.98377837363E+02
 0.15774740813E+03 0.14294585297E+03 0.11031165268E+03 0.79144762494E+02 0.57098747575E+02
 0.41598691850E+02 0.26122925052E+02 0.12938187829E+02 0.75970408547E+01 0.85823504513E+01
 0.99821868631E+01 0.85823504513E+01 0.75970408547E+01 0.12938187829E+02 0.26122925052E+02
 0.41598691850E+02 0.57098747575E+02 0.79144762494E+02 0.11031165268E+03 0.14294585297E+03
 0.20820057082E+03 0.18796392571E+03 0.14253259151E+03 0.98131840912E+02 0.67278721119E+02
 0.48150743028E+02 0.30863762943E+02 0.14124995514E+02 0.69703129653E+01 0.88020011299E+01
 0.11080498856E+02 0.88020011299E+01 0.69703129653E+01 0.14124995514E+02 0.30863762943E+02
 0.48150743028E+02 0.67278721119E+02 0.98131840912E+02 0.14253259151E+03 0.18796392571E+03
 0.17330799326E+03 0.15698308011E+03 0.12058240127E+03 0.85236265570E+02 0.60285634736E+02
 0.43645942362E+02 0.27659239725E+02 0.13525790311E+02 0.77759416913E+01 0.90597451406E+01
 0.10720549903E+02 0.90597451406E+01 0.77759416913E+01 0.13525790311E+02 0.27659239725E+02
 0.43645942362E+02 0.60285634736E+02 0.85236265570E+02 0.12058240127E+03 0.15698308011E+03
 0.15788086636E+03 0.14329319990E+03 0.11092367910E+03 0.79623773288E+02 0.57241479724E+02
 0.41549379831E+02 0.26005316883E+02 0.12787103669E+02 0.73947066378E+01 0.83064123069E+01
 0.96689912510E+01 0.83064123069E+01 0.73947066378E+01 0.12787103669E+02 0.26005316883E+02
 0.41549379831E+02 0.57241479724E+02 0.79623773288E+02 0.11092367910E+03 0.14329319990E+03
 0.12254268071E+03 0.11207626417E+03 0.89047960398E+02 0.66747569871E+02 0.49837685427E+02
 0.36138179917E+02 0.22226507554E+02 0.11900723051E+02 0.80448781394E+01 0.86696761842E+01
 0.95740309800E+01 0.86696761842E+01 0.80448781394E+01 0.11900723051E+02 0.22226507554E+02
 0.36138179917E+02 0.49837685427E+02 0.66747569871E+02 0.89047960398E+02 0.11207626417E+03
 0.86804310857E+02 0.80579266237E+02 0.66774435554E+02 0.52773568889E+02 0.40698747261E+02
 0.29152443014E+02 0.19009135778E+02 0.13534026607E+02 0.12907540914E+02 0.14579435480E+02
 0.15560736442E+02 0.14579435480E+02 0.12907540914E+02 0.13534026607E+02 0.19009135778E+02
 0.29152443014E+02 0.40698747261E+02 0.52773568889E+02 0.66774435554E+02 0.80579266237E+02
 0.61056786981E+02 0.57548149810E+02 0.49342310840E+02 0.40043030722E+02 0.30912684960E+02
 0.22935077919E+02 0.18693890536E+02 0.19052646362E+02 0.22469260271E+02 0.26157181144E+02
 0.27706019320E+02 0.26157181144E+02 0.22469260271E+02 0.19052646362E+02 0.18693890536E+02
 0.22935077919E+02 0.30912684960E+02 0.40043030722E+02 0.49342310840E+02 0.57548149810E+02
 0.44294952989E+02 0.41880162959E+02 0.35776298243E+02 0.28306223031E+02 0.22237151981E+02
 0.19887783573E+02 0.21926474277E+02 0.27205849445E+02 0.33808553226E+02 0.39370534091E+02
 0.41570129574E+02 0.39370534091E+02 0.33808553226E+02 0.27205849445E+02 0.21926474277E+02
 0.19887783573E+02 0.22237151981E+02 0.28306223031E+02 0.35776298243E+02 0.41880162959E+02
 0.28587663509E+02 0.26935140677E+02 0.22936849618E+02 0.19051963855E+02 0.18011582391E+02
 0.21192943011E+02 0.27827762678E+02 0.36309583440E+02 0.44810100753E+02 0.51405893733E+02
 0.53964300445E+02 0.51405893733E+02 0.44810100753E+02 0.36309583440E+02 0.27827762678E+02
 0.21192943011E+02 0.18011582391E+02 0.19051963855E+02 0.22936849618E+02 0.26935140677E+02
 0.14098258139E+02 0.13801662414E+02 0.13511940812E+02 0.14746527299E+02 0.18967764099E+02
 0.26223379553E+02 0.35598318551E+02 0.45566507496E+02 0.54617906114E+02 0.61429213818E+02
 0.64074516370E+02 0.61429213818E+02 0.54617906114E+02 0.45566507496E+02 0.35598318551E+02
 0.26223379553E+02 0.18967764099E+02 0.14746527299E+02 0.13511940812E+02 0.13801662414E+02
 0.64680503907E+01 0.69524267214E+01 0.91335722954E+01 0.14372529138E+02 0.22877653681E+02
 0.33158017141E+02 0.44257952569E+02 0.54823395656E+02 0.64102307836E+02 0.71269248667E+02
 0.74133490690E+02 0.71269248667E+02 0.64102307836E+02 0.54823395656E+02 0.44257952569E+02
 0.33158017141E+02 0.22877653681E+02 0.14372529138E+02 0.91335722954E+01 0.69524267214E+01
 0.51689608656E+01 0.55700712193E+01 0.81991201318E+01 0.15365676347E+02 0.26639394215E+02
 0.39270535602E+02 0.51733985147E+02 0.62867635104E+02 0.72745474200E+02 0.80778907639E+02
 0.84096780527E+02 0.80778907639E+02 0.72745474200E+02 0.62867635104E+02 0.51733985147E+02
 0.39270535602E+02 0.26639394215E+02 0.15365676347E+02 0.81991201318E+01 0.55700712193E+01
 0.56012453850E+01 0.58040553651E+01 0.82519803932E+01 0.15884123795E+02 0.28130202195E+02
 0.41732734445E+02 0.54805915089E+02 0.66261192059E+02 0.76530816472E+02 0.85075731842E+02
 0.88648365616E+02 0.85075731842E+02 0.76530816472E+02 0.66261192059E+02 0.54805915089E+02
 0.41732734445E+02 0.28130202195E+02 0.15884123795E+02 0.82519803932E+01 0.58040553651E+01
 0.51689608656E+01 0.55700712193E+01 0.81991201318E+01 0.15365676347E+02 0.26639394215E+02
 0.39270535602E+02 0.51733985147E+02 0.62867635104E+02 0.72745474200E+02 0.80778907639E+02
 0.84096780527E+02 0.80778907639E+02 0.72745474200E+02 0.62867635104E+02 0.51733985147E+02
 0.39270535602E+02 0.26639394215E+02 0.15365676347E+02 0.81991201318E+01 0.55700712193E+01
 0.64680503907E+01 0.69524267214E+01 0.91335722954E+01 0.14372529138E+02 0.22877653681E+02
 0.33158017141E+02 0.44257952569E+02 0.54823395656E+02 0.64102307836E+02 0.71269248667E+02
 0.74133490690E+02 0.71269248667E+02 0.64102307836E+02 0.54823395656E+02 0.44257952569E+02
 0.33158017141E+02 0.22877653681E+02 0.14372529138E+02 0.91335722954E+01 0.69524267214E+01
 0.14098258139E+02 0.13801662414E+02 0.13511940812E+02 0.14746527299E+02 0.18967764099E+02
 0.26223379553E+02 0.35598318551E+02 0.45566507496E+02 0.54617906114E+02 0.61429213818E+02
 0.64074516370E+02 0.61429213818E+02 0.54617906114E+02 0.45566507496E+02 0.35598318551E+02
 0.26223379553E+02 0.18967764099E+02 0.14746527299E+02 0.13511940812E+02 0.13801662414E+02
 0.28587663509E+02 0.26935140677E+02 0.22936849618E+02 0.19051963855E+02 0.18011582391E+02
 0.21192943011E+02 0.27827762678E+02 0.36309583440E+02 0.44810100753E+02 0.51405893733E+02
 0.53964300445E+02 0.51405893733E+02 0.44810100753E+02 0.36309583440E+02 0.27827762678E+02
 0.21192943011E+02 0.18011582391E+02 0.19051963855E+02 0.22936849618E+02 0.26935140677E+02
 0.44294952989E+02 0.41880162959E+02 0.35776298243E+02 0.28306223031E+02 0.22237151981E+02
 0.19887783573E+02 0.21926474277E+02 0.27205849445E+02 0.33808553226E+02 0.39370534091E+02
 0.41570129574E+02 0.39370534091E+02 0.33808553226E+02 0.27205849445E+02 0.21926474277E+02
 0.19887783573E+02 0.22237151981E+02 0.28306223031E+02 0.35776298243E+02 0.41880162959E+02
 0.61056786981E+02 0.57548149810E+02 0.49342310840E+02 0.40043030722E+02 0.30912684960E+02
 0.22935077919E+02 0.18693890536E+02 0.19052646362E+02 0.22469260271E+02 0.26157181144E+02
 0.27706019320E+02 0.26157181144E+02 0.22469260271E+02 0.19052646362E+02 0.18693890536E+02
 0.22935077919E+02 0.30912684960E+02 0.40043030722E+02 0.49342310840E+02 0.57548149810E+02
 0.86804310857E+02 0.80579266237E+02 0.66774435554E+02 0.52773568889E+02 0.40698747261E+02
 0.29152443014E+02 0.19009135778E+02 0.13534026607E+02 0.12907540914E+02 0.14579435480E+02
 0.15560736442E+02 0.14579435480E+02 0.12907540914E+02 0.13534026607E+02 0.19009135778E+02
 0.29152443014E+02 0.40698747261E+02 0.52773568889E+02 0.66774435554E+02 0.80579266237E+02
 0.12254268071E+03 0.11207626417E+03 0.89047960398E+02 0.66747569871E+02 0.49837685427E+02
 0.36138179917E+02 0.22226507554E+02 0.11900723051E+02 0.80448781394E+01 0.86696761842E+01
 0.95740309800E+01 0.86696761842E+01 0.80448781394E+01 0.11900723051E+02 0.22226507554E+02
 0.36138179917E+02 0.49837685427E+02 0.66747569871E+02 0.89047960398E+02 0.11207626417E+03
 0.15788086636E+03 0.14329319990E+03 0.11092367910E+03 0.79623773288E+02 0.57241479724E+02
 0.41549379831E+02 0.26005316883E+02 0.12787103669E+02 0.73947066378E+01 0.83064123069E+01
 0.96689912510E+01 0.83064123069E+01 0.73947066378E+01 0.12787103669E+02 0.26005316883E+02
 0.41549379831E+02 0.57241479724E+02 0.79623773288E+02 0.11092367910E+03 0.14329319990E+03
 0.11577859031E+03 0.10621480812E+03 0.85082858522E+02 0.64419831338E+02 0.48545206431E+02
 0.35628729625E+02 0.23421807897E+02 0.15992089716E+02 0.15048459581E+02 0.17630300265E+02
 0.19194328261E+02 0.17630300265E+02 0.15048459581E+02 0.15992089716E+02 0.23421807897E+02
 0.35628729625E+02 0.48545206431E+02 0.64419831338E+02 0.85082858522E+02 0.10621480812E+03
 0.10686528135E+03 0.98362155008E+02 0.79560860739E+02 0.61016843119E+02 0.46344797158E+02
 0.33815421061E+02 0.22089792270E+02 0.15179286896E+02 0.14295010399E+02 0.16569997256E+02
 0.17942393885E+02 0.16569997256E+02 0.14295010399E+02 0.15179286896E+02 0.22089792270E+02
 0.33815421061E+02 0.46344797158E+02 0.61016843119E+02 0.79560860739E+02 0.98362155008E+02
 0.86550465412E+02 0.80438108923E+02 0.66777464885E+02 0.52735511906E+02 0.40538940517E+02
 0.28952789974E+02 0.18921681957E+02 0.13698918266E+02 0.13346341872E+02 0.15204454607E+02
 0.16247867268E+02 0.15204454607E+02 0.13346341872E+02 0.13698918266E+02 0.18921681957E+02
 0.28952789974E+02 0.40538940517E+02 0.52735511906E+02 0.66777464885E+02 0.80438108923E+02
 0.65787767491E+02 0.61925120628E+02 0.52912661019E+02 0.42687644058E+02 0.32535183008E+02
 0.22712206113E+02 0.15911764175E+02 0.13645678095E+02 0.14846252598E+02 0.17036706528E+02
 0.18040705209E+02 0.17036706528E+02 0.14846252598E+02 0.13645678095E+02 0.15911764175E+02
 0.22712206113E+02 0.32535183008E+02 0.42687644058E+02 0.52912661019E+02 0.61925120628E+02
 0.49419838267E+02 0.46894496104E+02 0.40512204629E+02 0.32300310685E+02 0.23809833219E+02
 0.17464316895E+02 0.15083005093E+02 0.16586561972E+02 0.20175033071E+02 0.23500258929E+02
 0.24813971891E+02 0.23500258929E+02 0.20175033071E+02 0.16586561972E+02 0.15083005093E+02
 0.17464316895E+02 0.23809833219E+02 0.32300310685E+02 0.40512204629E+02 0.46894496104E+02
 0.35645524445E+02 0.33750626121E+02 0.28715047587E+02 0.22367749855E+02 0.17199679940E+02
 0.15332341278E+02 0.17435157910E+02 0.22397389141E+02 0.28121864339E+02 0.32607150193E+02
 0.34305301111E+02 0.32607150193E+02 0.28121864339E+02 0.22397389141E+02 0.17435157910E+02
 0.15332341278E+02 0.17199679940E+02 0.22367749855E+02 0.28715047587E+02 0.33750626121E+02
 0.21620021158E+02 0.20661817803E+02 0.18223373216E+02 0.15623927337E+02 0.14756547720E+02
 0.17094116038E+02 0.22574130632E+02 0.29801146807E+02 0.37023011082E+02 0.42426843400E+02
 0.44455734562E+02 0.42426843400E+02 0.37023011082E+02 0.29801146807E+02 0.22574130632E+02
 0.17094116038E+02 0.14756547720E+02 0.15623927337E+02 0.18223373216E+02 0.20661817803E+02
 0.11458648701E+02 0.11474778314E+02 0.11723527913E+02 0.12904752391E+02 0.16073400924E+02
 0.21766272262E+02 0.29412478500E+02 0.38009433242E+02 0.46046789586E+02 0.51989542765E+02
 0.54238661982E+02 0.51989542765E+02 0.46046789586E+02 0.38009433242E+02 0.29412478500E+02
 0.21766272262E+02 0.16073400924E+02 0.12904752391E+02 0.11723527913E+02 0.11474778314E+02
 0.74677894120E+01 0.77506065748E+01 0.91064449743E+01 0.12633112892E+02 0.18959960755E+02
 0.27319298179E+02 0.36748470448E+02 0.46331821950E+02 0.54997107899E+02 0.61521704515E+02
 0.64050447185E+02 0.61521704515E+02 0.54997107899E+02 0.46331821950E+02 0.36748470448E+02
 0.27319298179E+02 0.18959960755E+02 0.12633112892E+02 0.91064449743E+01 0.77506065748E+01
 0.76259154191E+01 0.75683078798E+01 0.85920422324E+01 0.12954276915E+02 0.21315898946E+02
 0.31745986954E+02 0.42748016163E+02 0.53286605361E+02 0.62732073601E+02 0.70045390592E+02
 0.72946118817E+02 0.70045390592E+02 0.62732073601E+02 0.53286605361E+02 0.42748016163E+02
 0.31745986954E+02 0.21315898946E+02 0.12954276915E+02 0.85920422324E+01 0.75683078798E+01
 0.82631462209E+01 0.79588305478E+01 0.86051869517E+01 0.13089581314E+02 0.22163945591E+02
 0.33438094560E+02 0.45131362134E+02 0.56131424203E+02 0.65989825457E+02 0.73714360103E+02
 0.76804259126E+02 0.73714360103E+02 0.65989825457E+02 0.56131424203E+02 0.45131362134E+02
 0.33438094560E+02 0.22163945591E+02 0.13089581314E+02 0.86051869517E+01 0.79588305478E+01
 0.76259154191E+01 0.75683078798E+01 0.85920422324E+01 0.12954276915E+02 0.21315898946E+02
 0.31745986954E+02 0.42748016163E+02 0.53286605361E+02 0.62732073601E+02 0.70045390592E+02
 0.72946118817E+02 0.70045390592E+02 0.62732073601E+02 0.53286605361E+02 0.42748016163E+02
 0.31745986954E+02 0.21315898946E+02 0.12954276915E+02 0.85920422324E+01 0.75683078798E+01
 0.74677894120E+01 0.77506065748E+01 0.91064449743E+01 0.12633112892E+02 0.18959960755E+02
 0.27319298179E+02 0.36748470448E+02 0.46331821950E+02 0.54997107899E+02 0.61521704515E+02
 0.64050447185E+02 0.61521704515E+02 0.54997107899E+02 0.46331821950E+02 0.36748470448E+02
 0.27319298179E+02 0.18959960755E+02 0.12633112892E+02 0.91064449743E+01 0.77506065748E+01
 0.11458648701E+02 0.11474778314E+02 0.11723527913E+02 0.12904752391E+02 0.16073400924E+02
 0.21766272262E+02 0.29412478500E+02 0.38009433242E+02 0.46046789586E+02 0.51989542765E+02
 0.54238661982E+02 0.51989542765E+02 0.46046789586E+02 0.38009433242E+02 0.29412478500E+02
 0.21766272262E+02 0.16073400924E+02 0.12904752391E+02 0.11723527913E+02 0.11474778314E+02
 0.21620021158E+02 0.20661817803E+02 0.18223373216E+02 0.15623927337E+02 0.14756547720E+02
 0.17094116038E+02 0.22574130632E+02 0.29801146807E+02 0.37023011082E+02 0.42426843400E+02
 0.44455734562E+02 0.42426843400E+02 0.37023011082E+02 0.29801146807E+02 0.22574130632E+02
 0.17094116038E+02 0.14756547720E+02 0.15623927337E+02 0.18223373216E+02 0.20661817803E+02
 0.35645524445E+02 0.33750626121E+02 0.28715047587E+02 0.22367749855E+02 0.17199679940E+02
 0.15332341278E+02 0.17435157910E+02 0.22397389141E+02 0.28121864339E+02 0.32607150193E+02
 0.34305301111E+02 0.32607150193E+02 0.28121864339E+02 0.22397389141E+02 0.17435157910E+02
 0.15332341278E+02 0.17199679940E+02 0.22367749855E+02 0.28715047587E+02 0.33750626121E+02
 0.49419838267E+02 0.46894496104E+02 0.40512204629E+02 0.32300310685E+02 0.23809833219E+02
 0.17464316895E+02 0.15083005093E+02 0.16586561972E+02 0.20175033071E+02 0.23500258929E+02
 0.24813971891E+02 0.23500258929E+02 0.20175033071E+02 0.16586561972E+02 0.15083005093E+02
 0.17464316895E+02 0.23809833219E+02 0.32300310685E+02 0.40512204629E+02 0.46894496104E+02
 0.65787767491E+02 0.61925120628E+02 0.52912661019E+02 0.42687644058E+02 0.32535183008E+02
 0.22712206113E+02 0.15911764175E+02 0.13645678095E+02 0.14846252598E+02 0.17036706528E+02
 0.18040705209E+02 0.17036706528E+02 0.14846252598E+02 0.13645678095E+02 0.15911764175E+02
 0.22712206113E+02 0.32535183008E+02 0.42687644058E+02 0.52912661019E+02 0.61925120628E+02
 0.86550465412E+02 0.80438108923E+02 0.66777464885E+02 0.52735511906E+02 0.40538940517E+02
 0.28952789974E+02 0.18921681957E+02 0.13698918266E+02 0.13346341872E+02 0.15204454607E+02
 0.16247867268E+02 0.15204454607E+02 0.13346341872E+02 0.13698918266E+02 0.18921681957E+02
 0.28952789974E+02 0.40538940517E+02 0.52735511906E+02 0.66777464885E+02 0.80438108923E+02
 0.10686528135E+03 0.98362155008E+02 0.79560860739E+02 0.61016843119E+02 0.46344797158E+02
 0.33815421061E+02 0.22089792270E+02 0.15179286896E+02 0.14295010399E+02 0.16569997256E+02
 0.17942393885E+02 0.16569997256E+02 0.14295010399E+02 0.15179286896E+02 0.22089792270E+02
 0.33815421061E+02 0.46344797158E+02 0.61016843119E+02 0.79560860739E+02 0.98362155008E+02
 0.75730138011E+02 0.70917527759E+02 0.60039778131E+02 0.48596024810E+02 0.38402740650E+02
 0.29213154125E+02 0.23872889408E+02 0.24581006081E+02 0.29732107395E+02 0.35348468799E+02
 0.37724703219E+02 0.35348468799E+02 0.29732107395E+02 0.24581006081E+02 0.23872889408E+02
 0.29213154125E+02 0.38402740650E+02 0.48596024810E+02 0.60039778131E+02 0.70917527759E+02
 0.71077656748E+02 0.66702992521E+02 0.56715934212E+02 0.45981036696E+02 0.36161289493E+02