   4   4   0   0
  0.1444527E+02  0.3866000E-09  0.3866000E-09  0.3866000E-09  0.5000000E-15
  1.000000000000000E-004
  CAR 
 unknown system                          
     25.72749277     -8.33941218  301     11.00075821      1.00000000
     -8.339  0.0000E+00  0.0000E+00
     -8.226  0.0000E+00  0.0000E+00
     -8.112  0.0000E+00  0.0000E+00
     -7.999 -0.8671E-30 -0.9847E-31
     -7.885 -0.7297E-26 -0.8287E-27
     -7.772 -0.3215E-22 -0.3652E-23
     -7.658 -0.7417E-19 -0.8426E-20
     -7.545 -0.8957E-16 -0.1018E-16
     -7.431 -0.5477E-13 -0.6230E-14
     -7.317 -0.1797E-10 -0.2046E-11
     -7.204 -0.3070E-08 -0.3507E-09
     -7.090 -0.2720E-06 -0.3123E-07
     -6.977 -0.1238E-04 -0.1437E-05
     -6.863 -0.2835E-03 -0.3363E-04
     -6.750 -0.3120E-02 -0.3880E-03
     -6.636 -0.1422E-01 -0.2003E-02
     -6.523 -0.5947E-02 -0.2678E-02
     -6.409  0.1324E+00  0.1236E-01
     -6.295  0.3504E+00  0.5214E-01
     -6.182  0.3203E+00  0.8852E-01
     -6.068  0.9373E-01  0.9916E-01
     -5.955 -0.1387E-01  0.9759E-01
     -5.841 -0.1173E-01  0.9626E-01
     -5.728 -0.2096E-02  0.9602E-01
     -5.614 -0.1608E-03  0.9600E-01
     -5.501 -0.5944E-05  0.9600E-01
     -5.387 -0.1101E-06  0.9600E-01
     -5.273 -0.1041E-08  0.9600E-01
     -5.160 -0.6957E-10  0.9600E-01
     -5.046 -0.8771E-08  0.9600E-01
     -4.933 -0.6081E-06  0.9600E-01
     -4.819 -0.2116E-04  0.9600E-01
     -4.706 -0.3579E-03  0.9596E-01
     -4.592 -0.2715E-02  0.9565E-01
     -4.478 -0.6661E-02  0.9489E-01
     -4.365  0.1320E-01  0.9639E-01
     -4.251  0.7966E-01  0.1054E+00
     -4.138  0.1209E+00  0.1192E+00
     -4.024  0.1448E+00  0.1356E+00
     -3.911  0.2343E+00  0.1622E+00
     -3.797  0.2802E+00  0.1940E+00
     -3.684  0.2967E+00  0.2277E+00
     -3.570  0.3357E+00  0.2658E+00
     -3.456  0.3456E+00  0.3051E+00
     -3.343  0.2730E+00  0.3361E+00
     -3.229  0.1307E+00  0.3509E+00
     -3.116  0.1397E-01  0.3525E+00
     -3.002 -0.2389E-01  0.3498E+00
     -2.889  0.1532E-01  0.3515E+00
     -2.775  0.1940E+00  0.3736E+00
     -2.662  0.6376E+00  0.4460E+00
     -2.548  0.1077E+01  0.5683E+00
     -2.434  0.1225E+01  0.7074E+00
     -2.321  0.1623E+01  0.8917E+00
     -2.207  0.2107E+01  0.1131E+01
     -2.094  0.1959E+01  0.1353E+01
     -1.980  0.1402E+01  0.1513E+01
     -1.867  0.7992E+00  0.1603E+01
     -1.753  0.3648E+00  0.1645E+01
     -1.640  0.1668E+00  0.1664E+01
     -1.526  0.3301E+00  0.1701E+01
     -1.412  0.7856E+00  0.1790E+01
     -1.299  0.9179E+00  0.1895E+01
     -1.185  0.5404E+00  0.1956E+01
     -1.072  0.1286E+00  0.1971E+01
     -0.958  0.2895E+00  0.2004E+01
     -0.845  0.1269E+01  0.2148E+01
     -0.731  0.2090E+01  0.2385E+01
     -0.618  0.1940E+01  0.2605E+01
     -0.504  0.1359E+01  0.2760E+01
     -0.390  0.1042E+01  0.2878E+01
     -0.277  0.1177E+01  0.3012E+01
     -0.163  0.1263E+01  0.3155E+01
     -0.050  0.1350E+01  0.3308E+01
      0.064  0.2258E+01  0.3565E+01
      0.177  0.3160E+01  0.3924E+01
      0.291  0.2708E+01  0.4231E+01
      0.404  0.1686E+01  0.4423E+01
      0.518  0.1149E+01  0.4553E+01
      0.632  0.1026E+01  0.4670E+01
      0.745  0.1460E+01  0.4835E+01
      0.859  0.2290E+01  0.5096E+01
      0.972  0.2812E+01  0.5415E+01
      1.086  0.3636E+01  0.5828E+01
      1.199  0.4471E+01  0.6336E+01
      1.313  0.3987E+01  0.6788E+01
      1.426  0.3047E+01  0.7134E+01
      1.540  0.2704E+01  0.7441E+01
      1.654  0.2965E+01  0.7778E+01
      1.767  0.3300E+01  0.8153E+01
      1.881  0.2816E+01  0.8473E+01
      1.994  0.2226E+01  0.8725E+01
      2.108  0.2378E+01  0.8995E+01
      2.221  0.2082E+01  0.9232E+01
      2.335  0.1247E+01  0.9373E+01
      2.448  0.1035E+01  0.9491E+01
      2.562  0.1354E+01  0.9645E+01
      2.676  0.1664E+01  0.9834E+01
      2.789  0.1839E+01  0.1004E+02
      2.903  0.2134E+01  0.1028E+02
      3.016  0.2124E+01  0.1053E+02
      3.130  0.1530E+01  0.1070E+02
      3.243  0.1969E+01  0.1092E+02
      3.357  0.3898E+01  0.1137E+02
      3.470  0.4627E+01  0.1189E+02
      3.584  0.3165E+01  0.1225E+02
      3.698  0.1714E+01  0.1245E+02
      3.811  0.1696E+01  0.1264E+02
      3.925  0.2661E+01  0.1294E+02
      4.038  0.3678E+01  0.1336E+02
      4.152  0.4892E+01  0.1391E+02
      4.265  0.5517E+01  0.1454E+02
      4.379  0.4403E+01  0.1504E+02
      4.492  0.3606E+01  0.1545E+02
      4.606  0.4163E+01  0.1592E+02
      4.720  0.4197E+01  0.1640E+02
      4.833  0.3768E+01  0.1683E+02
      4.947  0.4376E+01  0.1732E+02
      5.060  0.5360E+01  0.1793E+02
      5.174  0.4756E+01  0.1847E+02
      5.287  0.3426E+01  0.1886E+02
      5.401  0.3729E+01  0.1928E+02
      5.514  0.4667E+01  0.1981E+02
      5.628  0.4453E+01  0.2032E+02
      5.742  0.4360E+01  0.2082E+02
      5.855  0.4763E+01  0.2136E+02
      5.969  0.4483E+01  0.2187E+02
      6.082  0.4194E+01  0.2234E+02
      6.196  0.4673E+01  0.2287E+02
      6.309  0.5067E+01  0.2345E+02
      6.423  0.5149E+01  0.2403E+02
      6.536  0.5019E+01  0.2460E+02
      6.650  0.4437E+01  0.2511E+02
      6.764  0.3674E+01  0.2552E+02
      6.877  0.2693E+01  0.2583E+02
      6.991  0.1959E+01  0.2605E+02
      7.104  0.2191E+01  0.2630E+02
      7.218  0.2787E+01  0.2662E+02
      7.331  0.3088E+01  0.2697E+02
      7.445  0.3322E+01  0.2734E+02
      7.558  0.3787E+01  0.2777E+02
      7.672  0.4225E+01  0.2825E+02
      7.786  0.4449E+01  0.2876E+02
      7.899  0.4086E+01  0.2922E+02
      8.013  0.3564E+01  0.2963E+02
      8.126  0.3677E+01  0.3005E+02
      8.240  0.4030E+01  0.3050E+02
      8.353  0.4440E+01  0.3101E+02
      8.467  0.4687E+01  0.3154E+02
      8.580  0.4405E+01  0.3204E+02
      8.694  0.3498E+01  0.3244E+02
      8.808  0.3059E+01  0.3279E+02
      8.921  0.3894E+01  0.3323E+02
      9.035  0.4052E+01  0.3369E+02
      9.148  0.2754E+01  0.3400E+02
      9.262  0.2010E+01  0.3423E+02
      9.375  0.2198E+01  0.3448E+02
      9.489  0.2530E+01  0.3477E+02
      9.602  0.3116E+01  0.3512E+02
      9.716  0.3785E+01  0.3555E+02
      9.830  0.3802E+01  0.3598E+02
      9.943  0.3682E+01  0.3640E+02
     10.057  0.3803E+01  0.3683E+02
     10.170  0.3347E+01  0.3721E+02
     10.284  0.2883E+01  0.3754E+02
     10.397  0.3062E+01  0.3789E+02
     10.511  0.3040E+01  0.3823E+02
     10.624  0.3057E+01  0.3858E+02
     10.738  0.3454E+01  0.3897E+02
     10.852  0.3572E+01  0.3938E+02
     10.965  0.4098E+01  0.3984E+02
     11.079  0.4291E+01  0.4033E+02
     11.192  0.3295E+01  0.4070E+02
     11.306  0.2523E+01  0.4099E+02
     11.419  0.2179E+01  0.4124E+02
     11.533  0.2492E+01  0.4152E+02
     11.647  0.3520E+01  0.4192E+02
     11.760  0.4355E+01  0.4241E+02
     11.874  0.3701E+01  0.4283E+02
     11.987  0.1694E+01  0.4303E+02
     12.101  0.7581E+00  0.4311E+02
     12.214  0.1261E+01  0.4326E+02
     12.328  0.1470E+01  0.4342E+02
     12.441  0.1600E+01  0.4360E+02
     12.555  0.2239E+01  0.4386E+02
     12.669  0.2252E+01  0.4411E+02
     12.782  0.2031E+01  0.4435E+02
     12.896  0.2916E+01  0.4468E+02
     13.009  0.4033E+01  0.4513E+02
     13.123  0.3888E+01  0.4558E+02
     13.236  0.2889E+01  0.4590E+02
     13.350  0.2026E+01  0.4613E+02
     13.463  0.1635E+01  0.4632E+02
     13.577  0.1554E+01  0.4650E+02
     13.691  0.1763E+01  0.4670E+02
     13.804  0.2096E+01  0.4693E+02
     13.918  0.1967E+01  0.4716E+02
     14.031  0.2088E+01  0.4739E+02
     14.145  0.2628E+01  0.4769E+02
     14.258  0.2556E+01  0.4798E+02
     14.372  0.1805E+01  0.4819E+02
     14.485  0.1115E+01  0.4832E+02
     14.599  0.1212E+01  0.4845E+02
     14.713  0.1835E+01  0.4866E+02
     14.826  0.1899E+01  0.4888E+02
     14.940  0.1147E+01  0.4901E+02
     15.053  0.5722E+00  0.4907E+02
     15.167  0.7031E+00  0.4915E+02
     15.280  0.8941E+00  0.4925E+02
     15.394  0.9221E+00  0.4936E+02
     15.507  0.8119E+00  0.4945E+02
     15.621  0.5486E+00  0.4951E+02
     15.735  0.7147E+00  0.4959E+02
     15.848  0.1147E+01  0.4972E+02
     15.962  0.1064E+01  0.4984E+02
     16.075  0.6783E+00  0.4992E+02
     16.189  0.5928E+00  0.4999E+02
     16.302  0.1033E+01  0.5011E+02
     16.416  0.1883E+01  0.5032E+02
     16.529  0.2499E+01  0.5060E+02
     16.643  0.2337E+01  0.5087E+02
     16.757  0.2094E+01  0.5111E+02
     16.870  0.1990E+01  0.5133E+02
     16.984  0.1433E+01  0.5150E+02
     17.097  0.7840E+00  0.5159E+02
     17.211  0.4974E+00  0.5164E+02
     17.324  0.9420E+00  0.5175E+02
     17.438  0.2026E+01  0.5198E+02
     17.551  0.2445E+01  0.5226E+02
     17.665  0.2071E+01  0.5249E+02
     17.779  0.1799E+01  0.5270E+02
     17.892  0.1598E+01  0.5288E+02
     18.006  0.1306E+01  0.5303E+02
     18.119  0.8304E+00  0.5312E+02
     18.233  0.2220E+00  0.5315E+02
     18.346 -0.6354E-01  0.5314E+02
     18.460 -0.8963E-01  0.5313E+02
     18.573  0.1478E-01  0.5313E+02
     18.687  0.5578E+00  0.5319E+02
     18.801  0.1763E+01  0.5339E+02
     18.914  0.2840E+01  0.5372E+02
     19.028  0.2702E+01  0.5402E+02
     19.141  0.2344E+01  0.5429E+02
     19.255  0.3027E+01  0.5463E+02
     19.368  0.3285E+01  0.5501E+02
     19.482  0.2450E+01  0.5528E+02
     19.595  0.1994E+01  0.5551E+02
     19.709  0.1698E+01  0.5570E+02
     19.823  0.1028E+01  0.5582E+02
     19.936  0.8629E+00  0.5592E+02
     20.050  0.1315E+01  0.5607E+02
     20.163  0.1578E+01  0.5625E+02
     20.277  0.1280E+01  0.5639E+02
     20.390  0.1304E+01  0.5654E+02
     20.504  0.2625E+01  0.5684E+02
     20.617  0.4152E+01  0.5731E+02
     20.731  0.3812E+01  0.5774E+02
     20.845  0.1807E+01  0.5795E+02
     20.958  0.5121E+00  0.5800E+02
     21.072  0.8315E+00  0.5810E+02
     21.185  0.1549E+01  0.5828E+02
     21.299  0.1550E+01  0.5845E+02
     21.412  0.9610E+00  0.5856E+02
     21.526  0.7288E+00  0.5864E+02
     21.639  0.1088E+01  0.5877E+02
     21.753  0.1618E+01  0.5895E+02
     21.867  0.1584E+01  0.5913E+02
     21.980  0.7971E+00  0.5922E+02
     22.094  0.1492E+00  0.5924E+02
     22.207  0.9931E-01  0.5925E+02
     22.321  0.3427E+00  0.5929E+02
     22.434  0.3667E+00  0.5933E+02
     22.548  0.1803E+00  0.5935E+02
     22.661  0.5186E+00  0.5941E+02
     22.775  0.1341E+01  0.5956E+02
     22.889  0.1288E+01  0.5971E+02
     23.002  0.4205E+00  0.5976E+02
     23.116 -0.4241E-01  0.5975E+02
     23.229 -0.6814E-01  0.5974E+02
     23.343 -0.3674E-01  0.5974E+02
     23.456  0.1245E+00  0.5975E+02
     23.570  0.5136E+00  0.5981E+02
     23.683  0.7960E+00  0.5990E+02
     23.797  0.6545E+00  0.5998E+02
     23.911  0.2502E+00  0.6000E+02
     24.024 -0.6796E-03  0.6000E+02
     24.138 -0.2741E-01  0.6000E+02
     24.251 -0.7088E-02  0.6000E+02
     24.365 -0.7277E-03  0.6000E+02
     24.478 -0.3501E-04  0.6000E+02
     24.592 -0.8316E-06  0.6000E+02
     24.705 -0.9983E-08  0.6000E+02
     24.819 -0.6131E-10  0.6000E+02
     24.933 -0.1940E-12  0.6000E+02
     25.046 -0.2503E-15  0.6000E+02
     25.160  0.0000E+00  0.6000E+02
     25.273  0.0000E+00  0.6000E+02
     25.387  0.0000E+00  0.6000E+02
     25.500  0.0000E+00  0.6000E+02
     25.614  0.0000E+00  0.6000E+02
     25.727  0.0000E+00  0.6000E+02
