    4    4    1    1
  0.1444527E+02  0.3866000E-09  0.3866000E-09  0.3866000E-09  0.5000000E-15
  1.000000000000000E-004
  CAR 
 unknown system                          
     40     27     30
 
  0.0000000E+00  0.0000000E+00  0.0000000E+00  0.8000000E-02
    1       -2.127262   1.000000
    2       -1.807098   1.000000
    3       -0.584211   1.000000
    4        0.100837   1.000000
    5        0.141891   1.000000
    6        0.143582   1.000000
    7        1.802392   1.000000
    8        4.608387   1.000000
    9        5.142805   1.000000
   10        9.085029   1.000000
   11        9.789784   1.000000
   12        9.803916   1.000000
   13       10.304324   1.000005
   14       10.341291   1.000016
   15       10.378041   1.000049
   16       10.909186   0.846083
   17       11.327098  -0.021607
   18       12.130343  -0.000000
   19       12.540485  -0.000000
   20       12.781164  -0.000000
   21       13.563664  -0.000000
   22       13.601941  -0.000000
   23       13.677265  -0.000000
   24       14.583882  -0.000000
   25       15.587435  -0.000000
   26       18.624291   0.000000
   27       18.836998   0.000000
   28       18.865608   0.000000
   29       19.179921   0.000000
   30       20.145818   0.000000
 
  0.2000000E+00  0.0000000E+00  0.0000000E+00  0.1600000E-01
    1       -6.286445   1.000000
    2       -1.206441   1.000000
    3       -1.203699   1.000000
    4       -0.126883   1.000000
    5        0.640536   1.000000
    6        0.858439   1.000000
    7        2.960510   1.000000
    8        4.048658   1.000000
    9        4.361094   1.000000
   10        5.913531   1.000000
   11        6.817312   1.000000
   12        6.880533   1.000000
   13        8.079681   1.000000
   14        8.561800   1.000000
   15        8.711760   1.000000
   16        8.948647   1.000000
   17        9.799935   1.000000
   18       10.001349   1.000000
   19       10.458601   1.000429
   20       10.706369   1.028883
   21       10.939574   0.745949
   22       12.996651  -0.000000
   23       13.107744  -0.000000
   24       13.281595  -0.000000
   25       13.770910  -0.000000
   26       17.651676   0.000000
   27       17.827827   0.000000
   28       19.209291   0.000000
   29       19.281683   0.000000
   30       21.204389   0.000000
 
  0.0000000E+00  0.2000000E+00  0.0000000E+00  0.1600000E-01
    1       -6.339412   1.000000
    2       -0.453851   1.000000
    3       -0.344277   1.000000
    4       -0.125937   1.000000
    5        0.247692   1.000000
    6        0.607470   1.000000
    7        2.403897   1.000000
    8        3.917407   1.000000
    9        5.263192   1.000000
   10        6.187932   1.000000
   11        6.644186   1.000000
   12        6.890842   1.000000
   13        7.598560   1.000000
   14        7.946115   1.000000
   15        8.739304   1.000000
   16        9.025214   1.000000
   17       10.001010   1.000000
   18       10.321577   1.000009
   19       10.498949   1.001112
   20       10.681662   1.023275
   21       10.990853   0.541858
   22       11.391594  -0.009244
   23       13.330204  -0.000000
   24       13.356346  -0.000000
   25       13.580886  -0.000000
   26       17.381490   0.000000
   27       18.680310   0.000000
   28       19.191674   0.000000
   29       19.191805   0.000000
   30       21.044065   0.000000
 
  0.0000000E+00  0.0000000E+00  0.2000000E+00  0.1600000E-01
    1       -6.292091   1.000000
    2       -0.809466   1.000000
    3       -0.725205   1.000000
    4       -0.130876   1.000000
    5        0.262890   1.000000
    6        0.841312   1.000000
    7        2.594646   1.000000
    8        4.058734   1.000000
    9        4.843427   1.000000
   10        6.125637   1.000000
   11        6.605483   1.000000
   12        6.907974   1.000000
   13        7.621557   1.000000
   14        8.526112   1.000000
   15        8.899012   1.000000
   16        8.968574   1.000000
   17        9.702649   1.000000
   18        9.959849   1.000000
   19       10.236464   1.000000
   20       10.439582   1.000265
   21       10.915841   0.825913
   22       12.611864  -0.000000
   23       13.050956  -0.000000
   24       13.229245  -0.000000
   25       13.531541  -0.000000
   26       17.441213   0.000000
   27       18.921163   0.000000
   28       19.227010   0.000000
   29       19.305991   0.000000
   30       20.941268   0.000000
 
  0.4000000E+00  0.0000000E+00  0.0000000E+00  0.1600000E-01
    1       -4.212431   1.000000
    2       -2.818478   1.000000
    3       -1.412595   1.000000
    4       -1.391259   1.000000
    5       -0.136127   1.000000
    6        1.165192   1.000000
    7        2.903078   1.000000
    8        3.405893   1.000000
    9        4.191792   1.000000
   10        4.373280   1.000000
   11        4.453992   1.000000
   12        5.111530   1.000000
   13        6.726086   1.000000
   14        6.899426   1.000000
   15        7.222596   1.000000
   16        7.958290   1.000000
   17        8.488606   1.000000
   18        8.751111   1.000000
   19        9.488980   1.000000
   20        9.982553   1.000000
   21       10.334505   1.000013
   22       13.163859  -0.000000
   23       13.404647  -0.000000
   24       15.373145  -0.000000
   25       15.552296  -0.000000
   26       17.375831   0.000000
   27       17.580189   0.000000
   28       17.976526   0.000000
   29       19.565521   0.000000
   30       20.076981   0.000000
 
  0.0000000E+00  0.4000000E+00  0.0000000E+00  0.1600000E-01
    1       -2.625438   1.000000
    2       -2.275378   1.000000
    3       -1.510986   1.000000
    4       -1.402872   1.000000
    5        0.824067   1.000000
    6        1.106692   1.000000
    7        2.509777   1.000000
    8        2.990237   1.000000
    9        3.983344   1.000000
   10        4.822418   1.000000
   11        4.989019   1.000000
   12        5.838306   1.000000
   13        6.357795   1.000000
   14        6.481919   1.000000
   15        6.534219   1.000000
   16        7.551593   1.000000
   17        8.184662   1.000000
   18        8.230342   1.000000
   19        9.235610   1.000000
   20        9.999594   1.000000
   21       11.045339   0.316461
   22       11.409557  -0.006917
   23       12.793116  -0.000000
   24       15.137995  -0.000000
   25       15.414913  -0.000000
   26       17.586346   0.000000
   27       17.787188   0.000000
   28       18.013079   0.000000
   29       19.694157   0.000000
   30       21.019660   0.000000
 
  0.0000000E+00  0.0000000E+00  0.4000000E+00  0.1600000E-01
    1       -3.341921   1.000000
    2       -2.683211   1.000000
    3       -1.512202   1.000000
    4       -1.382406   1.000000
    5        0.401274   1.000000
    6        1.057132   1.000000
    7        2.939911   1.000000
    8        3.141652   1.000000
    9        4.019295   1.000000
   10        4.542453   1.000000
   11        4.774584   1.000000
   12        5.652987   1.000000
   13        6.240436   1.000000
   14        6.757346   1.000000
   15        7.300299   1.000000
   16        7.495977   1.000000
   17        8.246307   1.000000
   18        8.326561   1.000000
   19        9.054246   1.000000
   20        9.898570   1.000000
   21        9.903093   1.000000
   22       12.237429  -0.000000
   23       12.718727  -0.000000
   24       15.268526  -0.000000
   25       15.720650  -0.000000
   26       17.410244   0.000000
   27       17.831507   0.000000
   28       18.712349   0.000000
   29       19.932229   0.000000
   30       20.540871   0.000000
 
  0.2000000E+00  0.2000000E+00  0.0000000E+00  0.3200000E-01
    1       -3.694289   1.000000
    2       -1.800835   1.000000
    3        0.230104   1.000000
    4        0.804550   1.000000
    5        1.129578   1.000000
    6        1.362311   1.000000
    7        3.455598   1.000000
    8        3.631711   1.000000
    9        4.216071   1.000000
   10        4.641155   1.000000
   11        5.786700   1.000000
   12        7.253595   1.000000
   13        8.087136   1.000000
   14        8.153104   1.000000
   15        8.587898   1.000000
   16        8.614332   1.000000
   17        9.753067   1.000000
   18       10.054385   1.000000
   19       10.580929   1.005728
   20       11.246835  -0.035453
   21       11.446694  -0.003553
   22       11.735923  -0.000001
   23       12.532930  -0.000000
   24       14.335703  -0.000000
   25       14.382390  -0.000000
   26       17.363642   0.000000
   27       18.024032   0.000000
   28       19.875250   0.000000
   29       20.028874   0.000000
   30       20.601307   0.000000
 
  0.0000000E+00  0.2000000E+00  0.2000000E+00  0.3200000E-01
    1       -3.924846   1.000000
    2       -1.350950   1.000000
    3        0.114361   1.000000
    4        0.497487   1.000000
    5        1.381352   1.000000
    6        1.407104   1.000000
    7        3.291488   1.000000
    8        3.386489   1.000000
    9        4.165889   1.000000
   10        4.678188   1.000000
   11        5.946620   1.000000
   12        7.557928   1.000000
   13        7.906933   1.000000
   14        8.016977   1.000000
   15        8.948272   1.000000
   16        9.023619   1.000000
   17        9.633963   1.000000
   18        9.657233   1.000000
   19       10.256611   1.000001
   20       11.153431   0.019928
   21       11.235903  -0.035062
   22       11.788619  -0.000000
   23       13.148581  -0.000000
   24       14.061131  -0.000000
   25       14.209064  -0.000000
   26       17.501614   0.000000
   27       17.546837   0.000000
   28       20.070349   0.000000
   29       20.368134   0.000000
   30       20.759035   0.000000
 
  0.2000000E+00  0.0000000E+00  0.2000000E+00  0.3200000E-01
    1       -3.500980   1.000000
    2       -2.094550   1.000000
    3        0.256290   1.000000
    4        0.934009   1.000000
    5        1.099057   1.000000
    6        1.328062   1.000000
    7        3.549192   1.000000
    8        3.727307   1.000000
    9        4.050030   1.000000
   10        4.734490   1.000000
   11        5.817410   1.000000
   12        7.375347   1.000000
   13        7.774562   1.000000
   14        7.904926   1.000000
   15        8.146695   1.000000
   16        8.530699   1.000000
   17       10.359253   1.000028
   18       10.495942   1.001039
   19       10.841052   0.989671
   20       10.991738   0.538124
   21       11.591537  -0.000121
   22       11.875595  -0.000000
   23       12.106923  -0.000000
   24       14.109041  -0.000000
   25       14.385855  -0.000000
   26       17.677220   0.000000
   27       17.822732   0.000000
   28       20.058082   0.000000
   29       20.139097   0.000000
   30       20.662165   0.000000
 
  0.4000000E+00  0.2000000E+00  0.0000000E+00  0.3200000E-01
    1       -2.342398   1.000000
    2       -0.860849   1.000000
    3        1.148576   1.000000
    4        1.827298   1.000000
    5        2.107382   1.000000
    6        2.764944   1.000000
    7        3.410212   1.000000
    8        4.148484   1.000000
    9        4.712481   1.000000
   10        5.462218   1.000000
   11        5.508402   1.000000
   12        5.877622   1.000000
   13        6.682628   1.000000
   14        7.360816   1.000000
   15        8.048323   1.000000
   16        8.238211   1.000000
   17        9.024918   1.000000
   18        9.718606   1.000000
   19       10.128045   1.000000
   20       10.574022   1.005069
   21       11.714755  -0.000003
   22       13.503350  -0.000000
   23       13.516738  -0.000000
   24       13.998028  -0.000000
   25       16.363667  -0.000000
   26       16.994871   0.000000
   27       18.920767   0.000000
   28       19.213714   0.000000
   29       20.676091   0.000000
   30       21.758649   0.000000
 
  0.0000000E+00  0.4000000E+00  0.2000000E+00  0.3200000E-01
    1       -2.518074   1.000000
    2        0.845177   1.000000
    3        1.035475   1.000000
    4        1.594095   1.000000
    5        2.359641   1.000000
    6        3.390378   1.000000
    7        4.002957   1.000000
    8        4.162066   1.000000
    9        4.602152   1.000000
   10        5.268993   1.000000
   11        5.819773   1.000000
   12        6.215182   1.000000
   13        6.533585   1.000000
   14        7.189339   1.000000
   15        7.727782   1.000000
   16        8.405316   1.000000
   17        8.432229   1.000000
   18        8.964436   1.000000
   19        9.204463   1.000000
   20       10.890693   0.896476
   21       11.591687  -0.000120
   22       12.905686  -0.000000
   23       12.995439  -0.000000
   24       15.064195  -0.000000
   25       16.565291   0.000000
   26       16.625083   0.000000
   27       18.724315   0.000000
   28       18.833595   0.000000
   29       20.641915   0.000000
   30       22.276853   0.000000
 
  0.2000000E+00  0.0000000E+00  0.4000000E+00  0.3200000E-01
    1       -2.004264   1.000000
    2        0.140931   1.000000
    3        1.108253   1.000000
    4        1.700925   1.000000
    5        2.429305   1.000000
    6        3.048386   1.000000
    7        3.758545   1.000000
    8        4.074572   1.000000
    9        4.322048   1.000000
   10        5.489795   1.000000
   11        5.701824   1.000000
   12        6.166021   1.000000
   13        6.519314   1.000000
   14        7.287625   1.000000
   15        7.640755   1.000000
   16        8.661596   1.000000
   17        8.790195   1.000000
   18        9.155340   1.000000
   19        9.861150   1.000000
   20       10.127444   1.000000
   21       10.894497   0.886806
   22       12.953442  -0.000000
   23       12.999471  -0.000000
   24       14.551970  -0.000000
   25       16.542791   0.000000
   26       16.612353   0.000000
   27       18.863439   0.000000
   28       19.427276   0.000000
   29       20.734508   0.000000
   30       21.834037   0.000000
 
 -0.2000000E+00  0.4000000E+00  0.0000000E+00  0.3200000E-01
    1       -2.211435   1.000000
    2        0.927105   1.000000
    3        1.054428   1.000000
    4        1.598518   1.000000
    5        2.441199   1.000000
    6        3.346071   1.000000
    7        3.847539   1.000000
    8        4.134600   1.000000
    9        4.444761   1.000000
   10        5.470180   1.000000
   11        5.690347   1.000000
   12        6.296033   1.000000
   13        6.427531   1.000000
   14        7.209912   1.000000
   15        7.707557   1.000000
   16        8.479565   1.000000
   17        8.527753   1.000000
   18        8.799038   1.000000
   19        9.232264   1.000000
   20       10.773096   1.034166
   21       11.297236  -0.028429
   22       12.909426  -0.000000
   23       12.986897  -0.000000
   24       14.882092  -0.000000
   25       16.472780   0.000000
   26       16.662319   0.000000
   27       18.815196   0.000000
   28       19.318380   0.000000
   29       20.693732   0.000000
   30       21.614936   0.000000
 
 -0.4000000E+00  0.0000000E+00  0.2000000E+00  0.3200000E-01
    1       -2.135930   1.000000
    2       -0.849618   1.000000
    3        1.204316   1.000000
    4        1.858713   1.000000
    5        2.238129   1.000000
    6        2.637222   1.000000
    7        3.403978   1.000000
    8        3.912879   1.000000
    9        4.656814   1.000000
   10        5.432851   1.000000
   11        5.724099   1.000000
   12        5.886885   1.000000
   13        6.668134   1.000000
   14        7.311154   1.000000
   15        7.804284   1.000000
   16        8.849458   1.000000
   17        9.186701   1.000000
   18        9.670801   1.000000
   19       10.190518   1.000000
   20       10.359574   1.000028
   21       11.493980  -0.001345
   22       13.424268  -0.000000
   23       13.553374  -0.000000
   24       13.964458  -0.000000
   25       16.439552  -0.000000
   26       16.857468   0.000000
   27       18.846702   0.000000
   28       18.875876   0.000000
   29       20.710558   0.000000
   30       21.930086   0.000000
 
  0.0000000E+00  0.2000000E+00  0.4000000E+00  0.3200000E-01
    1       -2.517676   1.000000
    2        0.075296   1.000000
    3        1.041590   1.000000
    4        1.670987   1.000000
    5        2.169417   1.000000
    6        3.271759   1.000000
    7        3.807873   1.000000
    8        4.422017   1.000000
    9        4.528890   1.000000
   10        5.319427   1.000000
   11        5.675668   1.000000
   12        6.090351   1.000000
   13        6.491730   1.000000
   14        7.501020   1.000000
   15        7.662972   1.000000
   16        8.139137   1.000000
   17        8.511294   1.000000
   18        9.335281   1.000000
   19        9.748046   1.000000
   20       10.499633   1.001129
   21       11.370460  -0.012638
   22       12.893638  -0.000000
   23       13.113566  -0.000000
   24       14.771909  -0.000000
   25       16.434138  -0.000000
   26       16.814648   0.000000
   27       18.980206   0.000000
   28       19.236389   0.000000
   29       20.553617   0.000000
   30       22.396709   0.000000
 
  0.4000000E+00  0.4000000E+00  0.0000000E+00  0.3200000E-01
    1        0.716087   1.000000
    2        1.515650   1.000000
    3        1.671762   1.000000
    4        2.701069   1.000000
    5        3.351302   1.000000
    6        4.259949   1.000000
    7        4.347229   1.000000
    8        4.849036   1.000000
    9        5.088348   1.000000
   10        5.242183   1.000000
   11        5.872190   1.000000
   12        6.280799   1.000000
   13        7.420219   1.000000
   14        7.452998   1.000000
   15        8.158134   1.000000
   16        8.234545   1.000000
   17        8.670439   1.000000
   18        9.799274   1.000000
   19        9.940353   1.000000
   20       10.722926   1.032161
   21       11.263054  -0.034430
   22       11.785516  -0.000000
   23       12.827160  -0.000000
   24       13.763953  -0.000000
   25       16.386603  -0.000000
   26       17.959674   0.000000
   27       19.354079   0.000000
   28       20.213934   0.000000
   29       20.475393   0.000000
   30       21.131822   0.000000
 
  0.0000000E+00  0.4000000E+00  0.4000000E+00  0.3200000E-01
    1        0.110960   1.000000
    2        0.888600   1.000000
    3        1.316825   1.000000
    4        2.921995   1.000000
    5        3.017713   1.000000
    6        4.083574   1.000000
    7        4.587201   1.000000
    8        4.614603   1.000000
    9        5.341510   1.000000
   10        5.636198   1.000000
   11        6.384034   1.000000
   12        6.532709   1.000000
   13        7.060029   1.000000
   14        7.265859   1.000000
   15        8.323047   1.000000
   16        8.427708   1.000000
   17        8.462981   1.000000
   18       10.197791   1.000000
   19       10.379924   1.000052
   20       10.710584   1.029775
   21       11.631781  -0.000038
   22       11.736825  -0.000001
   23       13.392632  -0.000000
   24       14.054478  -0.000000
   25       16.470731   0.000000
   26       18.022595   0.000000
   27       19.072365   0.000000
   28       19.910563   0.000000
   29       20.245043   0.000000
   30       20.556018   0.000000
 
  0.4000000E+00  0.0000000E+00  0.4000000E+00  0.3200000E-01
    1        1.243621   1.000000
    2        1.865009   1.000000
    3        2.062011   1.000000
    4        2.575535   1.000000
    5        3.387287   1.000000
    6        3.930234   1.000000
    7        4.155392   1.000000
    8        4.663821   1.000000
    9        5.084454   1.000000
   10        5.258141   1.000000
   11        5.779378   1.000000
   12        6.132355   1.000000
   13        7.481109   1.000000
   14        8.023580   1.000000
   15        8.071801   1.000000
   16        8.327788   1.000000
   17        8.960374   1.000000
   18        9.376557   1.000000
   19       10.659459   1.018265
   20       10.703925   1.028352
   21       11.007454   0.471685
   22       11.903761  -0.000000
   23       12.532113  -0.000000
   24       13.185651  -0.000000
   25       16.171463  -0.000000
   26       17.768488   0.000000
   27       18.832379   0.000000
   28       20.186075   0.000000
   29       20.700740   0.000000
   30       21.422823   0.000000
 
  0.2000000E+00  0.2000000E+00  0.2000000E+00  0.6400000E-01
    1       -2.605729   1.000000
    2       -2.281154   1.000000
    3        0.514702   1.000000
    4        1.536584   1.000000
    5        2.798043   1.000000
    6        2.884423   1.000000
    7        3.905450   1.000000
    8        4.223488   1.000000
    9        4.583071   1.000000
   10        5.042053   1.000000
   11        6.039819   1.000000
   12        6.133796   1.000000
   13        7.302281   1.000000
   14        7.509097   1.000000
   15        7.886387   1.000000
   16        8.141200   1.000000
   17        9.274955   1.000000
   18        9.576933   1.000000
   19        9.958277   1.000000
   20       10.696412   1.026673
   21       11.645781  -0.000025
   22       13.745277  -0.000000
   23       14.295494  -0.000000
   24       14.663790  -0.000000
   25       15.429452  -0.000000
   26       17.112712   0.000000
   27       17.746686   0.000000
   28       18.996832   0.000000
   29       20.430698   0.000000
   30       20.584645   0.000000
 
  0.4000000E+00  0.2000000E+00  0.2000000E+00  0.6400000E-01
    1       -0.612821   1.000000
    2        0.108225   1.000000
    3        1.227439   1.000000
    4        1.258924   1.000000
    5        2.084455   1.000000
    6        3.321291   1.000000
    7        4.220806   1.000000
    8        4.832257   1.000000
    9        5.023980   1.000000
   10        5.159180   1.000000
   11        5.742329   1.000000
   12        6.196618   1.000000
   13        6.381799   1.000000
   14        7.660241   1.000000
   15        7.761889   1.000000
   16        8.539151   1.000000
   17        8.967224   1.000000
   18        9.496071   1.000000
   19       10.526004   1.001998
   20       11.019118   0.422676
   21       11.631667  -0.000038
   22       12.783491  -0.000000
   23       13.182256  -0.000000
   24       14.205890  -0.000000
   25       14.611025  -0.000000
   26       15.780925  -0.000000
   27       19.157037   0.000000
   28       19.520959   0.000000
   29       21.094270   0.000000
   30       21.549258   0.000000
 
  0.2000000E+00  0.4000000E+00  0.2000000E+00  0.6400000E-01
    1       -0.689345   1.000000
    2       -0.290324   1.000000
    3        1.166429   1.000000
    4        1.475020   1.000000
    5        2.986525   1.000000
    6        3.615513   1.000000
    7        4.189653   1.000000
    8        4.506979   1.000000
    9        5.110192   1.000000
   10        5.409127   1.000000
   11        5.982359   1.000000
   12        6.181001   1.000000
   13        6.367690   1.000000
   14        7.569108   1.000000
   15        7.817643   1.000000
   16        8.052849   1.000000
   17        8.632174   1.000000
   18        9.758061   1.000000
   19       10.097527   1.000000
   20       11.031252   0.372620
   21       11.213648  -0.030587
   22       12.496265  -0.000000
   23       13.083747  -0.000000
   24       14.109565  -0.000000
   25       14.808357  -0.000000
   26       15.990000  -0.000000
   27       19.272791   0.000000
   28       19.651684   0.000000
   29       21.259942   0.000000
   30       21.771760   0.000000
 
  0.2000000E+00  0.2000000E+00  0.4000000E+00  0.6400000E-01
    1       -0.760909   1.000000
    2       -0.012079   1.000000
    3        1.158267   1.000000
    4        1.415929   1.000000
    5        2.628750   1.000000
    6        3.517360   1.000000
    7        4.281005   1.000000
    8        4.643818   1.000000
    9        5.017444   1.000000
   10        5.555534   1.000000
   11        5.578281   1.000000
   12        6.110776   1.000000
   13        6.468857   1.000000
   14        7.489292   1.000000
   15        7.699286   1.000000
   16        8.342595   1.000000
   17        8.885541   1.000000
   18        9.433166   1.000000
   19       10.374077   1.000043
   20       10.742370   1.034824
   21       11.555499  -0.000313
   22       12.504521  -0.000000
   23       12.987753  -0.000000
   24       14.139964  -0.000000
   25       14.759081  -0.000000
   26       16.262755  -0.000000
   27       18.951143   0.000000
   28       19.547046   0.000000
   29       21.237255   0.000000
   30       21.744946   0.000000
 
  0.4000000E+00  0.4000000E+00  0.2000000E+00  0.6400000E-01
    1       -2.203656   1.000000
    2        0.092743   1.000000
    3        0.875226   1.000000
    4        1.739501   1.000000
    5        2.053162   1.000000
    6        3.393621   1.000000
    7        4.258215   1.000000
    8        4.852924   1.000000
    9        4.958433   1.000000
   10        5.053363   1.000000
   11        5.778702   1.000000
   12        5.891588   1.000000
   13        6.409148   1.000000
   14        6.558441   1.000000
   15        6.770289   1.000000
   16        7.120366   1.000000
   17        8.348312   1.000000
   18        8.991525   1.000000
   19        9.774989   1.000000
   20       10.116782   1.000000
   21       10.933262   0.768369
   22       11.790325  -0.000000
   23       12.210411  -0.000000
   24       12.666738  -0.000000
   25       13.936574  -0.000000
   26       16.794876   0.000000
   27       17.442106   0.000000
   28       19.333521   0.000000
   29       20.555523   0.000000
   30       22.814108   0.000000
 
  0.2000000E+00  0.4000000E+00  0.4000000E+00  0.6400000E-01
    1       -2.349146   1.000000
    2       -0.251075   1.000000
    3        1.080193   1.000000
    4        1.788693   1.000000
    5        1.964973   1.000000
    6        3.470475   1.000000
    7        4.015339   1.000000
    8        4.907783   1.000000
    9        5.256390   1.000000
   10        5.423793   1.000000
   11        5.710154   1.000000
   12        5.990761   1.000000
   13        6.344209   1.000000
   14        6.531309   1.000000
   15        6.697987   1.000000
   16        7.051997   1.000000
   17        8.563611   1.000000
   18        8.814127   1.000000
   19        9.640357   1.000000
   20        9.968577   1.000000
   21       11.010405   0.459234
   22       11.815007  -0.000000
   23       12.900699  -0.000000
   24       12.999733  -0.000000
   25       13.790650  -0.000000
   26       16.496544   0.000000
   27       16.883445   0.000000
   28       19.667213   0.000000
   29       20.649968   0.000000
   30       22.753143   0.000000
 
  0.4000000E+00  0.2000000E+00  0.4000000E+00  0.6400000E-01
    1       -2.004490   1.000000
    2        0.359966   1.000000
    3        0.759828   1.000000
    4        1.770759   1.000000
    5        2.158037   1.000000
    6        3.343523   1.000000
    7        4.203453   1.000000
    8        4.561471   1.000000
    9        4.828253   1.000000
   10        5.030878   1.000000
   11        5.476172   1.000000
   12        5.886478   1.000000
   13        6.565575   1.000000
   14        6.764449   1.000000
   15        6.929284   1.000000
   16        7.114487   1.000000
   17        8.338439   1.000000
   18        9.395162   1.000000
   19        9.993941   1.000000
   20       10.706768   1.028968
   21       10.964371   0.651179
   22       11.253643  -0.035228
   23       11.761319  -0.000001
   24       12.330418  -0.000000
   25       13.742443  -0.000000
   26       16.739194   0.000000
   27       17.555675   0.000000
   28       19.313740   0.000000
   29       20.503782   0.000000
   30       22.742528   0.000000
 
  0.4000000E+00  0.4000000E+00  0.4000000E+00  0.6400000E-01
    1       -0.840547   1.000000
    2       -0.496222   1.000000
    3        0.222945   1.000000
    4        1.666906   1.000000
    5        3.213570   1.000000
    6        3.885044   1.000000
    7        4.420885   1.000000
    8        5.047091   1.000000
    9        5.452426   1.000000
   10        5.495212   1.000000
   11        6.220088   1.000000
   12        6.294114   1.000000
   13        6.732761   1.000000
   14        7.780256   1.000000
   15        7.881043   1.000000
   16        8.322024   1.000000
   17        8.920572   1.000000
   18        9.598567   1.000000
   19       10.350221   1.000021
   20       11.049041   0.302151
   21       11.496337  -0.001277
   22       11.809822  -0.000000
   23       12.187253  -0.000000
   24       12.572150  -0.000000
   25       13.272760  -0.000000
   26       15.194224  -0.000000
   27       15.835024  -0.000000
   28       17.386217   0.000000
   29       23.567570   0.000000
   30       23.727493   0.000000
