       N       E                     dE             d eps       ncg     rms          rms(c)
DAV:   1     0.187218458596E+03    0.18722E+03   -0.30331E-03  1758   0.285E-01    0.542E-02
DAV:   2     0.187242459416E+03    0.24001E-01   -0.32587E-03  1746   0.291E-01    0.879E-02
DAV:   3     0.187242486947E+03    0.27531E-04   -0.52391E-05  1668   0.428E-02    0.278E-02
DAV:   4     0.187242489538E+03    0.25915E-05   -0.24567E-06  1544   0.112E-02    0.190E-02
DAV:   5     0.187242489570E+03    0.32219E-07   -0.19558E-07   810   0.227E-03
   1 F= 0.18724249E+03 E0= 0.18724600E+03  d E =-.105175E-01
