unknown system                          
   1.00000000000000     
     3.694601    0.000000    0.000000
     0.000000    3.694601    0.000000
     0.000000    0.000000    3.694601
   Cu
     4
Direct
  0.000000  0.000000  0.000000
  0.500000  0.500000  0.000000
  0.500000  0.000000  0.500000
  0.000000  0.500000  0.500000
 
   32   32   32
  888.54      835.78      694.70      507.74      322.54      174.59      79.795      34.600      20.459      14.895    
  11.325      9.0893      7.7856      7.1651      6.7763      6.3594      6.1466      6.3594      6.7763      7.1651    
  7.7856      9.0893      11.325      14.895      20.459      34.600      79.795      174.59      322.54      507.74    
  694.70      835.78      835.78      785.93      652.63      476.06      301.42      162.50      74.275      32.884    
  20.087      14.692      11.248      9.1070      7.8687      7.2868      6.9316      6.5530      6.3594      6.5530    
  6.9316      7.2868      7.8687      9.1070      11.248      14.692      20.087      32.884      74.275      162.50    
  301.42      476.06      652.63      785.93      694.70      652.63      540.19      391.55      245.44      130.88    
  60.203      28.706      19.069      14.138      11.045      9.1501      8.0621      7.5466      7.2405      6.9316    
  6.7763      6.9316      7.2405      7.5466      8.0621      9.1501      11.045      14.138      19.069      28.706    
  60.203      130.88      245.44      391.55      540.19      652.63      507.74      476.06      391.55      280.52    
  172.98      91.195      43.551      24.184      17.580      13.376      10.795      9.2293      8.3131      7.8399    
  7.5466      7.2868      7.1651      7.2868      7.5466      7.8399      8.3131      9.2293      10.795      13.376    
  17.580      24.184      43.551      91.195      172.98      280.52      391.55      476.06      322.54      301.42    
  245.44      172.98      104.91      56.012      30.253      20.750      15.884      12.592      10.612      9.4216    
  8.7107      8.3131      8.0621      7.8687      7.7856      7.8687      8.0621      8.3131      8.7107      9.4216    
  10.612      12.592      15.884      20.750      30.253      56.012      104.91      172.98      245.44      301.42    
  174.59      162.50      130.88      91.195      56.012      33.190      22.747      17.879      14.277      11.959    
  10.609      9.8392      9.4216      9.2293      9.1501      9.1070      9.0893      9.1070      9.1501      9.2293    
  9.4216      9.8392      10.609      11.959      14.277      17.879      22.747      33.190      56.012      91.195    
  130.88      162.50      79.795      74.275      60.203      43.551      30.253      22.747      18.629      15.329    
  13.006      11.610      10.891      10.609      10.612      10.795      11.045      11.248      11.325      11.248    
  11.045      10.795      10.612      10.609      10.891      11.610      13.006      15.329      18.629      22.747    
  30.253      43.551      60.203      74.275      34.600      32.884      28.706      24.184      20.750      17.879    
  15.329      13.409      12.210      11.655      11.610      11.959      12.592      13.376      14.138      14.692    
  14.895      14.692      14.138      13.376      12.592      11.959      11.610      11.655      12.210      13.409    
  15.329      17.879      20.750      24.184      28.706      32.884      20.459      20.087      19.069      17.580    
  15.884      14.277      13.006      12.210      11.943      12.210      13.006      14.277      15.884      17.580    
  19.069      20.087      20.459      20.087      19.069      17.580      15.884      14.277      13.006      12.210    
  11.943      12.210      13.006      14.277      15.884      17.580      19.069      20.087      14.895      14.692    
  14.138      13.376      12.592      11.959      11.610      11.655      12.210      13.409      15.329      17.879    
  20.750      24.184      28.706      32.884      34.600      32.884      28.706      24.184      20.750      17.879    
  15.329      13.409      12.210      11.655      11.610      11.959      12.592      13.376      14.138      14.692    
  11.325      11.248      11.045      10.795      10.612      10.609      10.891      11.610      13.006      15.329    
  18.629      22.747      30.253      43.551      60.203      74.275      79.795      74.275      60.203      43.551    
  30.253      22.747      18.629      15.329      13.006      11.610      10.891      10.609      10.612      10.795    
  11.045      11.248      9.0893      9.1070      9.1501      9.2293      9.4216      9.8392      10.609      11.959    
  14.277      17.879      22.747      33.190      56.012      91.195      130.88      162.50      174.59      162.50    
  130.88      91.195      56.012      33.190      22.747      17.879      14.277      11.959      10.609      9.8392    
  9.4216      9.2293      9.1501      9.1070      7.7856      7.8687      8.0621      8.3131      8.7107      9.4216    
  10.612      12.592      15.884      20.750      30.253      56.012      104.91      172.98      245.44      301.42    
  322.54      301.42      245.44      172.98      104.91      56.012      30.253      20.750      15.884      12.592    
  10.612      9.4216      8.7107      8.3131      8.0621      7.8687      7.1651      7.2868      7.5466      7.8399    
  8.3131      9.2293      10.795      13.376      17.580      24.184      43.551      91.195      172.98      280.52    
  391.55      476.06      507.74      476.06      391.55      280.52      172.98      91.195      43.551      24.184    
  17.580      13.376      10.795      9.2293      8.3131      7.8399      7.5466      7.2868      6.7763      6.9316    
  7.2405      7.5466      8.0621      9.1501      11.045      14.138      19.069      28.706      60.203      130.88    
  245.44      391.55      540.19      652.63      694.70      652.63      540.19      391.55      245.44      130.88    
  60.203      28.706      19.069      14.138      11.045      9.1501      8.0621      7.5466      7.2405      6.9316    
  6.3594      6.5530      6.9316      7.2868      7.8687      9.1070      11.248      14.692      20.087      32.884    
  74.275      162.50      301.42      476.06      652.63      785.93      835.78      785.93      652.63      476.06    
  301.42      162.50      74.275      32.884      20.087      14.692      11.248      9.1070      7.8687      7.2868    
  6.9316      6.5530      6.1466      6.3594      6.7763      7.1651      7.7856      9.0893      11.325      14.895    
  20.459      34.600      79.795      174.59      322.54      507.74      694.70      835.78      888.54      835.78    
  694.70      507.74      322.54      174.59      79.795      34.600      20.459      14.895      11.325      9.0893    
  7.7856      7.1651      6.7763      6.3594      6.3594      6.5530      6.9316      7.2868      7.8687      9.1070    
  11.248      14.692      20.087      32.884      74.275      162.50      301.42      476.06      652.63      785.93    
  835.78      785.93      652.63      476.06      301.42      162.50      74.275      32.884      20.087      14.692    
  11.248      9.1070      7.8687      7.2868      6.9316      6.5530      6.7763      6.9316      7.2405      7.5466    
  8.0621      9.1501      11.045      14.138      19.069      28.706      60.203      130.88      245.44      391.55    
  540.19      652.63      694.70      652.63      540.19      391.55      245.44      130.88      60.203      28.706    
  19.069      14.138      11.045      9.1501      8.0621      7.5466      7.2405      6.9316      7.1651      7.2868    
  7.5466      7.8399      8.3131      9.2293      10.795      13.376      17.580      24.184      43.551      91.195    
  172.98      280.52      391.55      476.06      507.74      476.06      391.55      280.52      172.98      91.195    
  43.551      24.184      17.580      13.376      10.795      9.2293      8.3131      7.8399      7.5466      7.2868    
  7.7856      7.8687      8.0621      8.3131      8.7107      9.4216      10.612      12.592      15.884      20.750    
  30.253      56.012      104.91      172.98      245.44      301.42      322.54      301.42      245.44      172.98    
  104.91      56.012      30.253      20.750      15.884      12.592      10.612      9.4216      8.7107      8.3131    
  8.0621      7.8687      9.0893      9.1070      9.1501      9.2293      9.4216      9.8392      10.609      11.959    
  14.277      17.879      22.747      33.190      56.012      91.195      130.88      162.50      174.59      162.50    
  130.88      91.195      56.012      33.190      22.747      17.879      14.277      11.959      10.609      9.8392    
  9.4216      9.2293      9.1501      9.1070      11.325      11.248      11.045      10.795      10.612      10.609    
  10.891      11.610      13.006      15.329      18.629      22.747      30.253      43.551      60.203      74.275    
  79.795      74.275      60.203      43.551      30.253      22.747      18.629      15.329      13.006      11.610    
  10.891      10.609      10.612      10.795      11.045      11.248      14.895      14.692      14.138      13.376    
  12.592      11.959      11.610      11.655      12.210      13.409      15.329      17.879      20.750      24.184    
  28.706      32.884      34.600      32.884      28.706      24.184      20.750      17.879      15.329      13.409    
  12.210      11.655      11.610      11.959      12.592      13.376      14.138      14.692      20.459      20.087    
  19.069      17.580      15.884      14.277      13.006      12.210      11.943      12.210      13.006      14.277    
  15.884      17.580      19.069      20.087      20.459      20.087      19.069      17.580      15.884      14.277    
  13.006      12.210      11.943      12.210      13.006      14.277      15.884      17.580      19.069      20.087    
  34.600      32.884      28.706      24.184      20.750      17.879      15.329      13.409      12.210      11.655    
  11.610      11.959      12.592      13.376      14.138      14.692      14.895      14.692      14.138      13.376    
  12.592      11.959      11.610      11.655      12.210      13.409      15.329      17.879      20.750      24.184    
  28.706      32.884      79.795      74.275      60.203      43.551      30.253      22.747      18.629      15.329    
  13.006      11.610      10.891      10.609      10.612      10.795      11.045      11.248      11.325      11.248    
  11.045      10.795      10.612      10.609      10.891      11.610      13.006      15.329      18.629      22.747    
  30.253      43.551      60.203      74.275      174.59      162.50      130.88      91.195      56.012      33.190    
  22.747      17.879      14.277      11.959      10.609      9.8392      9.4216      9.2293      9.1501      9.1070    
  9.0893      9.1070      9.1501      9.2293      9.4216      9.8392      10.609      11.959      14.277      17.879    
  22.747      33.190      56.012      91.195      130.88      162.50      322.54      301.42      245.44      172.98    
  104.91      56.012      30.253      20.750      15.884      12.592      10.612      9.4216      8.7107      8.3131    
  8.0621      7.8687      7.7856      7.8687      8.0621      8.3131      8.7107      9.4216      10.612      12.592    
  15.884      20.750      30.253      56.012      104.91      172.98      245.44      301.42      507.74      476.06    
  391.55      280.52      172.98      91.195      43.551      24.184      17.580      13.376      10.795      9.2293    
  8.3131      7.8399      7.5466      7.2868      7.1651      7.2868      7.5466      7.8399      8.3131      9.2293    
  10.795      13.376      17.580      24.184      43.551      91.195      172.98      280.52      391.55      476.06    
  694.70      652.63      540.19      391.55      245.44      130.88      60.203      28.706      19.069      14.138    
  11.045      9.1501      8.0621      7.5466      7.2405      6.9316      6.7763      6.9316      7.2405      7.5466    
  8.0621      9.1501      11.045      14.138      19.069      28.706      60.203      130.88      245.44      391.55    
  540.19      652.63      835.78      785.93      652.63      476.06      301.42      162.50      74.275      32.884    
  20.087      14.692      11.248      9.1070      7.8687      7.2868      6.9316      6.5530      6.3594      6.5530    
  6.9316      7.2868      7.8687      9.1070      11.248      14.692      20.087      32.884      74.275      162.50    
  301.42      476.06      652.63      785.93      835.78      785.93      652.63      476.06      301.42      162.50    
  74.275      32.884      20.087      14.692      11.248      9.1070      7.8687      7.2868      6.9316      6.5530    
  6.3594      6.5530      6.9316      7.2868      7.8687      9.1070      11.248      14.692      20.087      32.884    
  74.275      162.50      301.42      476.06      652.63      785.93      785.93      738.84      612.90      446.17    
  281.57      151.21      69.185      31.336      19.731      14.495      11.172      9.1211      7.9438      7.3972    
  7.0726      6.7291      6.5530      6.7291      7.0726      7.3972      7.9438      9.1211      11.172      14.495    
  19.731      31.336      69.185      151.21      281.57      446.17      612.90      738.84      652.63      612.90    
  506.72      366.48      228.97      121.72      56.243      27.579      18.738      13.955      10.973      9.1563    
  8.1200      7.6339      7.3528      7.0726      6.9316      7.0726      7.3528      7.6339      8.1200      9.1563    
  10.973      13.955      18.738      27.579      56.243      121.72      228.97      366.48      506.72      612.90    
  476.06      446.17      366.48      261.95      161.06      84.858      41.025      23.520      17.285      13.216    
  10.729      9.2275      8.3533      7.9054      7.6339      7.3972      7.2868      7.3972      7.6339      7.9054    
  8.3533      9.2275      10.729      13.216      17.285      23.520      41.025      84.858      161.06      261.95    
  366.48      446.17      301.42      281.57      228.97      161.06      97.589      52.422      28.993      20.358    
  15.637      12.459      10.552      9.4098      8.7305      8.3533      8.1200      7.9438      7.8687      7.9438    
  8.1200      8.3533      8.7305      9.4098      10.552      12.459      15.637      20.358      28.993      52.422    
  97.589      161.06      228.97      281.57      162.50      151.21      121.72      84.858      52.422      31.646    
  22.232      17.565      14.083      11.850      10.550      9.8100      9.4098      9.2275      9.1563      9.1211    
  9.1070      9.1211      9.1563      9.2275      9.4098      9.8100      10.550      11.850      14.083      17.565    
  22.232      31.646      52.422      84.858      121.72      151.21      74.275      69.185      56.243      41.025    
  28.993      22.232      18.291      15.097      12.858      11.516      10.823      10.550      10.552      10.729    
  10.973      11.172      11.248      11.172      10.973      10.729      10.552      10.550      10.823      11.516    
  12.858      15.097      18.291      22.232      28.993      41.025      56.243      69.185      32.884      31.336    
  27.579      23.520      20.358      17.565      15.097      13.247      12.095      11.560      11.516      11.850    
  12.459      13.216      13.955      14.495      14.692      14.495      13.955      13.216      12.459      11.850    
  11.516      11.560      12.095      13.247      15.097      17.565      20.358      23.520      27.579      31.336    
  20.087      19.731      18.738      17.285      15.637      14.083      12.858      12.095      11.838      12.095    
  12.858      14.083      15.637      17.285      18.738      19.731      20.087      19.731      18.738      17.285    
  15.637      14.083      12.858      12.095      11.838      12.095      12.858      14.083      15.637      17.285    
  18.738      19.731      14.692      14.495      13.955      13.216      12.459      11.850      11.516      11.560    
  12.095      13.247      15.097      17.565      20.358      23.520      27.579      31.336      32.884      31.336    
  27.579      23.520      20.358      17.565      15.097      13.247      12.095      11.560      11.516      11.850    
  12.459      13.216      13.955      14.495      11.248      11.172      10.973      10.729      10.552      10.550    
  10.823      11.516      12.858      15.097      18.291      22.232      28.993      41.025      56.243      69.185    
  74.275      69.185      56.243      41.025      28.993      22.232      18.291      15.097      12.858      11.516    
  10.823      10.550      10.552      10.729      10.973      11.172      9.1070      9.1211      9.1563      9.2275    
  9.4098      9.8100      10.550      11.850      14.083      17.565      22.232      31.646      52.422      84.858    
  121.72      151.21      162.50      151.21      121.72      84.858      52.422      31.646      22.232      17.565    
  14.083      11.850      10.550      9.8100      9.4098      9.2275      9.1563      9.1211      7.8687      7.9438    
  8.1200      8.3533      8.7305      9.4098      10.552      12.459      15.637      20.358      28.993      52.422    
  97.589      161.06      228.97      281.57      301.42      281.57      228.97      161.06      97.589      52.422    
  28.993      20.358      15.637      12.459      10.552      9.4098      8.7305      8.3533      8.1200      7.9438    
  7.2868      7.3972      7.6339      7.9054      8.3533      9.2275      10.729      13.216      17.285      23.520    
  41.025      84.858      161.06      261.95      366.48      446.17      476.06      446.17      366.48      261.95    
  161.06      84.858      41.025      23.520      17.285      13.216      10.729      9.2275      8.3533      7.9054    
  7.6339      7.3972      6.9316      7.0726      7.3528      7.6339      8.1200      9.1563      10.973      13.955    
  18.738      27.579      56.243      121.72      228.97      366.48      506.72      612.90      652.63      612.90    
  506.72      366.48      228.97      121.72      56.243      27.579      18.738      13.955      10.973      9.1563    
  8.1200      7.6339      7.3528      7.0726      6.5530      6.7291      7.0726      7.3972      7.9438      9.1211    
  11.172      14.495      19.731      31.336      69.185      151.21      281.57      446.17      612.90      738.84    
  785.93      738.84      612.90      446.17      281.57      151.21      69.185      31.336      19.731      14.495    
  11.172      9.1211      7.9438      7.3972      7.0726      6.7291      6.3594      6.5530      6.9316      7.2868    
  7.8687      9.1070      11.248      14.692      20.087      32.884      74.275      162.50      301.42      476.06    
  652.63      785.93      835.78      785.93      652.63      476.06      301.42      162.50      74.275      32.884    
  20.087      14.692      11.248      9.1070      7.8687      7.2868      6.9316      6.5530      6.5530      6.7291    
  7.0726      7.3972      7.9438      9.1211      11.172      14.495      19.731      31.336      69.185      151.21    
  281.57      446.17      612.90      738.84      785.93      738.84      612.90      446.17      281.57      151.21    
  69.185      31.336      19.731      14.495      11.172      9.1211      7.9438      7.3972      7.0726      6.7291    
  6.9316      7.0726      7.3528      7.6339      8.1200      9.1563      10.973      13.955      18.738      27.579    
  56.243      121.72      228.97      366.48      506.72      612.90      652.63      612.90      506.72      366.48    
  228.97      121.72      56.243      27.579      18.738      13.955      10.973      9.1563      8.1200      7.6339    
  7.3528      7.0726      7.2868      7.3972      7.6339      7.9054      8.3533      9.2275      10.729      13.216    
  17.285      23.520      41.025      84.858      161.06      261.95      366.48      446.17      476.06      446.17    
  366.48      261.95      161.06      84.858      41.025      23.520      17.285      13.216      10.729      9.2275    
  8.3533      7.9054      7.6339      7.3972      7.8687      7.9438      8.1200      8.3533      8.7305      9.4098    
  10.552      12.459      15.637      20.358      28.993      52.422      97.589      161.06      228.97      281.57    
  301.42      281.57      228.97      161.06      97.589      52.422      28.993      20.358      15.637      12.459    
  10.552      9.4098      8.7305      8.3533      8.1200      7.9438      9.1070      9.1211      9.1563      9.2275    
  9.4098      9.8100      10.550      11.850      14.083      17.565      22.232      31.646      52.422      84.858    
  121.72      151.21      162.50      151.21      121.72      84.858      52.422      31.646      22.232      17.565    
  14.083      11.850      10.550      9.8100      9.4098      9.2275      9.1563      9.1211      11.248      11.172    
  10.973      10.729      10.552      10.550      10.823      11.516      12.858      15.097      18.291      22.232    
  28.993      41.025      56.243      69.185      74.275      69.185      56.243      41.025      28.993      22.232    
  18.291      15.097      12.858      11.516      10.823      10.550      10.552      10.729      10.973      11.172    
  14.692      14.495      13.955      13.216      12.459      11.850      11.516      11.560      12.095      13.247    
  15.097      17.565      20.358      23.520      27.579      31.336      32.884      31.336      27.579      23.520    
  20.358      17.565      15.097      13.247      12.095      11.560      11.516      11.850      12.459      13.216    
  13.955      14.495      20.087      19.731      18.738      17.285      15.637      14.083      12.858      12.095    
  11.838      12.095      12.858      14.083      15.637      17.285      18.738      19.731      20.087      19.731    
  18.738      17.285      15.637      14.083      12.858      12.095      11.838      12.095      12.858      14.083    
  15.637      17.285      18.738      19.731      32.884      31.336      27.579      23.520      20.358      17.565    
  15.097      13.247      12.095      11.560      11.516      11.850      12.459      13.216      13.955      14.495    
  14.692      14.495      13.955      13.216      12.459      11.850      11.516      11.560      12.095      13.247    
  15.097      17.565      20.358      23.520      27.579      31.336      74.275      69.185      56.243      41.025    
  28.993      22.232      18.291      15.097      12.858      11.516      10.823      10.550      10.552      10.729    
  10.973      11.172      11.248      11.172      10.973      10.729      10.552      10.550      10.823      11.516    
  12.858      15.097      18.291      22.232      28.993      41.025      56.243      69.185      162.50      151.21    
  121.72      84.858      52.422      31.646      22.232      17.565      14.083      11.850      10.550      9.8100    
  9.4098      9.2275      9.1563      9.1211      9.1070      9.1211      9.1563      9.2275      9.4098      9.8100    
  10.550      11.850      14.083      17.565      22.232      31.646      52.422      84.858      121.72      151.21    
  301.42      281.57      228.97      161.06      97.589      52.422      28.993      20.358      15.637      12.459    
  10.552      9.4098      8.7305      8.3533      8.1200      7.9438      7.8687      7.9438      8.1200      8.3533    
  8.7305      9.4098      10.552      12.459      15.637      20.358      28.993      52.422      97.589      161.06    
  228.97      281.57      476.06      446.17      366.48      261.95      161.06      84.858      41.025      23.520    
  17.285      13.216      10.729      9.2275      8.3533      7.9054      7.6339      7.3972      7.2868      7.3972    
  7.6339      7.9054      8.3533      9.2275      10.729      13.216      17.285      23.520      41.025      84.858    
  161.06      261.95      366.48      446.17      652.63      612.90      506.72      366.48      228.97      121.72    
  56.243      27.579      18.738      13.955      10.973      9.1563      8.1200      7.6339      7.3528      7.0726    
  6.9316      7.0726      7.3528      7.6339      8.1200      9.1563      10.973      13.955      18.738      27.579    
  56.243      121.72      228.97      366.48      506.72      612.90      785.93      738.84      612.90      446.17    
  281.57      151.21      69.185      31.336      19.731      14.495      11.172      9.1211      7.9438      7.3972    
  7.0726      6.7291      6.5530      6.7291      7.0726      7.3972      7.9438      9.1211      11.172      14.495    
  19.731      31.336      69.185      151.21      281.57      446.17      612.90      738.84      694.70      652.63    
  540.19      391.55      245.44      130.88      60.203      28.706      19.069      14.138      11.045      9.1501    
  8.0621      7.5466      7.2405      6.9316      6.7763      6.9316      7.2405      7.5466      8.0621      9.1501    
  11.045      14.138      19.069      28.706      60.203      130.88      245.44      391.55      540.19      652.63    
  652.63      612.90      506.72      366.48      228.97      121.72      56.243      27.579      18.738      13.955    
  10.973      9.1563      8.1200      7.6339      7.3528      7.0726      6.9316      7.0726      7.3528      7.6339    
  8.1200      9.1563      10.973      13.955      18.738      27.579      56.243      121.72      228.97      366.48    
  506.72      612.90      540.19      506.72      417.38      299.79      185.49      97.934      46.268      24.859    
  17.809      13.460      10.786      9.1751      8.2599      7.8255      7.5810      7.3528      7.2405      7.3528    
  7.5810      7.8255      8.2599      9.1751      10.786      13.460      17.809      24.859      46.268      97.934    
  185.49      299.79      417.38      506.72      391.55      366.48      299.79      212.81      129.85      68.589    
  34.765      21.886      16.462      12.785      10.561      9.2291      8.4571      8.0594      7.8255      7.6339    
  7.5466      7.6339      7.8255      8.0594      8.4571      9.2291      10.561      12.785      16.462      21.886    
  34.765      68.589      129.85      212.81      299.79      366.48      245.44      228.97      185.49      129.85    
  78.700      43.393      25.931      19.260      14.953      12.100      10.400      9.3870      8.7881      8.4571    
  8.2599      8.1200      8.0621      8.1200      8.2599      8.4571      8.7881      9.3870      10.400      12.100    
  14.953      19.260      25.931      43.393      78.700      129.85      185.49      228.97      130.88      121.72    
  97.934      68.589      43.393      27.872      20.898      16.685      13.547      11.554      10.397      9.7402    
  9.3870      9.2291      9.1751      9.1563      9.1501      9.1563      9.1751      9.2291      9.3870      9.7402    
  10.397      11.554      13.547      16.685      20.898      27.872      43.393      68.589      97.934      121.72    
  60.203      56.243      46.268      34.765      25.931      20.898      17.340      14.449      12.451      11.258    
  10.641      10.397      10.400      10.561      10.786      10.973      11.045      10.973      10.786      10.561    
  10.400      10.397      10.641      11.258      12.451      14.449      17.340      20.898      25.931      34.765    
  46.268      56.243      28.706      27.579      24.859      21.886      19.260      16.685      14.449      12.796    
  11.773      11.299      11.258      11.554      12.100      12.785      13.460      13.955      14.138      13.955    
  13.460      12.785      12.100      11.554      11.258      11.299      11.773      12.796      14.449      16.685    
  19.260      21.886      24.859      27.579      19.069      18.738      17.809      16.462      14.953      13.547    
  12.451      11.773      11.546      11.773      12.451      13.547      14.953      16.462      17.809      18.738    
  19.069      18.738      17.809      16.462      14.953      13.547      12.451      11.773      11.546      11.773    
  12.451      13.547      14.953      16.462      17.809      18.738      14.138      13.955      13.460      12.785    
  12.100      11.554      11.258      11.299      11.773      12.796      14.449      16.685      19.260      21.886    
  24.859      27.579      28.706      27.579      24.859      21.886      19.260      16.685      14.449      12.796    
  11.773      11.299      11.258      11.554      12.100      12.785      13.460      13.955      11.045      10.973    
  10.786      10.561      10.400      10.397      10.641      11.258      12.451      14.449      17.340      20.898    
  25.931      34.765      46.268      56.243      60.203      56.243      46.268      34.765      25.931      20.898    
  17.340      14.449      12.451      11.258      10.641      10.397      10.400      10.561      10.786      10.973    
  9.1501      9.1563      9.1751      9.2291      9.3870      9.7402      10.397      11.554      13.547      16.685    
  20.898      27.872      43.393      68.589      97.934      121.72      130.88      121.72      97.934      68.589    
  43.393      27.872      20.898      16.685      13.547      11.554      10.397      9.7402      9.3870      9.2291    
  9.1751      9.1563      8.0621      8.1200      8.2599      8.4571      8.7881      9.3870      10.400      12.100    
  14.953      19.260      25.931      43.393      78.700      129.85      185.49      228.97      245.44      228.97    