unknown system                          
   1.00000000000000     
     3.694601    0.000000    0.000000
     0.000000    3.694601    0.000000
     0.000000    0.000000    3.694601
   Cu
     4
Direct
  0.000000  0.000000  0.000000
  0.500000  0.500000  0.000000
  0.500000  0.000000  0.500000
  0.000000  0.500000  0.500000
 
   32   32   32
 0.88853575377E+03 0.83577852221E+03 0.69469641798E+03 0.50774269105E+03 0.32253796746E+03
 0.17458681233E+03 0.79795222759E+02 0.34600385356E+02 0.20459232621E+02 0.14895394802E+02
 0.11325094292E+02 0.90892605406E+01 0.77855735592E+01 0.71650510086E+01 0.67762584425E+01
 0.63593607465E+01 0.61466316373E+01 0.63593607465E+01 0.67762584425E+01 0.71650510086E+01
 0.77855735592E+01 0.90892605406E+01 0.11325094292E+02 0.14895394802E+02 0.20459232621E+02
 0.34600385356E+02 0.79795222759E+02 0.17458681233E+03 0.32253796746E+03 0.50774269105E+03
 0.69469641798E+03 0.83577852221E+03 0.83577852221E+03 0.78593235070E+03 0.65263354800E+03
 0.47606121424E+03 0.30142480495E+03 0.16250320432E+03 0.74275497754E+02 0.32883846156E+02
 0.20086664332E+02 0.14692338352E+02 0.11248040038E+02 0.91069978159E+01 0.78686548251E+01
 0.72867537335E+01 0.69315857818E+01 0.65530109914E+01 0.63593607465E+01 0.65530109914E+01
 0.69315857818E+01 0.72867537335E+01 0.78686548251E+01 0.91069978159E+01 0.11248040038E+02
 0.14692338352E+02 0.20086664332E+02 0.32883846156E+02 0.74275497754E+02 0.16250320432E+03
 0.30142480495E+03 0.47606121424E+03 0.65263354800E+03 0.78593235070E+03 0.69469641798E+03
 0.65263354800E+03 0.54019294607E+03 0.39154832455E+03 0.24543985156E+03 0.13088170700E+03
 0.60203188778E+02 0.28706158419E+02 0.19069433666E+02 0.14137748726E+02 0.11044636067E+02
 0.91500945279E+01 0.80621282756E+01 0.75466255812E+01 0.72404955238E+01 0.69315857818E+01
 0.67762584425E+01 0.69315857818E+01 0.72404955238E+01 0.75466255812E+01 0.80621282756E+01
 0.91500945279E+01 0.11044636067E+02 0.14137748726E+02 0.19069433666E+02 0.28706158419E+02
 0.60203188778E+02 0.13088170700E+03 0.24543985156E+03 0.39154832455E+03 0.54019294607E+03
 0.65263354800E+03 0.50774269105E+03 0.47606121424E+03 0.39154832455E+03 0.28051873485E+03
 0.17298159834E+03 0.91194620586E+02 0.43551275008E+02 0.24184298862E+02 0.17580443095E+02
 0.13375894802E+02 0.10794923672E+02 0.92292601576E+01 0.83131341783E+01 0.78399218270E+01
 0.75466255812E+01 0.72867537335E+01 0.71650510086E+01 0.72867537335E+01 0.75466255812E+01
 0.78399218270E+01 0.83131341783E+01 0.92292601576E+01 0.10794923672E+02 0.13375894802E+02
 0.17580443095E+02 0.24184298862E+02 0.43551275008E+02 0.91194620586E+02 0.17298159834E+03
 0.28051873485E+03 0.39154832455E+03 0.47606121424E+03 0.32253796746E+03 0.30142480495E+03
 0.24543985156E+03 0.17298159834E+03 0.10490651407E+03 0.56011878437E+02 0.30252998189E+02
 0.20749629470E+02 0.15883986272E+02 0.12591905089E+02 0.10611978077E+02 0.94215836431E+01
 0.87107247384E+01 0.83131341783E+01 0.80621282756E+01 0.78686548251E+01 0.77855735592E+01
 0.78686548251E+01 0.80621282756E+01 0.83131341783E+01 0.87107247384E+01 0.94215836431E+01
 0.10611978077E+02 0.12591905089E+02 0.15883986272E+02 0.20749629470E+02 0.30252998189E+02
 0.56011878437E+02 0.10490651407E+03 0.17298159834E+03 0.24543985156E+03 0.30142480495E+03
 0.17458681233E+03 0.16250320432E+03 0.13088170700E+03 0.91194620586E+02 0.56011878437E+02
 0.33190129824E+02 0.22747237311E+02 0.17879349249E+02 0.14277471548E+02 0.11958808166E+02
 0.10608520690E+02 0.98392205287E+01 0.94215836431E+01 0.92292601576E+01 0.91500945279E+01
 0.91069978159E+01 0.90892605406E+01 0.91069978159E+01 0.91500945279E+01 0.92292601576E+01
 0.94215836431E+01 0.98392205287E+01 0.10608520690E+02 0.11958808166E+02 0.14277471548E+02
 0.17879349249E+02 0.22747237311E+02 0.33190129824E+02 0.56011878437E+02 0.91194620586E+02
 0.13088170700E+03 0.16250320432E+03 0.79795222759E+02 0.74275497754E+02 0.60203188778E+02
 0.43551275008E+02 0.30252998189E+02 0.22747237311E+02 0.18629103832E+02 0.15329042898E+02
 0.13005620465E+02 0.11610330362E+02 0.10891106868E+02 0.10608520690E+02 0.10611978077E+02
 0.10794923672E+02 0.11044636067E+02 0.11248040038E+02 0.11325094292E+02 0.11248040038E+02
 0.11044636067E+02 0.10794923672E+02 0.10611978077E+02 0.10608520690E+02 0.10891106868E+02
 0.11610330362E+02 0.13005620465E+02 0.15329042898E+02 0.18629103832E+02 0.22747237311E+02
 0.30252998189E+02 0.43551275008E+02 0.60203188778E+02 0.74275497754E+02 0.34600385356E+02
 0.32883846156E+02 0.28706158419E+02 0.24184298862E+02 0.20749629470E+02 0.17879349249E+02
 0.15329042898E+02 0.13409315490E+02 0.12210382375E+02 0.11654783035E+02 0.11610330362E+02
 0.11958808166E+02 0.12591905089E+02 0.13375894802E+02 0.14137748726E+02 0.14692338352E+02
 0.14895394802E+02 0.14692338352E+02 0.14137748726E+02 0.13375894802E+02 0.12591905089E+02
 0.11958808166E+02 0.11610330362E+02 0.11654783035E+02 0.12210382375E+02 0.13409315490E+02
 0.15329042898E+02 0.17879349249E+02 0.20749629470E+02 0.24184298862E+02 0.28706158419E+02
 0.32883846156E+02 0.20459232621E+02 0.20086664332E+02 0.19069433666E+02 0.17580443095E+02
 0.15883986272E+02 0.14277471548E+02 0.13005620465E+02 0.12210382375E+02 0.11942586794E+02
 0.12210382375E+02 0.13005620465E+02 0.14277471548E+02 0.15883986272E+02 0.17580443095E+02
 0.19069433666E+02 0.20086664332E+02 0.20459232621E+02 0.20086664332E+02 0.19069433666E+02
 0.17580443095E+02 0.15883986272E+02 0.14277471548E+02 0.13005620465E+02 0.12210382375E+02
 0.11942586794E+02 0.12210382375E+02 0.13005620465E+02 0.14277471548E+02 0.15883986272E+02
 0.17580443095E+02 0.19069433666E+02 0.20086664332E+02 0.14895394802E+02 0.14692338352E+02
 0.14137748726E+02 0.13375894802E+02 0.12591905089E+02 0.11958808166E+02 0.11610330362E+02
 0.11654783035E+02 0.12210382375E+02 0.13409315490E+02 0.15329042898E+02 0.17879349249E+02
 0.20749629470E+02 0.24184298862E+02 0.28706158419E+02 0.32883846156E+02 0.34600385356E+02
 0.32883846156E+02 0.28706158419E+02 0.24184298862E+02 0.20749629470E+02 0.17879349249E+02
 0.15329042898E+02 0.13409315490E+02 0.12210382375E+02 0.11654783035E+02 0.11610330362E+02
 0.11958808166E+02 0.12591905089E+02 0.13375894802E+02 0.14137748726E+02 0.14692338352E+02
 0.11325094292E+02 0.11248040038E+02 0.11044636067E+02 0.10794923672E+02 0.10611978077E+02
 0.10608520690E+02 0.10891106868E+02 0.11610330362E+02 0.13005620465E+02 0.15329042898E+02
 0.18629103832E+02 0.22747237311E+02 0.30252998189E+02 0.43551275008E+02 0.60203188778E+02
 0.74275497754E+02 0.79795222759E+02 0.74275497754E+02 0.60203188778E+02 0.43551275008E+02
 0.30252998189E+02 0.22747237311E+02 0.18629103832E+02 0.15329042898E+02 0.13005620465E+02
 0.11610330362E+02 0.10891106868E+02 0.10608520690E+02 0.10611978077E+02 0.10794923672E+02
 0.11044636067E+02 0.11248040038E+02 0.90892605406E+01 0.91069978159E+01 0.91500945279E+01
 0.92292601576E+01 0.94215836431E+01 0.98392205287E+01 0.10608520690E+02 0.11958808166E+02
 0.14277471548E+02 0.17879349249E+02 0.22747237311E+02 0.33190129824E+02 0.56011878437E+02
 0.91194620586E+02 0.13088170700E+03 0.16250320432E+03 0.17458681233E+03 0.16250320432E+03
 0.13088170700E+03 0.91194620586E+02 0.56011878437E+02 0.33190129824E+02 0.22747237311E+02
 0.17879349249E+02 0.14277471548E+02 0.11958808166E+02 0.10608520690E+02 0.98392205287E+01
 0.94215836431E+01 0.92292601576E+01 0.91500945279E+01 0.91069978159E+01 0.77855735592E+01
 0.78686548251E+01 0.80621282756E+01 0.83131341783E+01 0.87107247384E+01 0.94215836431E+01
 0.10611978077E+02 0.12591905089E+02 0.15883986272E+02 0.20749629470E+02 0.30252998189E+02
 0.56011878437E+02 0.10490651407E+03 0.17298159834E+03 0.24543985156E+03 0.30142480495E+03
 0.32253796746E+03 0.30142480495E+03 0.24543985156E+03 0.17298159834E+03 0.10490651407E+03
 0.56011878437E+02 0.30252998189E+02 0.20749629470E+02 0.15883986272E+02 0.12591905089E+02
 0.10611978077E+02 0.94215836431E+01 0.87107247384E+01 0.83131341783E+01 0.80621282756E+01
 0.78686548251E+01 0.71650510086E+01 0.72867537335E+01 0.75466255812E+01 0.78399218270E+01
 0.83131341783E+01 0.92292601576E+01 0.10794923672E+02 0.13375894802E+02 0.17580443095E+02
 0.24184298862E+02 0.43551275008E+02 0.91194620586E+02 0.17298159834E+03 0.28051873485E+03
 0.39154832455E+03 0.47606121424E+03 0.50774269105E+03 0.47606121424E+03 0.39154832455E+03
 0.28051873485E+03 0.17298159834E+03 0.91194620586E+02 0.43551275008E+02 0.24184298862E+02
 0.17580443095E+02 0.13375894802E+02 0.10794923672E+02 0.92292601576E+01 0.83131341783E+01
 0.78399218270E+01 0.75466255812E+01 0.72867537335E+01 0.67762584425E+01 0.69315857818E+01
 0.72404955238E+01 0.75466255812E+01 0.80621282756E+01 0.91500945279E+01 0.11044636067E+02
 0.14137748726E+02 0.19069433666E+02 0.28706158419E+02 0.60203188778E+02 0.13088170700E+03
 0.24543985156E+03 0.39154832455E+03 0.54019294607E+03 0.65263354800E+03 0.69469641798E+03
 0.65263354800E+03 0.54019294607E+03 0.39154832455E+03 0.24543985156E+03 0.13088170700E+03
 0.60203188778E+02 0.28706158419E+02 0.19069433666E+02 0.14137748726E+02 0.11044636067E+02
 0.91500945279E+01 0.80621282756E+01 0.75466255812E+01 0.72404955238E+01 0.69315857818E+01
 0.63593607465E+01 0.65530109914E+01 0.69315857818E+01 0.72867537335E+01 0.78686548251E+01
 0.91069978159E+01 0.11248040038E+02 0.14692338352E+02 0.20086664332E+02 0.32883846156E+02
 0.74275497754E+02 0.16250320432E+03 0.30142480495E+03 0.47606121424E+03 0.65263354800E+03
 0.78593235070E+03 0.83577852221E+03 0.78593235070E+03 0.65263354800E+03 0.47606121424E+03
 0.30142480495E+03 0.16250320432E+03 0.74275497754E+02 0.32883846156E+02 0.20086664332E+02
 0.14692338352E+02 0.11248040038E+02 0.91069978159E+01 0.78686548251E+01 0.72867537335E+01
 0.69315857818E+01 0.65530109914E+01 0.61466316373E+01 0.63593607465E+01 0.67762584425E+01
 0.71650510086E+01 0.77855735592E+01 0.90892605406E+01 0.11325094292E+02 0.14895394802E+02
 0.20459232621E+02 0.34600385356E+02 0.79795222759E+02 0.17458681233E+03 0.32253796746E+03
 0.50774269105E+03 0.69469641798E+03 0.83577852221E+03 0.88853575377E+03 0.83577852221E+03
 0.69469641798E+03 0.50774269105E+03 0.32253796746E+03 0.17458681233E+03 0.79795222759E+02
 0.34600385356E+02 0.20459232621E+02 0.14895394802E+02 0.11325094292E+02 0.90892605406E+01
 0.77855735592E+01 0.71650510086E+01 0.67762584425E+01 0.63593607465E+01 0.63593607465E+01
 0.65530109914E+01 0.69315857818E+01 0.72867537335E+01 0.78686548251E+01 0.91069978159E+01
 0.11248040038E+02 0.14692338352E+02 0.20086664332E+02 0.32883846156E+02 0.74275497754E+02
 0.16250320432E+03 0.30142480495E+03 0.47606121424E+03 0.65263354800E+03 0.78593235070E+03
 0.83577852221E+03 0.78593235070E+03 0.65263354800E+03 0.47606121424E+03 0.30142480495E+03
 0.16250320432E+03 0.74275497754E+02 0.32883846156E+02 0.20086664332E+02 0.14692338352E+02
 0.11248040038E+02 0.91069978159E+01 0.78686548251E+01 0.72867537335E+01 0.69315857818E+01
 0.65530109914E+01 0.67762584425E+01 0.69315857818E+01 0.72404955238E+01 0.75466255812E+01
 0.80621282756E+01 0.91500945279E+01 0.11044636067E+02 0.14137748726E+02 0.19069433666E+02
 0.28706158419E+02 0.60203188778E+02 0.13088170700E+03 0.24543985156E+03 0.39154832455E+03
 0.54019294607E+03 0.65263354800E+03 0.69469641798E+03 0.65263354800E+03 0.54019294607E+03
 0.39154832455E+03 0.24543985156E+03 0.13088170700E+03 0.60203188778E+02 0.28706158419E+02
 0.19069433666E+02 0.14137748726E+02 0.11044636067E+02 0.91500945279E+01 0.80621282756E+01
 0.75466255812E+01 0.72404955238E+01 0.69315857818E+01 0.71650510086E+01 0.72867537335E+01
 0.75466255812E+01 0.78399218270E+01 0.83131341783E+01 0.92292601576E+01 0.10794923672E+02
 0.13375894802E+02 0.17580443095E+02 0.24184298862E+02 0.43551275008E+02 0.91194620586E+02
 0.17298159834E+03 0.28051873485E+03 0.39154832455E+03 0.47606121424E+03 0.50774269105E+03
 0.47606121424E+03 0.39154832455E+03 0.28051873485E+03 0.17298159834E+03 0.91194620586E+02
 0.43551275008E+02 0.24184298862E+02 0.17580443095E+02 0.13375894802E+02 0.10794923672E+02
 0.92292601576E+01 0.83131341783E+01 0.78399218269E+01 0.75466255812E+01 0.72867537335E+01
 0.77855735592E+01 0.78686548251E+01 0.80621282756E+01 0.83131341783E+01 0.87107247384E+01
 0.94215836431E+01 0.10611978077E+02 0.12591905089E+02 0.15883986272E+02 0.20749629470E+02
 0.30252998189E+02 0.56011878437E+02 0.10490651407E+03 0.17298159834E+03 0.24543985156E+03
 0.30142480495E+03 0.32253796746E+03 0.30142480495E+03 0.24543985156E+03 0.17298159834E+03
 0.10490651407E+03 0.56011878437E+02 0.30252998189E+02 0.20749629470E+02 0.15883986272E+02
 0.12591905089E+02 0.10611978077E+02 0.94215836431E+01 0.87107247384E+01 0.83131341783E+01
 0.80621282756E+01 0.78686548251E+01 0.90892605406E+01 0.91069978159E+01 0.91500945279E+01
 0.92292601576E+01 0.94215836431E+01 0.98392205287E+01 0.10608520690E+02 0.11958808166E+02
 0.14277471548E+02 0.17879349249E+02 0.22747237311E+02 0.33190129824E+02 0.56011878437E+02
 0.91194620586E+02 0.13088170700E+03 0.16250320432E+03 0.17458681233E+03 0.16250320432E+03
 0.13088170700E+03 0.91194620586E+02 0.56011878437E+02 0.33190129824E+02 0.22747237311E+02
 0.17879349249E+02 0.14277471548E+02 0.11958808166E+02 0.10608520690E+02 0.98392205287E+01
 0.94215836431E+01 0.92292601576E+01 0.91500945279E+01 0.91069978159E+01 0.11325094292E+02
 0.11248040038E+02 0.11044636067E+02 0.10794923672E+02 0.10611978077E+02 0.10608520690E+02
 0.10891106868E+02 0.11610330362E+02 0.13005620465E+02 0.15329042898E+02 0.18629103832E+02
 0.22747237311E+02 0.30252998189E+02 0.43551275008E+02 0.60203188778E+02 0.74275497754E+02
 0.79795222759E+02 0.74275497754E+02 0.60203188778E+02 0.43551275008E+02 0.30252998189E+02
 0.22747237311E+02 0.18629103832E+02 0.15329042898E+02 0.13005620465E+02 0.11610330362E+02
 0.10891106868E+02 0.10608520690E+02 0.10611978077E+02 0.10794923672E+02 0.11044636067E+02
 0.11248040038E+02 0.14895394802E+02 0.14692338352E+02 0.14137748726E+02 0.13375894802E+02
 0.12591905089E+02 0.11958808166E+02 0.11610330362E+02 0.11654783035E+02 0.12210382375E+02
 0.13409315490E+02 0.15329042898E+02 0.17879349249E+02 0.20749629470E+02 0.24184298862E+02
 0.28706158419E+02 0.32883846156E+02 0.34600385356E+02 0.32883846156E+02 0.28706158419E+02
 0.24184298862E+02 0.20749629470E+02 0.17879349249E+02 0.15329042898E+02 0.13409315490E+02
 0.12210382375E+02 0.11654783035E+02 0.11610330362E+02 0.11958808166E+02 0.12591905089E+02
 0.13375894802E+02 0.14137748726E+02 0.14692338352E+02 0.20459232621E+02 0.20086664332E+02
 0.19069433666E+02 0.17580443095E+02 0.15883986272E+02 0.14277471548E+02 0.13005620465E+02
 0.12210382375E+02 0.11942586794E+02 0.12210382375E+02 0.13005620465E+02 0.14277471548E+02
 0.15883986272E+02 0.17580443095E+02 0.19069433666E+02 0.20086664332E+02 0.20459232621E+02
 0.20086664332E+02 0.19069433666E+02 0.17580443095E+02 0.15883986272E+02 0.14277471548E+02
 0.13005620465E+02 0.12210382375E+02 0.11942586794E+02 0.12210382375E+02 0.13005620465E+02
 0.14277471548E+02 0.15883986272E+02 0.17580443095E+02 0.19069433666E+02 0.20086664332E+02
 0.34600385356E+02 0.32883846156E+02 0.28706158419E+02 0.24184298862E+02 0.20749629470E+02
 0.17879349249E+02 0.15329042898E+02 0.13409315490E+02 0.12210382375E+02 0.11654783035E+02
 0.11610330362E+02 0.11958808166E+02 0.12591905089E+02 0.13375894802E+02 0.14137748726E+02
 0.14692338352E+02 0.14895394802E+02 0.14692338352E+02 0.14137748726E+02 0.13375894802E+02
 0.12591905089E+02 0.11958808166E+02 0.11610330362E+02 0.11654783035E+02 0.12210382375E+02
 0.13409315490E+02 0.15329042898E+02 0.17879349249E+02 0.20749629470E+02 0.24184298862E+02
 0.28706158419E+02 0.32883846156E+02 0.79795222759E+02 0.74275497754E+02 0.60203188778E+02
 0.43551275008E+02 0.30252998189E+02 0.22747237311E+02 0.18629103832E+02 0.15329042898E+02
 0.13005620465E+02 0.11610330362E+02 0.10891106868E+02 0.10608520690E+02 0.10611978077E+02
 0.10794923672E+02 0.11044636067E+02 0.11248040038E+02 0.11325094292E+02 0.11248040038E+02
 0.11044636067E+02 0.10794923672E+02 0.10611978077E+02 0.10608520690E+02 0.10891106868E+02
 0.11610330362E+02 0.13005620465E+02 0.15329042898E+02 0.18629103832E+02 0.22747237311E+02
 0.30252998189E+02 0.43551275008E+02 0.60203188778E+02 0.74275497754E+02 0.17458681233E+03
 0.16250320432E+03 0.13088170700E+03 0.91194620586E+02 0.56011878437E+02 0.33190129824E+02
 0.22747237311E+02 0.17879349249E+02 0.14277471548E+02 0.11958808166E+02 0.10608520690E+02
 0.98392205287E+01 0.94215836431E+01 0.92292601576E+01 0.91500945279E+01 0.91069978159E+01
 0.90892605406E+01 0.91069978159E+01 0.91500945279E+01 0.92292601576E+01 0.94215836431E+01
 0.98392205287E+01 0.10608520690E+02 0.11958808166E+02 0.14277471548E+02 0.17879349249E+02
 0.22747237311E+02 0.33190129824E+02 0.56011878437E+02 0.91194620586E+02 0.13088170700E+03
 0.16250320432E+03 0.32253796746E+03 0.30142480495E+03 0.24543985156E+03 0.17298159834E+03
 0.10490651407E+03 0.56011878437E+02 0.30252998189E+02 0.20749629470E+02 0.15883986272E+02
 0.12591905089E+02 0.10611978077E+02 0.94215836431E+01 0.87107247384E+01 0.83131341783E+01
 0.80621282756E+01 0.78686548251E+01 0.77855735592E+01 0.78686548251E+01 0.80621282756E+01
 0.83131341783E+01 0.87107247384E+01 0.94215836431E+01 0.10611978077E+02 0.12591905089E+02
 0.15883986272E+02 0.20749629470E+02 0.30252998189E+02 0.56011878437E+02 0.10490651407E+03
 0.17298159834E+03 0.24543985156E+03 0.30142480495E+03 0.50774269105E+03 0.47606121424E+03
 0.39154832455E+03 0.28051873485E+03 0.17298159834E+03 0.91194620586E+02 0.43551275008E+02
 0.24184298862E+02 0.17580443095E+02 0.13375894802E+02 0.10794923672E+02 0.92292601576E+01
 0.83131341783E+01 0.78399218270E+01 0.75466255812E+01 0.72867537335E+01 0.71650510086E+01
 0.72867537335E+01 0.75466255812E+01 0.78399218270E+01 0.83131341783E+01 0.92292601576E+01
 0.10794923672E+02 0.13375894802E+02 0.17580443095E+02 0.24184298862E+02 0.43551275008E+02
 0.91194620586E+02 0.17298159834E+03 0.28051873485E+03 0.39154832455E+03 0.47606121424E+03
 0.69469641798E+03 0.65263354800E+03 0.54019294607E+03 0.39154832455E+03 0.24543985156E+03
 0.13088170700E+03 0.60203188778E+02 0.28706158419E+02 0.19069433666E+02 0.14137748726E+02
 0.11044636067E+02 0.91500945279E+01 0.80621282756E+01 0.75466255812E+01 0.72404955238E+01
 0.69315857818E+01 0.67762584425E+01 0.69315857818E+01 0.72404955238E+01 0.75466255812E+01
 0.80621282756E+01 0.91500945279E+01 0.11044636067E+02 0.14137748726E+02 0.19069433666E+02
 0.28706158419E+02 0.60203188778E+02 0.13088170700E+03 0.24543985156E+03 0.39154832455E+03
 0.54019294607E+03 0.65263354800E+03 0.83577852221E+03 0.78593235070E+03 0.65263354800E+03
 0.47606121424E+03 0.30142480495E+03 0.16250320432E+03 0.74275497754E+02 0.32883846156E+02
 0.20086664332E+02 0.14692338352E+02 0.11248040038E+02 0.91069978159E+01 0.78686548251E+01
 0.72867537335E+01 0.69315857818E+01 0.65530109914E+01 0.63593607465E+01 0.65530109914E+01
 0.69315857818E+01 0.72867537335E+01 0.78686548251E+01 0.91069978159E+01 0.11248040038E+02
 0.14692338352E+02 0.20086664332E+02 0.32883846156E+02 0.74275497754E+02 0.16250320432E+03
 0.30142480495E+03 0.47606121424E+03 0.65263354800E+03 0.78593235070E+03 0.83577852221E+03
 0.78593235070E+03 0.65263354800E+03 0.47606121424E+03 0.30142480495E+03 0.16250320432E+03
 0.74275497754E+02 0.32883846156E+02 0.20086664332E+02 0.14692338352E+02 0.11248040038E+02
 0.91069978159E+01 0.78686548251E+01 0.72867537335E+01 0.69315857818E+01 0.65530109914E+01
 0.63593607465E+01 0.65530109914E+01 0.69315857818E+01 0.72867537335E+01 0.78686548251E+01
 0.91069978159E+01 0.11248040038E+02 0.14692338352E+02 0.20086664332E+02 0.32883846156E+02
 0.74275497754E+02 0.16250320432E+03 0.30142480495E+03 0.47606121424E+03 0.65263354800E+03
 0.78593235070E+03 0.78593235070E+03 0.73883729490E+03 0.61290242119E+03 0.44617029069E+03
 0.28156701875E+03 0.15121395028E+03 0.69184975939E+02 0.31335926229E+02 0.19730812661E+02
 0.14494559137E+02 0.11172130481E+02 0.91210918558E+01 0.79437872322E+01 0.73972299384E+01
 0.70725624249E+01 0.67290938740E+01 0.65530109914E+01 0.67290938740E+01 0.70725624249E+01
 0.73972299384E+01 0.79437872322E+01 0.91210918558E+01 0.11172130481E+02 0.14494559137E+02
 0.19730812661E+02 0.31335926229E+02 0.69184975939E+02 0.15121395028E+03 0.28156701875E+03
 0.44617029069E+03 0.61290242119E+03 0.73883729490E+03 0.65263354800E+03 0.61290242119E+03
 0.50672163747E+03 0.36648027280E+03 0.22896656424E+03 0.12172266023E+03 0.56243418530E+02
 0.27579381495E+02 0.18738452586E+02 0.13955254296E+02 0.10972657508E+02 0.91563482444E+01
 0.81199955717E+01 0.76338659324E+01 0.73527690365E+01 0.70725624249E+01 0.69315857818E+01
 0.70725624249E+01 0.73527690365E+01 0.76338659324E+01 0.81199955717E+01 0.91563482444E+01
 0.10972657508E+02 0.13955254296E+02 0.18738452586E+02 0.27579381495E+02 0.56243418530E+02
 0.12172266023E+03 0.22896656424E+03 0.36648027280E+03 0.50672163747E+03 0.61290242119E+03
 0.47606121424E+03 0.44617029069E+03 0.36648027280E+03 0.26195219330E+03 0.16106291181E+03
 0.84857879494E+02 0.41024804408E+02 0.23520336679E+02 0.17285086114E+02 0.13216496806E+02
 0.10729427622E+02 0.92274942988E+01 0.83533269224E+01 0.79054194581E+01 0.76338659324E+01
 0.73972299384E+01 0.72867537335E+01 0.73972299384E+01 0.76338659324E+01 0.79054194581E+01
 0.83533269224E+01 0.92274942988E+01 0.10729427622E+02 0.13216496806E+02 0.17285086114E+02
 0.23520336679E+02 0.41024804408E+02 0.84857879494E+02 0.16106291181E+03 0.26195219330E+03
 0.36648027280E+03 0.44617029069E+03 0.30142480495E+03 0.28156701875E+03 0.22896656424E+03
 0.16106291181E+03 0.97588934344E+02 0.52421916092E+02 0.28993400786E+02 0.20358202189E+02
 0.15636913019E+02 0.12458936148E+02 0.10552452084E+02 0.94098051643E+01 0.87304628229E+01
 0.83533269224E+01 0.81199955717E+01 0.79437872322E+01 0.78686548251E+01 0.79437872322E+01
 0.81199955717E+01 0.83533269224E+01 0.87304628229E+01 0.94098051643E+01 0.10552452084E+02
 0.12458936148E+02 0.15636913019E+02 0.20358202189E+02 0.28993400786E+02 0.52421916092E+02
 0.97588934344E+02 0.16106291181E+03 0.22896656424E+03 0.28156701875E+03 0.16250320432E+03
 0.15121395028E+03 0.12172266023E+03 0.84857879494E+02 0.52421916092E+02 0.31645737637E+02
 0.22231636806E+02 0.17565347360E+02 0.14083304830E+02 0.11849533709E+02 0.10549676800E+02
 0.98100411911E+01 0.94098051643E+01 0.92274942988E+01 0.91563482444E+01 0.91210918558E+01
 0.91069978159E+01 0.91210918558E+01 0.91563482444E+01 0.92274942988E+01 0.94098051643E+01
 0.98100411911E+01 0.10549676800E+02 0.11849533709E+02 0.14083304830E+02 0.17565347360E+02
 0.22231636806E+02 0.31645737637E+02 0.52421916092E+02 0.84857879494E+02 0.12172266023E+03
 0.15121395028E+03 0.74275497754E+02 0.69184975939E+02 0.56243418530E+02 0.41024804408E+02
 0.28993400786E+02 0.22231636806E+02 0.18291112136E+02 0.15096568073E+02 0.12858238265E+02
 0.11515787573E+02 0.10822817213E+02 0.10549676800E+02 0.10552452084E+02 0.10729427622E+02
 0.10972657508E+02 0.11172130481E+02 0.11248040038E+02 0.11172130481E+02 0.10972657508E+02
 0.10729427622E+02 0.10552452084E+02 0.10549676800E+02 0.10822817213E+02 0.11515787573E+02
 0.12858238265E+02 0.15096568073E+02 0.18291112136E+02 0.22231636806E+02 0.28993400786E+02
 0.41024804408E+02 0.56243418530E+02 0.69184975939E+02 0.32883846156E+02 0.31335926229E+02
 0.27579381495E+02 0.23520336679E+02 0.20358202189E+02 0.17565347360E+02 0.15096568073E+02
 0.13246933663E+02 0.12094516983E+02 0.11560047149E+02 0.11515787573E+02 0.11849533709E+02
 0.12458936148E+02 0.13216496806E+02 0.13955254296E+02 0.14494559137E+02 0.14692338352E+02
 0.14494559137E+02 0.13955254296E+02 0.13216496806E+02 0.12458936148E+02 0.11849533709E+02
 0.11515787573E+02 0.11560047149E+02 0.12094516983E+02 0.13246933663E+02 0.15096568073E+02
 0.17565347360E+02 0.20358202189E+02 0.23520336679E+02 0.27579381495E+02 0.31335926229E+02
 0.20086664332E+02 0.19730812661E+02 0.18738452586E+02 0.17285086114E+02 0.15636913019E+02
 0.14083304830E+02 0.12858238265E+02 0.12094516983E+02 0.11837744423E+02 0.12094516983E+02
 0.12858238265E+02 0.14083304830E+02 0.15636913019E+02 0.17285086114E+02 0.18738452586E+02
 0.19730812661E+02 0.20086664332E+02 0.19730812661E+02 0.18738452586E+02 0.17285086114E+02
 0.15636913019E+02 0.14083304830E+02 0.12858238265E+02 0.12094516983E+02 0.11837744423E+02
 0.12094516983E+02 0.12858238265E+02 0.14083304830E+02 0.15636913019E+02 0.17285086114E+02
 0.18738452586E+02 0.19730812661E+02 0.14692338352E+02 0.14494559137E+02 0.13955254296E+02
 0.13216496806E+02 0.12458936148E+02 0.11849533709E+02 0.11515787573E+02 0.11560047149E+02
 0.12094516983E+02 0.13246933663E+02 0.15096568073E+02 0.17565347360E+02 0.20358202189E+02
 0.23520336679E+02 0.27579381495E+02 0.31335926229E+02 0.32883846156E+02 0.31335926229E+02
 0.27579381495E+02 0.23520336679E+02 0.20358202189E+02 0.17565347360E+02 0.15096568073E+02
 0.13246933663E+02 0.12094516983E+02 0.11560047149E+02 0.11515787573E+02 0.11849533709E+02
 0.12458936148E+02 0.13216496806E+02 0.13955254296E+02 0.14494559137E+02 0.11248040038E+02
 0.11172130481E+02 0.10972657508E+02 0.10729427622E+02 0.10552452084E+02 0.10549676800E+02
 0.10822817213E+02 0.11515787573E+02 0.12858238265E+02 0.15096568073E+02 0.18291112136E+02
 0.22231636806E+02 0.28993400786E+02 0.41024804408E+02 0.56243418530E+02 0.69184975939E+02
 0.74275497754E+02 0.69184975939E+02 0.56243418530E+02 0.41024804408E+02 0.28993400786E+02
 0.22231636806E+02 0.18291112136E+02 0.15096568073E+02 0.12858238265E+02 0.11515787573E+02
 0.10822817213E+02 0.10549676800E+02 0.10552452084E+02 0.10729427622E+02 0.10972657508E+02
 0.11172130481E+02 0.91069978159E+01 0.91210918558E+01 0.91563482444E+01 0.92274942988E+01
 0.94098051643E+01 0.98100411911E+01 0.10549676800E+02 0.11849533709E+02 0.14083304830E+02
 0.17565347360E+02 0.22231636806E+02 0.31645737637E+02 0.52421916092E+02 0.84857879494E+02
 0.12172266023E+03 0.15121395028E+03 0.16250320432E+03 0.15121395028E+03 0.12172266023E+03
 0.84857879494E+02 0.52421916092E+02 0.31645737637E+02 0.22231636806E+02 0.17565347360E+02
 0.14083304830E+02 0.11849533709E+02 0.10549676800E+02 0.98100411911E+01 0.94098051643E+01
 0.92274942988E+01 0.91563482444E+01 0.91210918558E+01 0.78686548251E+01 0.79437872322E+01
 0.81199955717E+01 0.83533269224E+01 0.87304628229E+01 0.94098051643E+01 0.10552452084E+02
 0.12458936148E+02 0.15636913019E+02 0.20358202189E+02 0.28993400786E+02 0.52421916092E+02
 0.97588934344E+02 0.16106291181E+03 0.22896656424E+03 0.28156701875E+03 0.30142480495E+03
 0.28156701875E+03 0.22896656424E+03 0.16106291181E+03 0.97588934344E+02 0.52421916092E+02
 0.28993400786E+02 0.20358202189E+02 0.15636913019E+02 0.12458936148E+02 0.10552452084E+02
 0.94098051643E+01 0.87304628229E+01 0.83533269224E+01 0.81199955717E+01 0.79437872322E+01
 0.72867537335E+01 0.73972299384E+01 0.76338659324E+01 0.79054194581E+01 0.83533269224E+01
 0.92274942988E+01 0.10729427622E+02 0.13216496806E+02 0.17285086114E+02 0.23520336679E+02
 0.41024804408E+02 0.84857879494E+02 0.16106291181E+03 0.26195219330E+03 0.36648027280E+03
 0.44617029069E+03 0.47606121424E+03 0.44617029069E+03 0.36648027280E+03 0.26195219330E+03
 0.16106291181E+03 0.84857879494E+02 0.41024804408E+02 0.23520336679E+02 0.17285086114E+02
 0.13216496806E+02 0.10729427622E+02 0.92274942988E+01 0.83533269224E+01 0.79054194581E+01
 0.76338659324E+01 0.73972299384E+01 0.69315857818E+01 0.70725624249E+01 0.73527690365E+01
 0.76338659324E+01 0.81199955717E+01 0.91563482444E+01 0.10972657508E+02 0.13955254296E+02
 0.18738452586E+02 0.27579381495E+02 0.56243418530E+02 0.12172266023E+03 0.22896656424E+03
 0.36648027280E+03 0.50672163747E+03 0.61290242119E+03 0.65263354800E+03 0.61290242119E+03
 0.50672163747E+03 0.36648027280E+03 0.22896656424E+03 0.12172266023E+03 0.56243418530E+02
 0.27579381495E+02 0.18738452586E+02 0.13955254296E+02 0.10972657508E+02 0.91563482444E+01
 0.81199955717E+01 0.76338659324E+01 0.73527690365E+01 0.70725624249E+01 0.65530109914E+01
 0.67290938740E+01 0.70725624249E+01 0.73972299384E+01 0.79437872322E+01 0.91210918558E+01
 0.11172130481E+02 0.14494559137E+02 0.19730812661E+02 0.31335926229E+02 0.69184975939E+02
 0.15121395028E+03 0.28156701875E+03 0.44617029069E+03 0.61290242119E+03 0.73883729490E+03
 0.78593235070E+03 0.73883729490E+03 0.61290242119E+03 0.44617029069E+03 0.28156701875E+03
 0.15121395028E+03 0.69184975939E+02 0.31335926229E+02 0.19730812661E+02 0.14494559137E+02
 0.11172130481E+02 0.91210918558E+01 0.79437872322E+01 0.73972299384E+01 0.70725624249E+01
 0.67290938740E+01 0.63593607465E+01 0.65530109914E+01 0.69315857818E+01 0.72867537335E+01
 0.78686548251E+01 0.91069978159E+01 0.11248040038E+02 0.14692338352E+02 0.20086664332E+02
 0.32883846156E+02 0.74275497754E+02 0.16250320432E+03 0.30142480495E+03 0.47606121424E+03
 0.65263354800E+03 0.78593235070E+03 0.83577852221E+03 0.78593235070E+03 0.65263354800E+03
 0.47606121424E+03 0.30142480495E+03 0.16250320432E+03 0.74275497754E+02 0.32883846156E+02
 0.20086664332E+02 0.14692338352E+02 0.11248040038E+02 0.91069978159E+01 0.78686548251E+01
 0.72867537335E+01 0.69315857818E+01 0.65530109914E+01 0.65530109914E+01 0.67290938740E+01
 0.70725624249E+01 0.73972299384E+01 0.79437872322E+01 0.91210918558E+01 0.11172130481E+02
 0.14494559137E+02 0.19730812661E+02 0.31335926229E+02 0.69184975939E+02 0.15121395028E+03
 0.28156701875E+03 0.44617029069E+03 0.61290242119E+03 0.73883729490E+03 0.78593235070E+03
 0.73883729490E+03 0.61290242119E+03 0.44617029069E+03 0.28156701875E+03 0.15121395028E+03
 0.69184975939E+02 0.31335926229E+02 0.19730812661E+02 0.14494559137E+02 0.11172130481E+02
 0.91210918558E+01 0.79437872322E+01 0.73972299384E+01 0.70725624249E+01 0.67290938740E+01
 0.69315857818E+01 0.70725624249E+01 0.73527690365E+01 0.76338659324E+01 0.81199955717E+01
 0.91563482444E+01 0.10972657508E+02 0.13955254296E+02 0.18738452586E+02 0.27579381495E+02
 0.56243418530E+02 0.12172266023E+03 0.22896656424E+03 0.36648027280E+03 0.50672163747E+03
 0.61290242119E+03 0.65263354800E+03 0.61290242119E+03 0.50672163747E+03 0.36648027280E+03
 0.22896656424E+03 0.12172266023E+03 0.56243418530E+02 0.27579381495E+02 0.18738452586E+02