 vasp.6.2.0 18Jan21 (build Mar 17 2021 09:06:54) complex                        
  
 POSCAR found type information on POSCAR Cu
 POSCAR found :  1 types and       4 ions
 LDA part: xc-table for Pade appr. of Perdew
 POSCAR, INCAR and KPOINTS ok, starting setup
 FFT: planning ...
 WAVECAR not read
 WARNING: chargedensity file is incomplete
 entering main loop
       N       E                     dE             d eps       ncg     rms          rms(c)
DAV:   1     0.290408212971E+03    0.29041E+03   -0.14594E+04  2188   0.179E+03
DAV:   2     0.481476797334E+01   -0.28559E+03   -0.27565E+03  2100   0.337E+02
DAV:   3    -0.179044519412E+02   -0.22719E+02   -0.21733E+02  2316   0.138E+02
DAV:   4    -0.183603832604E+02   -0.45593E+00   -0.45539E+00  2432   0.264E+01
DAV:   5    -0.183657772398E+02   -0.53940E-02   -0.53938E-02  2730   0.266E+00    0.150E+01
DAV:   6    -0.164913136621E+02    0.18745E+01   -0.30597E+01  2286   0.111E+02    0.837E+00
DAV:   7    -0.149393197473E+02    0.15520E+01   -0.59894E+00  2360   0.474E+01    0.892E-01
DAV:   8    -0.149168647256E+02    0.22455E-01   -0.89224E-02  2774   0.360E+00    0.815E-01
DAV:   9    -0.149052060332E+02    0.11659E-01   -0.29079E-02  2402   0.341E+00    0.423E-02
DAV:  10    -0.149053121063E+02   -0.10607E-03   -0.93526E-04  2690   0.348E-01    0.122E-02
DAV:  11    -0.149053103993E+02    0.17070E-05   -0.16563E-05  2420   0.404E-02    0.755E-03
DAV:  12    -0.149053133143E+02   -0.29150E-05   -0.84419E-07  1426   0.168E-02    0.840E-04
DAV:  13    -0.149053136071E+02   -0.29280E-06   -0.33801E-07  1266   0.588E-03
   1 F= -.14905314E+02 E0= -.14905982E+02  d E =0.200582E-02
 writing wavefunctions
