unknown system                          
   1.00000000000000     
     2.353300    0.000000    0.000000
    -1.176650    2.038018    0.000000
     0.000000    0.000000    4.306640
   Fe
     2
Direct
  0.000000  0.000000  0.000000
  0.333333  0.666667  0.500000
 
   20   20   36
  173.64      164.35      139.42      106.07      72.324      44.240      24.835      14.240      10.203      9.0665    
  8.7026      9.0668      10.203      14.240      24.835      44.240      72.324      106.07      139.42      164.35    
  164.36      164.35      147.28      118.34      85.248      55.016      32.073      17.909      11.387      9.4026    
  8.7056      8.7050      9.4020      11.387      17.910      32.071      55.014      85.253      118.35      147.30    
  139.44      147.27      139.42      118.34      90.038      61.355      37.575      21.390      12.841      9.7362    
  8.7434      8.4031      8.7420      9.7359      12.843      21.389      37.571      61.352      90.042      118.35    
  106.06      118.29      118.29      106.07      85.248      61.355      39.629      23.509      14.065      10.091    
  8.8001      8.1924      8.1919      8.7995      10.091      14.067      23.509      39.624      61.348      85.241    
  72.310      85.160      89.925      85.172      72.324      55.015      37.575      23.509      14.544      10.336    
  8.8508      8.0725      7.8096      8.0727      8.8510      10.337      14.547      23.513      37.575      55.007    
  44.239      54.944      61.232      61.236      54.951      44.240      32.073      21.390      14.065      10.336    
  8.8713      8.0222      7.5962      7.5968      8.0225      8.8699      10.336      14.070      21.399      32.080    
  24.845      32.054      37.510      39.541      37.506      32.046      24.835      17.909      12.841      10.090    
  8.8509      8.0222      7.5291      7.3716      7.5301      8.0213      8.8468      10.086      12.843      17.917    
  14.240      17.925      21.397      23.498      23.494      21.387      17.918      14.240      11.387      9.7360    
  8.8001      8.0726      7.5961      7.3716      7.3724      7.5975      8.0721      8.7954      9.7278      11.379    
  10.191      11.405      12.883      14.116      14.594      14.112      12.883      11.413      10.203      9.4026    
  8.7433      8.1925      7.8095      7.5967      7.5302      7.5976      7.8126      8.1966      8.7432      9.3948    
  9.0663      9.4261      9.7864      10.165      10.425      10.426      10.170      9.7945      9.4332      9.0666    
  8.7055      8.4032      8.1920      8.0727      8.0226      8.0214      8.0719      8.1965      8.4124      8.7128    
  8.7133      8.7464      8.8095      8.8902      8.9614      8.9918      8.9656      8.8942      8.8085      8.7388    
  8.7026      8.7050      8.7421      8.7995      8.8509      8.8699      8.8466      8.7953      8.7434      8.7129    
  9.0660      8.7463      8.4820      8.3014      8.2057      8.1715      8.1727      8.2062      8.2967      8.4728    
  8.7393      9.0667      9.4021      9.7359      10.091      10.337      10.336      10.086      9.7279      9.3949    
  10.191      9.4260      8.8097      8.3014      7.9537      7.7653      7.7079      7.7646      7.9506      8.2972    
  8.8096      9.4338      10.203      11.387      12.843      14.067      14.547      14.070      12.843      11.379    
  14.240      11.405      9.7865      8.8902      8.2055      7.7653      7.5607      7.5599      7.7640      8.2061    
  8.8948      9.7945      11.412      14.240      17.910      21.389      23.509      23.513      21.399      17.917    
  24.846      17.925      12.883      10.165      8.9613      8.1716      7.7080      7.5599      7.7068      8.1723    
  8.9656      10.169      12.882      17.917      24.835      32.071      37.570      39.624      37.575      32.080    
  44.239      32.054      21.397      14.116      10.425      8.9919      8.1727      7.7645      7.7639      8.1724    
  8.9932      10.426      14.111      21.388      32.047      44.240      55.014      61.352      61.348      55.007    
  72.309      54.944      37.510      23.498      14.594      10.427      8.9655      8.2061      7.9506      8.2062    
  8.9656      10.426      14.591      23.494      37.510      54.953      72.324      85.253      90.043      85.241    
  106.06      85.160      61.233      39.541      23.494      14.112      10.170      8.8943      8.2968      8.2972    
  8.8948      10.169      14.111      23.494      39.545      61.240      85.167      106.07      118.35      118.35    
  139.44      118.29      89.925      61.237      37.505      21.387      12.883      9.7946      8.8086      8.4728    
  8.8095      9.7945      12.882      21.388      37.510      61.240      89.921      118.27      139.42      147.30    
  164.36      147.27      118.29      85.172      54.951      32.046      17.918      11.413      9.4332      8.7386    
  8.7392      9.4338      11.412      17.917      32.047      54.953      85.167      118.27      147.25      164.35    
  164.01      155.25      131.71      100.17      68.253      41.726      23.497      13.659      9.9765      8.9025    
  8.5489      8.9028      9.9767      13.659      23.496      41.726      68.253      100.17      131.71      155.25    
  155.26      155.25      139.13      111.77      80.468      51.883      30.267      17.036      11.040      9.2248    
  8.5466      8.5460      9.2242      11.041      17.037      30.265      51.881      80.473      111.79      139.15    
  131.72      139.12      131.71      111.77      84.997      57.865      35.429      20.261      12.355      9.5301    
  8.5795      8.2504      8.5781      9.5298      12.356      20.260      35.425      57.862      85.001      111.79    
  100.17      111.73      111.74      100.17      80.468      57.865      37.359      22.231      13.469      9.8431    
  8.6321      8.0452      8.0447      8.6316      9.8437      13.470      22.230      37.355      57.858      80.462    
  68.239      80.403      84.914      80.414      68.253      51.882      35.429      22.231      13.906      10.060    
  8.6802      7.9287      7.6763      7.9290      8.6803      10.060      13.908      22.235      35.429      51.875    
  41.725      51.837      57.785      57.788      51.844      41.726      30.267      20.261      13.468      10.060    
  8.6996      7.8800      7.4717      7.4722      7.8804      8.6984      10.059      13.473      20.270      30.273    
  23.506      30.271      35.407      37.322      35.403      30.263      23.497      17.036      12.355      9.8430    
  8.6803      7.8801      7.4074      7.2570      7.4084      7.8792      8.6765      9.8393      12.356      17.044    
  13.658      17.071      20.305      22.269      22.265      20.296      17.064      13.659      11.040      9.5300    
  8.6322      7.9288      7.4715      7.2570      7.2577      7.4728      7.9284      8.6279      9.5224      11.033    
  9.9657      11.074      12.427      13.561      14.002      13.558      12.427      11.081      9.9766      9.2247    
  8.5794      8.0453      7.6762      7.4722      7.4085      7.4729      7.6791      8.0490      8.5793      9.2175    
  8.9023      9.2609      9.6049      9.9517      10.188      10.189      9.9562      9.6124      9.2675      8.9026    
  8.5465      8.2505      8.0448      7.9289      7.8805      7.8793      7.9282      8.0489      8.2590      8.5532    
  8.5587      8.5974      8.6656      8.7498      8.8228      8.8535      8.8265      8.7535      8.6646      8.5903    
  8.5488      8.5460      8.5783      8.6315      8.6803      8.6984      8.6763      8.6278      8.5795      8.5533    
  8.9020      8.5973      8.3470      8.1772      8.0879      8.0563      8.0574      8.0884      8.1728      8.3386    
  8.5909      8.9027      9.2243      9.5299      9.8436      10.060      10.059      9.8393      9.5226      9.2176    
  9.9655      9.2608      8.6658      8.1772      7.8438      7.6633      7.6083      7.6628      7.8411      8.1733    
  8.6657      9.2680      9.9766      11.041      12.356      13.470      13.908      13.473      12.356      11.033    
  13.658      11.074      9.6051      8.7498      8.0877      7.6633      7.4663      7.4656      7.6622      8.0883    
  8.7540      9.6125      11.081      13.659      17.037      20.260      22.231      22.235      20.269      17.044    
  23.507      17.071      12.427      9.9516      8.8226      8.0564      7.6085      7.4656      7.6073      8.0570    
  8.8265      9.9555      12.426      17.064      23.497      30.265      35.425      37.354      35.429      30.273    
  41.725      30.271      20.305      13.561      10.188      8.8536      8.0575      7.6627      7.6621      8.0571    
  8.8547      10.188      13.557      20.297      30.264      41.726      51.881      57.862      57.858      51.875    
  68.239      51.837      35.407      22.270      14.002      10.189      8.8264      8.0883      7.8411      8.0884    
  8.8266      10.188      13.999      22.266      35.407      51.845      68.253      80.473      85.001      80.462    
  100.17      80.403      57.785      37.322      22.265      13.558      9.9560      8.7535      8.1729      8.1734    
  8.7540      9.9554      13.557      22.266      37.326      57.791      80.410      100.17      111.79      111.79    
  131.72      111.73      84.914      57.788      35.403      20.296      12.427      9.6125      8.6647      8.3385    
  8.6656      9.6124      12.426      20.297      35.407      57.791      84.910      111.72      131.71      139.14    
  155.26      139.12      111.74      80.414      51.844      30.263      17.064      11.081      9.2675      8.5902    
  8.5908      9.2681      11.081      17.064      30.264      51.845      80.410      111.72      139.11      155.25    
  138.27      130.88      111.02      84.337      57.328      35.029      19.988      12.172      9.3908      8.4548    
  8.1320      8.4550      9.3910      12.172      19.988      35.029      57.328      84.337      111.02      130.88    
  130.89      130.88      117.28      94.143      67.632      43.504      25.491      14.776      10.157      8.7336    
  8.1122      8.1117      8.7331      10.158      14.777      25.491      43.503      67.635      94.152      117.29    
  111.02      117.28      111.02      94.143      71.455      48.518      29.732      17.315      11.112      8.9823    
  8.1289      7.8323      8.1276      8.9819      11.113      17.315      29.729      48.515      71.458      94.151    
  84.334      94.139      94.140      84.337      67.632      48.518      31.324      18.884      11.938      9.2003    
  8.1678      7.6404      7.6400      8.1673      9.2007      11.939      18.884      31.321      48.513      67.626    
  57.318      67.627      71.454      67.635      57.328      43.504      29.732      18.884      12.266      9.3469    
  8.2064      7.5321      7.3091      7.5324      8.2065      9.3473      12.268      18.887      29.732      43.498    
  35.028      43.528      48.550      48.553      43.533      35.029      25.491      17.315      11.938      9.3469    
  8.2224      7.4867      7.1272      7.1278      7.4872      8.2215      9.3464      11.941      17.322      25.497    
  19.996      25.558      29.826      31.425      29.824      25.552      19.988      14.777      11.112      9.2002    
  8.2065      7.4868      7.0704      6.9392      7.0713      7.4863      8.2036      9.1975      11.113      14.782    
  12.172      14.864      17.463      19.059      19.055      17.456      14.858      12.172      10.157      8.9821    
  8.1679      7.5322      7.1271      6.9392      6.9397      7.1280      7.5318      8.1646      8.9763      10.152    
  9.3823      10.237      11.273      12.151      12.495      12.149      11.273      10.242      9.3909      8.7336    
  8.1288      7.6405      7.3090      7.1277      7.0714      7.1281      7.3110      7.6433      8.1287      8.7279    
  8.4546      8.8095      9.1338      9.4145      9.5966      9.5975      9.4178      9.1394      8.8146      8.4549    
  8.1120      7.8323      7.6401      7.5323      7.4873      7.4863      7.5316      7.6433      7.8390      8.1173    
  8.1397      8.1966      8.2819      8.3790      8.4591      8.4916      8.4619      8.3817      8.2810      8.1911    
  8.1320      8.1116      8.1278      8.1672      8.2065      8.2216      8.2035      8.1645      8.1289      8.1174    
  8.4543      8.1965      7.9910      7.8569      7.7906      7.7694      7.7703      7.7910      7.8535      7.9844    
  8.1915      8.4549      8.7332      8.9820      9.2005      9.3473      9.3465      9.1975      8.9765      8.7280    
  9.3821      8.8095      8.2821      7.8569      7.5711      7.4182      7.3721      7.4180      7.5692      7.8540    
  8.2820      8.8151      9.3910      10.158      11.113      11.939      12.268      11.941      11.113      10.152    
  12.172      10.237      9.1339      8.3791      7.7904      7.4182      7.2469      7.2464      7.4175      7.7909    
  8.3823      9.1396      10.242      12.172      14.777      17.315      18.884      18.887      17.322      14.782    
  19.996      14.864      11.273      9.4145      8.4590      7.7694      7.3723      7.2464      7.3712      7.7697    
  8.4619      9.4174      11.272      14.858      19.988      25.491      29.729      31.321      29.732      25.497    
  35.028      25.558      17.463      12.151      9.5967      8.4917      7.7703      7.4180      7.4174      7.7698    
  8.4925      9.5971      12.148      17.457      25.553      35.029      43.503      48.515      48.513      43.498    
  57.318      43.528      29.826      19.059      12.495      9.5975      8.4619      7.7910      7.5692      7.7910    
  8.4620      9.5971      12.493      19.056      29.826      43.534      57.328      67.635      71.458      67.626    
  84.333      67.627      48.550      31.426      19.056      12.149      9.4177      8.3818      7.8536      7.8540    
  8.3823      9.4173      12.148      19.056      31.429      48.555      67.632      84.337      94.152      94.151    
  111.02      94.139      71.454      48.553      29.824      17.456      11.273      9.1396      8.2812      7.9843    
  8.2819      9.1395      11.272      17.457      29.826      48.555      71.451      94.130      111.02      117.29    
  130.89      117.28      94.140      67.635      43.533      25.552      14.859      10.243      8.8146      8.1909    
  8.1914      8.8152      10.242      14.858      25.553      43.534      67.632      94.130      117.27      130.88    
  104.03      98.447      83.405      63.190      42.824      26.297      15.578      10.393      8.6327      7.8346    
  7.5611      7.8348      8.6328      10.393      15.578      26.297      42.824      63.190      83.405      98.447    
  98.450      98.447      88.140      70.593      50.531      32.476      19.376      12.011      9.0896      8.0407    
  7.5111      7.5107      8.0402      9.0901      12.012      19.376      32.476      50.533      70.599      88.148    
  83.410      88.160      83.405      70.593      53.400      36.167      22.365      13.651      9.6229      8.2294    
  7.4984      7.2514      7.4974      8.2290      9.6238      13.651      22.363      36.165      53.401      70.599    
  63.188      70.638      70.639      63.190      50.531      36.166      23.498      14.687      10.095      8.3697    
  7.5115      7.0739      7.0736      7.5110      8.3698      10.095      14.687      23.496      36.163      50.527    
  42.817      50.606      53.506      50.611      42.824      32.476      22.365      14.688      10.285      8.4483    
  7.5316      6.9725      6.7917      6.9728      7.5317      8.4483      10.286      14.689      22.365      32.472    
  26.297      32.591      36.346      36.348      32.594      26.297      19.376      13.651      10.095      8.4483    
  7.5408      6.9291      6.6384      6.6390      6.9297      7.5404      8.4479      10.097      13.655      19.379    
  15.583      19.526      22.615      23.783      22.613      19.523      15.578      12.011      9.6229      8.3696    
  7.5317      6.9291      6.5908      6.4857      6.5915      6.9290      7.5300      8.3680      9.6238      12.015    
  10.392      12.171      13.942      15.049      15.047      13.938      12.168      10.393      9.0896      8.2292    
  7.5115      6.9726      6.6384      6.4856      6.4859      6.6388      6.9723      7.5095      8.2256      9.0862    
  8.6270      9.2381      9.9136      10.484      10.708      10.482      9.9135      9.2418      8.6327      8.0406    
  7.4984      7.0740      6.7916      6.6389      6.5916      6.6388      6.7925      7.0756      7.4983      8.0369    
  7.8344      8.1802      8.5028      8.7510      8.8901      8.8905      8.7528      8.5062      8.1835      7.8346    
  7.5110      7.2514      7.0736      6.9727      6.9298      6.9291      6.9721      7.0756      7.2557      7.5144    
  7.5661      7.6528      7.7652      7.8826      7.9742      8.0098      7.9759      7.8841      7.7645      7.6492    
  7.5611      7.5107      7.4975      7.5110      7.5317      7.5405      7.5299      7.5094      7.4984      7.5145    
  7.8342      7.6528      7.5191      7.4433      7.4156      7.4127      7.4133      7.4160      7.4412      7.5149    
  7.6496      7.8347      8.0403      8.2290      8.3696      8.4483      8.4480      8.3680      8.2257      8.0370    
  8.6269      8.1802      7.7654      7.4433      7.2355      7.1292      7.0983      7.1294      7.2346      7.4415    
  7.7653      8.1838      8.6328      9.0902      9.6237      10.095      10.286      10.097      9.6237      9.0862    
  10.392      9.2381      8.5029      7.8827      7.4155      7.1292      7.0005      7.0003      7.1288      7.4159    
  7.8847      8.5064      9.2413      10.393      12.012      13.651      14.687      14.689      13.655      12.014    
  15.583      12.172      9.9135      8.7510      7.9741      7.4127      7.0984      7.0003      7.0975      7.4127    
  7.9759      8.7528      9.9127      12.168      15.578      19.376      22.363      23.496      22.365      19.379    
  26.297      19.526      13.942      10.484      8.8901      8.0098      7.4134      7.1293      7.1288      7.4127    
  8.0102      8.8905      10.482      13.937      19.523      26.297      32.476      36.165      36.163      32.472    
  42.817      32.591      22.615      15.049      10.709      8.8905      7.9758      7.4160      7.2346      7.4160    
  7.9759      8.8904      10.708      15.047      22.615      32.595      42.824      50.533      53.401      50.527    
  63.188      50.605      36.346      23.783      15.047      10.482      8.7527      7.8842      7.4412      7.4416    
  7.8847      8.7527      10.482      15.047      23.785      36.350      50.609      63.190      70.599      70.599    
  83.410      70.639      53.506      36.348      22.613      13.937      9.9135      8.5063      7.7646      7.5148    
  7.7652      8.5064      9.9127      13.937      22.615      36.350      53.505      70.633      83.405      88.147    
  98.450      88.161      70.639      50.611      32.594      19.523      12.169      9.2420      8.1835      7.6491    
  7.6495      8.1839      9.2414      12.168      19.523      32.595      50.609      70.633      88.153      98.447    
  69.679      65.892      55.697      42.077      28.584      18.038      11.669      8.8996      7.8158      7.1724    
  6.9598      7.1725      7.8160      8.8995      11.669      18.038      28.584      42.077      55.697      65.892    
  65.893      65.891      58.891      47.017      33.598      21.849      13.779      9.6534      8.1064      7.2870    
  6.8727      6.8724      7.2867      8.1069      9.6543      13.779      21.849      33.599      47.020      58.895    
  55.699      58.928      55.697      47.018      35.479      24.168      15.504      10.456      8.3431      7.3972    
  6.8201      6.6315      6.8193      7.3969      8.3438      10.456      15.504      24.167      35.480      47.020    
  42.076      47.110      47.110      42.077      33.598      24.168      16.170      10.982      8.5314      7.4810    
  6.7957      6.4626      6.4624      6.7953      7.4808      8.5314      10.981      16.169      24.166      33.596    
  28.581      33.749      35.689      33.752      28.584      21.849      15.504      10.982      8.6075      7.5254    
  6.7885      6.3615      6.2269      6.3618      6.7886      7.5252      8.6074      10.982      15.504      21.847    
  18.038      22.051      24.489      24.490      22.053      18.038      13.779      10.456      8.5314      7.5254    
  6.7876      6.3158      6.0988      6.0992      6.3164      6.7875      7.5251      8.5323      10.458      13.781    
  11.672      14.012      15.906      16.633      15.905      14.010      11.669      9.6535      8.3431      7.4809    
  6.7885      6.3158      6.0588      5.9800      6.0593      6.3160      6.7879      7.4803      8.3438      9.6555    
  8.8991      9.8897      10.891      11.530      11.529      10.889      9.8885      8.8995      8.1065      7.3971    
  6.7957      6.3615      6.0987      5.9800      5.9800      6.0988      6.3613      6.7948      7.3954      8.1048    
  7.8129      8.3288      8.7718      9.1054      9.2333      9.1045      8.7717      8.3308      7.8159      7.2870    
  6.8200      6.4627      6.2269      6.0992      6.0594      6.0988      6.2270      6.4633      6.8199      7.2850    
  7.1723      7.4978      7.8063      8.0474      8.1793      8.1793      8.0480      7.8078      7.4994      7.1724    
  6.8727      6.6316      6.4624      6.3617      6.3165      6.3161      6.3612      6.4633      6.6337      6.8743    
  6.9623      7.0807      7.2174      7.3500      7.4483      7.4851      7.4489      7.3504      7.2169      7.0788    
  6.9598      6.8724      6.8194      6.7953      6.7885      6.7876      6.7878      6.7948      6.8201      6.8744    
  7.1721      7.0806      7.0263      7.0110      7.0216      7.0361      7.0365      7.0220      7.0100      7.0242    
  7.0791      7.1725      7.2867      7.3969      7.4807      7.5252      7.5252      7.4803      7.3955      7.2851    
  7.8128      7.4978      7.2175      7.0110      6.8868      6.8288      6.8135      6.8293      6.8868      7.0103    
  7.2175      7.4997      7.8159      8.1070      8.3437      8.5314      8.6075      8.5324      8.3437      8.1048    
  8.8991      8.3288      7.8064      7.3500      7.0215      6.8288      6.7455      6.7455      6.8288      7.0218    
  7.3509      7.8080      8.3303      8.8996      9.6543      10.456      10.982      10.982      10.458      9.6555    
  11.672      9.8898      8.7717      8.0474      7.4482      7.0361      6.8136      6.7455      6.8129      7.0358    
  7.4489      8.0482      8.7711      9.8876      11.669      13.779      15.504      16.169      15.504      13.781    
  18.038      14.012      10.891      9.1054      8.1793      7.4852      7.0366      6.8292      6.8288      7.0359    
  7.4851      8.1796      9.1045      10.889      14.010      18.038      21.849      24.167      24.166      21.847    
  28.581      22.051      15.906      11.530      9.2334      8.1793      7.4489      7.0219      6.8867      7.0219    
  7.4489      8.1795      9.2333      11.529      15.906      22.053      28.584      33.599      35.480      33.596    
  42.076      33.749      24.489      16.633      11.529      9.1045      8.0479      7.3505      7.0101      7.0103    
  7.3509      8.0481      9.1045      11.529      16.634      24.491      33.751      42.077      47.020      47.020    
  55.699      47.110      35.689      24.490      15.905      10.889      8.7717      7.8079      7.2169      7.0241    
  7.2174      7.8080      8.7712      10.889      15.906      24.491      35.689      47.107      55.697      58.895    
  65.893      58.928      47.110      33.752      22.052      14.010      9.8886      8.3309      7.4994      7.0787    
  7.0790      7.4997      8.3304      9.8876      14.010      22.053      33.751      47.107      58.924      65.891    
  41.400      39.135      33.086      25.155      17.595      12.087      9.1119      7.8445      7.0486      6.5758    
  6.4247      6.5759      7.0487      7.8445      9.1117      12.087      17.595      25.155      33.086      39.135    
  39.136      39.135      34.959      27.970      20.297      13.935      9.9568      8.1322      7.2156      6.5978    
  6.3018      6.3016      6.5976      7.2159      8.1330      9.9574      13.935      20.297      27.971      34.960    
  33.086      35.008      33.086      27.971      21.326      15.099      10.689      8.3921      7.3419      6.6225    
  6.2059      6.0741      6.2054      6.6222      7.3423      8.3927      10.689      15.098      21.326      27.971    
  25.155      28.097      28.097      25.156      20.297      15.099      10.980      8.5643      7.4154      6.6413    
  6.1387      5.9053      5.9052      6.1384      6.6410      7.4152      8.5639      10.980      15.098      20.296    
  17.595      20.502      21.610      20.503      17.595      13.935      10.689      8.5643      7.4388      6.6508    
  6.0995      5.7966      5.7035      5.7969      6.0996      6.6504      7.4383      8.5641      10.689      13.935    
  12.087      14.200      15.523      15.523      14.201      12.087      9.9568      8.3922      7.4154      6.6508    
  6.0867      5.7441      5.5907      5.5910      5.7446      6.0869      6.6506      7.4156      8.3930      9.9577    
  9.1125      10.252      11.203      11.575      11.203      10.251      9.1118      8.1323      7.3418      6.6412    
  6.0996      5.7441      5.5548      5.4972      5.5551      5.7444      6.0996      6.6413      7.3423      8.1331    
  7.8442      8.4289      8.9400      9.2568      9.2566      8.9397      8.4288      7.8445      7.2157      6.6224    
  6.1387      5.7967      5.5907      5.4972      5.4971      5.5906      5.7966      6.1386      6.6221      7.2151    
  7.0476      7.5002      7.8851      8.1411      8.2302      8.1407      7.8851      7.5009      7.0487      6.5978    
  6.2058      5.9054      5.7035      5.5910      5.5552      5.5906      5.7031      5.9054      6.2058      6.5971    
  6.5758      6.8703      7.1481      7.3655      7.4848      7.4847      7.3653      7.1482      6.8707      6.5759    
  6.3018      6.0741      5.9052      5.7969      5.7447      5.7444      5.7965      5.9053      6.0747      6.3023    
  6.4255      6.5683      6.7173      6.8516      6.9466      6.9810      6.9465      6.8515      6.7169      6.5677    
  6.4247      6.3016      6.2055      6.1384      6.0996      6.0869      6.0995      6.1385      6.2059      6.3023    
  6.5757      6.5682      6.5808      6.6105      6.6454      6.6691      6.6693      6.6456      6.6103      6.5802    
  6.5679      6.5759      6.5976      6.6222      6.6410      6.6504      6.6506      6.6413      6.6221      6.5972    
  7.0475      6.8702      6.7174      6.6105      6.5518      6.5283      6.5233      6.5288      6.5522      6.6104    
  6.7173      6.8708      7.0487      7.2160      7.3422      7.4152      7.4384      7.4156      7.3422      7.2151    
  7.8442      7.5002      7.1481      6.8517      6.6453      6.5283      6.4793      6.4794      6.5285      6.6455    
  6.8518      7.1484      7.5006      7.8445      8.1330      8.3927      8.5640      8.5641      8.3929      8.1330    
  9.1126      8.4290      7.8851      7.3655      6.9465      6.6691      6.5233      6.4794      6.5229      6.6688    
  6.9465      7.3656      7.8847      8.4281      9.1118      9.9574      10.689      10.980      10.689      9.9577    
  12.087      10.252      8.9399      8.1411      7.4849      6.9810      6.6694      6.5288      6.5285      6.6688    
  6.9808      7.4850      8.1409      8.9392      10.251      12.087      13.935      15.098      15.098      13.935    
  17.595      14.200      11.203      9.2568      8.2303      7.4847      6.9465      6.6456      6.5522      6.6455    
  6.9466      7.4850      8.2306      9.2569      11.203      14.201      17.595      20.297      21.326      20.296    
  25.155      20.502      15.523      11.575      9.2566      8.1407      7.3653      6.8515      6.6103      6.6104    
  6.8518      7.3655      8.1409      9.2569      11.576      15.523      20.503      25.156      27.971      27.971    
  33.086      28.097      21.610      15.523      11.203      8.9396      7.8851      7.1483      6.7170      6.5802    
  6.7173      7.1484      7.8847      8.9392      11.203      15.523      21.610      28.096      33.086      34.960    
  39.136      35.008      28.097      20.503      14.201      10.251      8.4289      7.5010      6.8707      6.5676    
  6.5678      6.8709      7.5006      8.4281      10.251      14.201      20.503      28.096      35.007      39.135    
  22.186      21.062      18.111      14.392      11.089      8.9235      7.7875      6.9958      6.4282      6.1105    
  6.0116      6.1106      6.4283      6.9958      7.7874      8.9235      11.089      14.392      18.111      21.062    
  21.062      21.062      19.001      15.647      12.163      9.5235      8.0242      7.1468      6.4764      6.0518    
  5.8566      5.8565      6.0516      6.4765      7.1473      8.0247      9.5237      12.163      15.647      19.000    
  18.110      19.054      18.111      15.647      12.585      9.9212      8.2091      7.2432      6.5088      6.0001    