unknown system                          
   1.00000000000000     
     2.353300    0.000000    0.000000
    -1.176650    2.038018    0.000000
     0.000000    0.000000    4.306640
   Fe
     2
Direct
  0.000000  0.000000  0.000000
  0.333333  0.666667  0.500000
 
   20   20   36
 0.17363927022E+03 0.16435234357E+03 0.13942492685E+03 0.10606848004E+03 0.72324316677E+02
 0.44240033159E+02 0.24834942216E+02 0.14240237939E+02 0.10202515412E+02 0.90665244217E+01
 0.87025977878E+01 0.90668196672E+01 0.10202760499E+02 0.14240169087E+02 0.24834684134E+02
 0.44239911437E+02 0.72324449250E+02 0.10606867824E+03 0.13942498777E+03 0.16435229939E+03
 0.16435948906E+03 0.16435215187E+03 0.14728166660E+03 0.11834104031E+03 0.85248214549E+02
 0.55015540001E+02 0.32073052448E+02 0.17909291684E+02 0.11386535614E+02 0.94026264926E+01
 0.87056287274E+01 0.87050387756E+01 0.94020120067E+01 0.11387178595E+02 0.17909830748E+02
 0.32071494403E+02 0.55013999007E+02 0.85252753267E+02 0.11835453726E+03 0.14729785061E+03
 0.13943566091E+03 0.14726731774E+03 0.13942497607E+03 0.11834122974E+03 0.90038341919E+02
 0.61355071148E+02 0.37574616207E+02 0.21389617200E+02 0.12841436106E+02 0.97361655807E+01
 0.87433842064E+01 0.84031374708E+01 0.87419940876E+01 0.97358619576E+01 0.12842618053E+02
 0.21389080245E+02 0.37570532635E+02 0.61351680769E+02 0.90042371130E+02 0.11835299961E+03
 0.10606399862E+03 0.11828630619E+03 0.11828792687E+03 0.10606884216E+03 0.85248150157E+02
 0.61354911789E+02 0.39628849409E+02 0.23509137913E+02 0.14065281782E+02 0.10090526149E+02
 0.88000555231E+01 0.81924135262E+01 0.81919226127E+01 0.87995002786E+01 0.10091221563E+02
 0.14066596897E+02 0.23508521305E+02 0.39624442031E+02 0.61347633071E+02 0.85240883981E+02
 0.72309554889E+02 0.85160216238E+02 0.89924982105E+02 0.85172041213E+02 0.72324336706E+02
 0.55015224022E+02 0.37574692645E+02 0.23509252789E+02 0.14544035966E+02 0.10336165779E+02
 0.88508429089E+01 0.80724706487E+01 0.78095658369E+01 0.80727429834E+01 0.88510067082E+01
 0.10336975942E+02 0.14546938021E+02 0.23513200924E+02 0.37574753854E+02 0.55006809340E+02
 0.44238530637E+02 0.54944196097E+02 0.61232383606E+02 0.61236392607E+02 0.54951309090E+02
 0.44239864727E+02 0.32073058487E+02 0.21389860290E+02 0.14065194271E+02 0.10336094621E+02
 0.88712923902E+01 0.80222029507E+01 0.75962032452E+01 0.75967812080E+01 0.80224919757E+01
 0.88698941197E+01 0.10335595142E+02 0.14069895717E+02 0.21399188362E+02 0.32080064870E+02
 0.24845357276E+02 0.32054291529E+02 0.37509775529E+02 0.39540841746E+02 0.37505597074E+02
 0.32045822627E+02 0.24834811842E+02 0.17909457611E+02 0.12841403574E+02 0.10090358879E+02
 0.88509469044E+01 0.80222446947E+01 0.75290855143E+01 0.73716281703E+01 0.75300766095E+01
 0.80212856709E+01 0.88467854896E+01 0.10086367449E+02 0.12842618053E+02 0.17917194910E+02
 0.14239546114E+02 0.17924942508E+02 0.21396918625E+02 0.23498193292E+02 0.23493513423E+02
 0.21386808534E+02 0.17917583454E+02 0.14240209646E+02 0.11386637166E+02 0.97360136235E+01
 0.88001171048E+01 0.80725811004E+01 0.75960722999E+01 0.73715941219E+01 0.73724256374E+01
 0.75975390357E+01 0.80721200113E+01 0.87954436316E+01 0.97277576119E+01 0.11379365956E+02
 0.10190929809E+02 0.11404965011E+02 0.12883257943E+02 0.14115766551E+02 0.14593586991E+02
 0.14112485418E+02 0.12883203301E+02 0.11412629807E+02 0.10202643434E+02 0.94025947523E+01
 0.87433062413E+01 0.81925398785E+01 0.78094701386E+01 0.75966952721E+01 0.75302430628E+01
 0.75975840450E+01 0.78126295070E+01 0.81966022318E+01 0.87431516361E+01 0.93948223395E+01
 0.90662659139E+01 0.94261180171E+01 0.97863510897E+01 0.10165081760E+02 0.10425043639E+02
 0.10426473694E+02 0.10170028491E+02 0.97944792843E+01 0.94332015608E+01 0.90666326409E+01
 0.87054933878E+01 0.84031963901E+01 0.81919861252E+01 0.80726503192E+01 0.80226239531E+01
 0.80213759042E+01 0.80719168954E+01 0.81965393920E+01 0.84124185419E+01 0.87127821962E+01
 0.87132709300E+01 0.87463709000E+01 0.88095128571E+01 0.88901574493E+01 0.89614222597E+01
 0.89918417938E+01 0.89655720335E+01 0.88942238404E+01 0.88085123114E+01 0.87387807607E+01
 0.87025599982E+01 0.87049771178E+01 0.87421486927E+01 0.87994566493E+01 0.88509469044E+01
 0.88699490737E+01 0.88466216902E+01 0.87953384206E+01 0.87433842064E+01 0.87128558780E+01
 0.90660197012E+01 0.87463032999E+01 0.84819527789E+01 0.83013938860E+01 0.82057165920E+01
 0.81715266795E+01 0.81726511527E+01 0.82061900453E+01 0.82966810982E+01 0.84728314447E+01
 0.87393229646E+01 0.90666816738E+01 0.94020900318E+01 0.97358953719E+01 0.10091038095E+02
 0.10336970700E+02 0.10335661059E+02 0.10086351250E+02 0.97279429834E+01 0.93949321049E+01
 0.10190738355E+02 0.94260285745E+01 0.88097493552E+01 0.83014353434E+01 0.79536951476E+01
 0.77652601258E+01 0.77078587961E+01 0.77645844484E+01 0.79506473391E+01 0.82971858187E+01
 0.88096162255E+01 0.94337553141E+01 0.10202697069E+02 0.11387260138E+02 0.12842507488E+02
 0.14066575071E+02 0.14547153271E+02 0.14069961401E+02 0.12842540020E+02 0.11379345947E+02
 0.14239636943E+02 0.11405014322E+02 0.97865282675E+01 0.88901975783E+01 0.82055144991E+01
 0.77652592646E+01 0.75606694015E+01 0.75599276920E+01 0.77639834526E+01 0.82060937700E+01
 0.88947873529E+01 0.97945265268E+01 0.11412028812E+02 0.14240231623E+02 0.17909884111E+02
 0.21389080486E+02 0.23508651793E+02 0.23513216537E+02 0.21398945513E+02 0.17917082347E+02
 0.24845615358E+02 0.17925069244E+02 0.12883158156E+02 0.10165012765E+02 0.89612799973E+01
 0.81715554268E+01 0.77080091868E+01 0.75598876228E+01 0.77067548821E+01 0.81723272151E+01
 0.89655720335E+01 0.10169293954E+02 0.12882045753E+02 0.17917141265E+02 0.24834811842E+02
 0.32071496904E+02 0.37570471427E+02 0.39624350573E+02 0.37574616207E+02 0.32080061332E+02
 0.44238663499E+02 0.32054271030E+02 0.21396665861E+02 0.14115665688E+02 0.10425146546E+02
 0.89919196890E+01 0.81727443047E+01 0.77644905996E+01 0.77638904650E+01 0.81723916198E+01
 0.89932489380E+01 0.10425657787E+02 0.14111115757E+02 0.21387555222E+02 0.32047366782E+02
 0.44239875866E+02 0.55013854361E+02 0.61351601831E+02 0.61347713491E+02 0.55006980673E+02
 0.72309453074E+02 0.54943975328E+02 0.37509660750E+02 0.23498251376E+02 0.14593811635E+02
 0.10426516207E+02 0.89654704581E+01 0.82061154949E+01 0.79506086008E+01 0.82062213125E+01
 0.89656127206E+01 0.10425597393E+02 0.14590554079E+02 0.23494136396E+02 0.37509787534E+02
 0.54952689890E+02 0.72324367463E+02 0.85252829776E+02 0.90042532380E+02 0.85241024882E+02
 0.10606382592E+03 0.85160048411E+02 0.61232501961E+02 0.39541073402E+02 0.23493597257E+02
 0.14112381231E+02 0.10169847667E+02 0.88942507007E+01 0.82967812252E+01 0.82972444882E+01
 0.88947740842E+01 0.10169182125E+02 0.14111112433E+02 0.23494162145E+02 0.39545321370E+02
 0.61239665925E+02 0.85167387094E+02 0.10606886766E+03 0.11835461117E+03 0.11835288410E+03
 0.13943559999E+03 0.11828645100E+03 0.89925154391E+02 0.61236543965E+02 0.37505470289E+02
 0.21386600078E+02 0.12883158156E+02 0.97946233940E+01 0.88086454411E+01 0.84727519360E+01
 0.88095128571E+01 0.97944934587E+01 0.12882100395E+02 0.21387599531E+02 0.37509775529E+02
 0.61239698929E+02 0.89920760887E+02 0.11827455113E+03 0.13942497607E+03 0.14729755239E+03
 0.16435952055E+03 0.14726767740E+03 0.11828797015E+03 0.85171879502E+02 0.54951152301E+02
 0.32045724397E+02 0.17917711489E+02 0.11412792290E+02 0.94332055471E+01 0.87386216068E+01
 0.87392314108E+01 0.94338487430E+01 0.11412141984E+02 0.17917142563E+02 0.32047289051E+02
 0.54952753869E+02 0.85167393211E+02 0.11827444960E+03 0.14725141345E+03 0.16435213918E+03
 0.16401407187E+03 0.15525061184E+03 0.13170983026E+03 0.10017316128E+03 0.68252591136E+02
 0.41726147682E+02 0.23496684026E+02 0.13658923662E+02 0.99764507085E+01 0.89025233739E+01
 0.85488799082E+01 0.89028088119E+01 0.99766873746E+01 0.13658856208E+02 0.23496432981E+02
 0.41726028232E+02 0.68252717980E+02 0.10017335248E+03 0.13170988953E+03 0.15525056960E+03
 0.15525720802E+03 0.15525042514E+03 0.13913031666E+03 0.11177473405E+03 0.80468460868E+02
 0.51882732687E+02 0.30266636239E+02 0.17036294174E+02 0.11039973480E+02 0.92247680991E+01
 0.85465900334E+01 0.85460223943E+01 0.92241761073E+01 0.11040613661E+02 0.17036910889E+02
 0.30265309374E+02 0.51881344907E+02 0.80472623787E+02 0.11178716904E+03 0.13914526288E+03
 0.13171974896E+03 0.13912072244E+03 0.13170987776E+03 0.11177491835E+03 0.84996888395E+02
 0.57865258479E+02 0.35428584950E+02 0.20260630380E+02 0.12354926844E+02 0.95301396738E+01
 0.85794816678E+01 0.82504188099E+01 0.85781362762E+01 0.95298236213E+01 0.12356071686E+02
 0.20260235608E+02 0.35424869111E+02 0.57862101703E+02 0.85000553535E+02 0.11178576183E+03
 0.10016905288E+03 0.11173387335E+03 0.11173536247E+03 0.10017351360E+03 0.80468398753E+02
 0.57865103561E+02 0.37358655075E+02 0.22231060934E+02 0.13468543489E+02 0.98431413969E+01
 0.86321237854E+01 0.80451622407E+01 0.80446922971E+01 0.86315699528E+01 0.98437348297E+01
 0.13469710766E+02 0.22230445890E+02 0.37354543587E+02 0.57858355684E+02 0.80461685765E+02
 0.68239009088E+02 0.80403163097E+02 0.84914153275E+02 0.80414060822E+02 0.68252611148E+02
 0.51882425539E+02 0.35428658828E+02 0.22231172575E+02 0.13905672056E+02 0.10059766701E+02
 0.86801603411E+01 0.79287320573E+01 0.76763298381E+01 0.79290193487E+01 0.86803192960E+01
 0.10060448219E+02 0.13908243373E+02 0.22234745498E+02 0.35428718576E+02 0.51874706491E+02
 0.41724797330E+02 0.51837207225E+02 0.57784540776E+02 0.57788249628E+02 0.51843772167E+02
 0.41725984011E+02 0.30266641785E+02 0.20260866699E+02 0.13468458960E+02 0.10059697634E+02
 0.86996175755E+01 0.78800281877E+01 0.74716606978E+01 0.74722381071E+01 0.78803792150E+01
 0.86983683059E+01 0.10059217317E+02 0.13472779472E+02 0.20269512137E+02 0.30273178691E+02
 0.23506292408E+02 0.30270937274E+02 0.35406924735E+02 0.37321811885E+02 0.35403114544E+02
 0.30263164819E+02 0.23496557419E+02 0.17036455646E+02 0.12354895616E+02 0.98429788316E+01
 0.86802607292E+01 0.78800685089E+01 0.74074149754E+01 0.72570169329E+01 0.74083728282E+01
 0.78792408225E+01 0.86764698303E+01 0.98393427127E+01 0.12356071686E+02 0.17043641814E+02
 0.13658235179E+02 0.17070759077E+02 0.20305334416E+02 0.22269471901E+02 0.22265170166E+02
 0.20296052566E+02 0.17064031813E+02 0.13658896392E+02 0.11040071973E+02 0.95299915375E+01
 0.86321829721E+01 0.79288391230E+01 0.74715339674E+01 0.72569841339E+01 0.72577304713E+01
 0.74728479801E+01 0.79283983198E+01 0.86278913742E+01 0.95223990235E+01 0.11033354217E+02
 0.99657085297E+01 0.11074010310E+02 0.12427165010E+02 0.13560881987E+02 0.14001560218E+02
 0.13557829804E+02 0.12427111612E+02 0.11081126763E+02 0.99765746223E+01 0.92247365313E+01
 0.85794058558E+01 0.80452854437E+01 0.76762374675E+01 0.74721549964E+01 0.74085343931E+01
 0.74728915997E+01 0.76790598860E+01 0.80489919046E+01 0.85792556940E+01 0.92175376919E+01
 0.89022777130E+01 0.92609194041E+01 0.96049337361E+01 0.99516860339E+01 0.10187799833E+02
 0.10189079995E+02 0.99561707540E+01 0.96123827861E+01 0.92674546570E+01 0.89026282302E+01
 0.85464589932E+01 0.82504770785E+01 0.80447543449E+01 0.79289290531E+01 0.78805070983E+01
 0.78793283846E+01 0.79282009584E+01 0.80489307493E+01 0.82589955355E+01 0.85531919085E+01
 0.85587393353E+01 0.85973666411E+01 0.86655629452E+01 0.87497658378E+01 0.88227623315E+01
 0.88534912540E+01 0.88265449398E+01 0.87534555887E+01 0.86645948438E+01 0.85903440315E+01
 0.85488436643E+01 0.85459631738E+01 0.85782864380E+01 0.86315266638E+01 0.86802607292E+01
 0.86984219530E+01 0.86763108754E+01 0.86277888986E+01 0.85794816678E+01 0.85532637281E+01
 0.89020384882E+01 0.85973006438E+01 0.83469998181E+01 0.81771821796E+01 0.80879079300E+01
 0.80563388132E+01 0.80573979949E+01 0.80883838188E+01 0.81728490850E+01 0.83385757163E+01
 0.85908641966E+01 0.89026744433E+01 0.92242516456E+01 0.95298553943E+01 0.98435562267E+01
 0.10060443650E+02 0.10059281815E+02 0.98393266751E+01 0.95225789328E+01 0.92176447980E+01
 0.99655226813E+01 0.92608319059E+01 0.86657926640E+01 0.81772228067E+01 0.78438172722E+01
 0.76633004524E+01 0.76083404103E+01 0.76627689983E+01 0.78411013432E+01 0.81733339707E+01
 0.86656634439E+01 0.92679857559E+01 0.99766254399E+01 0.11040693002E+02 0.12355964217E+02
 0.13469689862E+02 0.13908452922E+02 0.13472843097E+02 0.12355995444E+02 0.11033335064E+02
 0.13658323799E+02 0.11074057930E+02 0.96051057196E+01 0.87498054868E+01 0.80877118483E+01
 0.76632993930E+01 0.74662700068E+01 0.74656096120E+01 0.76621691351E+01 0.80882688415E+01
 0.87540201725E+01 0.96124515504E+01 0.11080526900E+02 0.13658917558E+02 0.17036963000E+02
 0.20260235660E+02 0.22230572712E+02 0.22234760678E+02 0.20269275869E+02 0.17043532453E+02
 0.23506543453E+02 0.17070882338E+02 0.12427067806E+02 0.99516193233E+01 0.88226243919E+01
 0.80563662870E+01 0.76084861232E+01 0.74655706793E+01 0.76072718103E+01 0.80570125736E+01
 0.88265449398E+01 0.99555401907E+01 0.12425992194E+02 0.17063510249E+02 0.23496557419E+02
 0.30265311419E+02 0.35424809362E+02 0.37354454932E+02 0.35428584950E+02 0.30273175190E+02
 0.41724926337E+02 0.30270917487E+02 0.20305088612E+02 0.13560783822E+02 0.10187899902E+02
 0.88535666133E+01 0.80574881679E+01 0.76626779109E+01 0.76620791071E+01 0.80570752728E+01
 0.88547478786E+01 0.10188389748E+02 0.13556608459E+02 0.20296652882E+02 0.30264478674E+02
 0.41725993568E+02 0.51881204194E+02 0.57862025299E+02 0.57858434198E+02 0.51874872926E+02
 0.68238909765E+02 0.51836992637E+02 0.35406813210E+02 0.22269528111E+02 0.14001778427E+02
 0.10189121247E+02 0.88264463355E+01 0.80883117114E+01 0.78410639287E+01 0.80883928157E+01
 0.88265842751E+01 0.10188330932E+02 0.13998857693E+02 0.22265791195E+02 0.35406936487E+02
 0.51845003069E+02 0.68252638670E+02 0.80472698360E+02 0.85000710339E+02 0.80461822452E+02
 0.10016888473E+03 0.80403000081E+02 0.57784656064E+02 0.37322037023E+02 0.22265251559E+02
 0.13557728616E+02 0.99559953393E+01 0.87534821752E+01 0.81729462552E+01 0.81733905139E+01
 0.87540071099E+01 0.99554314866E+01 0.13556605435E+02 0.22265816379E+02 0.37325995927E+02
 0.57791295278E+02 0.80409784270E+02 0.10017353665E+03 0.11178724053E+03 0.11178564901E+03
 0.13171968969E+03 0.11173401463E+03 0.84914321196E+02 0.57788396815E+02 0.35402991266E+02
 0.20295849964E+02 0.12427067806E+02 0.96125231589E+01 0.86647240639E+01 0.83384976299E+01
 0.86655629452E+01 0.96124199398E+01 0.12426045592E+02 0.20296696085E+02 0.35406924735E+02
 0.57791327177E+02 0.84910303809E+02 0.11172304556E+03 0.13170987776E+03 0.13914497238E+03
 0.15525723870E+03 0.13912107278E+03 0.11173540506E+03 0.80413903500E+02 0.51843619505E+02
 0.30263069274E+02 0.17064156006E+02 0.11081284661E+02 0.92674587734E+01 0.85901888906E+01
 0.85907750530E+01 0.92680773704E+01 0.11080637178E+02 0.17063511181E+02 0.30264402916E+02
 0.51845064994E+02 0.80409789964E+02 0.11172294687E+03 0.13910604995E+03 0.15525041359E+03
 0.13826656286E+03 0.13088452888E+03 0.11101712478E+03 0.84336774666E+02 0.57328210199E+02
 0.35029135462E+02 0.19988439431E+02 0.12172321172E+02 0.93907971279E+01 0.84547782386E+01
 0.81319834768E+01 0.84550355345E+01 0.93910092722E+01 0.12172257143E+02 0.19988208616E+02
 0.35029023864E+02 0.57328322656E+02 0.84336947162E+02 0.11101717927E+03 0.13088449165E+03
 0.13088967904E+03 0.13088435661E+03 0.11727949978E+03 0.94142582911E+02 0.67631656351E+02
 0.43504350210E+02 0.25491344924E+02 0.14776489872E+02 0.10156891829E+02 0.87336439044E+01
 0.81121576105E+01 0.81116537096E+01 0.87331161156E+01 0.10157513106E+02 0.14777282689E+02
 0.25490599911E+02 0.43503356886E+02 0.67634836373E+02 0.94152229586E+02 0.11729118820E+03
 0.11102489549E+03 0.11728270035E+03 0.11101716737E+03 0.94142752525E+02 0.71454861721E+02
 0.48518017156E+02 0.29731554379E+02 0.17315182314E+02 0.11112411474E+02 0.89822804541E+01
 0.81288591749E+01 0.78322506387E+01 0.81276456171E+01 0.89819399517E+01 0.11113446664E+02
 0.17315138750E+02 0.29728793499E+02 0.48515480350E+02 0.71457580239E+02 0.94151162504E+02
 0.84333642474E+02 0.94138871329E+02 0.94140016165E+02 0.84337098853E+02 0.67631600731E+02
 0.48517874959E+02 0.31324338405E+02 0.18884347742E+02 0.11938148727E+02 0.92003366651E+01
 0.81678275265E+01 0.76404212429E+01 0.76400110312E+01 0.81672884476E+01 0.92006742361E+01
 0.11938938335E+02 0.18883747508E+02 0.31321015499E+02 0.48512530558E+02 0.67626344288E+02
 0.57317723473E+02 0.67627001731E+02 0.71453996842E+02 0.67635463006E+02 0.57328230068E+02
 0.43504068345E+02 0.29731620860E+02 0.18884450079E+02 0.12265833057E+02 0.93469326952E+01
 0.82063786028E+01 0.75320895372E+01 0.73090763657E+01 0.75324084262E+01 0.82065236260E+01
 0.93472912657E+01 0.12267558826E+02 0.18887052196E+02 0.29731676458E+02 0.43498169489E+02
 0.35028176584E+02 0.43527957226E+02 0.48549630847E+02 0.48552547678E+02 0.43533079648E+02
 0.35028985380E+02 0.25491348994E+02 0.17315399140E+02 0.11938072803E+02 0.93468696715E+01
 0.82223883864E+01 0.74867300564E+01 0.71272193911E+01 0.71277843628E+01 0.74872229852E+01
 0.82215202893E+01 0.93464439859E+01 0.11941395743E+02 0.17322240510E+02 0.25496634588E+02
 0.19995924839E+02 0.25558171820E+02 0.29826478575E+02 0.31425488952E+02 0.29823626926E+02
 0.25552222368E+02 0.19988323586E+02 0.14776638537E+02 0.11112384075E+02 0.92001877072E+01
 0.82064686919E+01 0.74867662940E+01 0.70704343886E+01 0.69392210495E+01 0.70712934179E+01
 0.74862693918E+01 0.82036406669E+01 0.91974758618E+01 0.11113446664E+02 0.14782363772E+02
 0.12171652548E+02 0.14863560519E+02 0.17463392074E+02 0.19058769695E+02 0.19055458902E+02
 0.17456278265E+02 0.14858480986E+02 0.12172296908E+02 0.10156981621E+02 0.89821434028E+01
 0.81678798906E+01 0.75321868540E+01 0.71271047192E+01 0.69391918114E+01 0.69397193307E+01
 0.71280270478E+01 0.75318038314E+01 0.81645883546E+01 0.89762900667E+01 0.10151721114E+02
 0.93822865241E+01 0.10236813259E+02 0.11273019270E+02 0.12151249732E+02 0.12495105795E+02
 0.12148805594E+02 0.11272969507E+02 0.10242476302E+02 0.93909093096E+01 0.87336128936E+01
 0.81287895446E+01 0.76405353095E+01 0.73089934863E+01 0.71277093140E+01 0.70714409131E+01
 0.71280666709E+01 0.73109528003E+01 0.76433157190E+01 0.81286521416E+01 0.87279287183E+01
 0.84545690342E+01 0.88095397145E+01 0.91337723916E+01 0.94145239264E+01 0.95966070858E+01
 0.95975022972E+01 0.94178120341E+01 0.91394463390E+01 0.88146319021E+01 0.84548734107E+01
 0.81120388164E+01 0.78323068859E+01 0.76400688092E+01 0.75323249484E+01 0.74873391079E+01
 0.74863492769E+01 0.75316230368E+01 0.76432594304E+01 0.78389716188E+01 0.81173076073E+01
 0.81396997005E+01 0.81965919091E+01 0.82819204112E+01 0.83790162789E+01 0.84591193024E+01
 0.84916018960E+01 0.84619465179E+01 0.83817296499E+01 0.82810485220E+01 0.81910671360E+01
 0.81319515067E+01 0.81116013725E+01 0.81277830201E+01 0.81672462394E+01 0.82064686919E+01
 0.82215701630E+01 0.82034956437E+01 0.81644937823E+01 0.81288591749E+01 0.81173740643E+01
 0.84543499033E+01 0.81965305229E+01 0.79909599707E+01 0.78568772429E+01 0.77905615164E+01
 0.77693687624E+01 0.77702508047E+01 0.77910341934E+01 0.78535395295E+01 0.79843726681E+01
 0.81915245278E+01 0.84549115757E+01 0.87331845583E+01 0.89819671434E+01 0.92005097290E+01
 0.93472886160E+01 0.93465043598E+01 0.91974603127E+01 0.89764543097E+01 0.87280281716E+01
 0.93821167832E+01 0.88094577938E+01 0.82821305975E+01 0.78569154567E+01 0.75710629657E+01
 0.74182154313E+01 0.73721389687E+01 0.74180423960E+01 0.75691980641E+01 0.78539678648E+01
 0.82820126431E+01 0.88150984025E+01 0.93909517130E+01 0.10157586216E+02 0.11113348196E+02
 0.11938920083E+02 0.12267751895E+02 0.11941453415E+02 0.11113375595E+02 0.10151704431E+02
 0.12171734795E+02 0.10236856010E+02 0.91339293979E+01 0.83790545090E+01 0.77903827255E+01
 0.74182138242E+01 0.72468507401E+01 0.72463989017E+01 0.74174560192E+01 0.77908761520E+01
 0.83822869702E+01 0.91395662154E+01 0.10241889925E+02 0.12172315126E+02 0.14777331228E+02
 0.17315138237E+02 0.18883863702E+02 0.18887066053E+02 0.17322023171E+02 0.14782263646E+02
 0.19996155655E+02 0.14863673779E+02 0.11272929483E+02 0.94144637649E+01 0.84589938002E+01
 0.77693926161E+01 0.73722712566E+01 0.72463632577E+01 0.73711748476E+01 0.77697235750E+01
 0.84619465179E+01 0.94174444281E+01 0.11271962983E+02 0.14857777497E+02 0.19988323586E+02
 0.25490600608E+02 0.29728737901E+02 0.31320934823E+02 0.29731554379E+02 0.25496631216E+02
 0.35028294541E+02 0.25558154078E+02 0.17463166303E+02 0.12151159349E+02 0.95966990145E+01
 0.84916699989E+01 0.77703324318E+01 0.74179592796E+01 0.74173745101E+01 0.77697813483E+01
 0.84924718737E+01 0.95971278763E+01 0.12147964673E+02 0.17456514591E+02 0.25552956975E+02
 0.35028991738E+02 0.43503227424E+02 0.48515411193E+02 0.48512603597E+02 0.43498321891E+02
 0.57317631356E+02 0.43527760404E+02 0.29826376401E+02 0.19058820555E+02 0.12495305520E+02
 0.95975399358E+01 0.84618564192E+01 0.77909691023E+01 0.75691644678E+01 0.77909898518E+01
 0.84619819213E+01 0.95970735861E+01 0.12493249701E+02 0.19056063497E+02 0.29826489545E+02
 0.43533926927E+02 0.57328250408E+02 0.67634905419E+02 0.71457724340E+02 0.67626468953E+02
 0.84333487425E+02 0.67626852487E+02 0.48549737254E+02 0.31425695362E+02 0.19055533315E+02
 0.12148713030E+02 0.94176521110E+01 0.83817553726E+01 0.78536282163E+01 0.78540183379E+01
 0.83822744629E+01 0.94173446665E+01 0.12147962491E+02 0.19056087050E+02 0.31428882506E+02
 0.48554987638E+02 0.67632175766E+02 0.84337116301E+02 0.94152294245E+02 0.94151057549E+02
 0.11102484100E+03 0.94139002346E+02 0.71454152073E+02 0.48552682856E+02 0.29823513782E+02
 0.17456092539E+02 0.11272929483E+02 0.91395758636E+01 0.82811664764E+01 0.79842987929E+01
 0.82819204112E+01 0.91395387337E+01 0.11272012745E+02 0.17456554637E+02 0.29826478575E+02
 0.48555016410E+02 0.71451113883E+02 0.94130478635E+02 0.11101716737E+03 0.11729092002E+03
 0.13088970742E+03 0.11728302377E+03 0.94140056649E+02 0.67635318266E+02 0.43532938943E+02
 0.25552134618E+02 0.14858594134E+02 0.10242620926E+02 0.88146363330E+01 0.81909236483E+01
 0.81914424263E+01 0.88151847541E+01 0.10241991798E+02 0.14857777385E+02 0.25552886968E+02
 0.43533983045E+02 0.67632180271E+02 0.94130388102E+02 0.11727126733E+03 0.13088434776E+03
 0.10402743779E+03 0.98446837500E+02 0.83404828855E+02 0.63189961301E+02 0.42823942788E+02
 0.26297427237E+02 0.15578213695E+02 0.10392795420E+02 0.86326516594E+01 0.78345590021E+01
 0.75611308015E+01 0.78347744460E+01 0.86328268814E+01 0.10392735941E+02 0.15578013817E+02
 0.26297330438E+02 0.42824037909E+02 0.63190108420E+02 0.83404876040E+02 0.98446806495E+02
 0.98450146020E+02 0.98446687477E+02 0.88140041519E+02 0.70593171998E+02 0.50530628979E+02
 0.32476148252E+02 0.19375680357E+02 0.12010576175E+02 0.90895625157E+01 0.80406683971E+01
 0.75111142693E+01 0.75107059070E+01 0.80402370177E+01 0.90901276460E+01 0.12011513603E+02
 0.19375601020E+02 0.32475632266E+02 0.50532575011E+02 0.70599287360E+02 0.88147582023E+02
 0.83409859280E+02 0.88160288786E+02 0.83404864252E+02 0.70593319172E+02 0.53399554790E+02
 0.36166540786E+02 0.22364671249E+02 0.13650719530E+02 0.96229207151E+01 0.82293544756E+01
 0.74984325815E+01 0.72513868919E+01 0.74974263520E+01 0.82290055411E+01 0.96237818080E+01
 0.13651057912E+02 0.22363090097E+02 0.36164808427E+02 0.53401101375E+02 0.70598644499E+02
 0.63188055855E+02 0.70638481014E+02 0.70639193083E+02 0.63190242530E+02 0.50530583106E+02
 0.36166417919E+02 0.23498177517E+02 0.14687441577E+02 0.10094723892E+02 0.83697142413E+01
 0.75114853586E+01 0.70739073278E+01 0.70735854244E+01 0.75109949506E+01 0.83697604047E+01
 0.10095064620E+02 0.14686890713E+02 0.23495886858E+02 0.36162878606E+02 0.50527182922E+02
 0.42817369039E+02 0.50605608843E+02 0.53506358975E+02 0.50610979757E+02 0.42823962179E+02
 0.32475904768E+02 0.22364726332E+02 0.14687529675E+02 0.10285470182E+02 0.84483046031E+01
 0.75316000405E+01 0.69724706028E+01 0.67916671335E+01 0.69728075274E+01 0.75317237715E+01
 0.84482962339E+01 0.10286190141E+02 0.14688943277E+02 0.22364775727E+02 0.32472292742E+02
 0.26296941210E+02 0.32590826376E+02 0.36346059718E+02 0.36347962460E+02 0.32594112180E+02
 0.26297297614E+02 0.19375682013E+02 0.13650906529E+02 0.10094661156E+02 0.84482508942E+01
 0.75408428840E+01 0.69290692113E+01 0.66384473069E+01 0.66389659920E+01 0.69296839670E+01
 0.75404301604E+01 0.84479070053E+01 0.10096727956E+02 0.13655429525E+02 0.19379329773E+02
 0.15582997058E+02 0.19526460965E+02 0.22615112768E+02 0.23783089303E+02 0.22613450926E+02
 0.19522803760E+02 0.15578114179E+02 0.12010705239E+02 0.96228993225E+01 0.83695863185E+01
 0.75316745947E+01 0.69290992438E+01 0.65908100344E+01 0.64856592698E+01 0.65915121803E+01
 0.69289825107E+01 0.75300381416E+01 0.83680200680E+01 0.96237818080E+01 0.12014540900E+02
 0.10392183736E+02 0.12171456330E+02 0.13941982063E+02 0.15048646170E+02 0.15046584732E+02
 0.13937594695E+02 0.12168431454E+02 0.10392775848E+02 0.90896393044E+01 0.82292346530E+01
 0.75115274930E+01 0.69725530004E+01 0.66383508842E+01 0.64856353771E+01 0.64858992467E+01
 0.66388030158E+01 0.69722553227E+01 0.75094945907E+01 0.82255753609E+01 0.90862359171E+01
 0.86270155398E+01 0.92380649857E+01 0.99135754035E+01 0.10483831790E+02 0.10708492518E+02
 0.10482177262E+02 0.99135313668E+01 0.92418487724E+01 0.86327461712E+01 0.80406384365E+01
 0.74983723779E+01 0.70740071847E+01 0.67915985244E+01 0.66389030889E+01 0.65916381356E+01
 0.66388365354E+01 0.67925246622E+01 0.70756379889E+01 0.74982544532E+01 0.80368974934E+01
 0.78344037560E+01 0.81802234166E+01 0.85027727994E+01 0.87510220099E+01 0.88900612041E+01
 0.88904934912E+01 0.87528418069E+01 0.85062221941E+01 0.81834786088E+01 0.78346393440E+01
 0.75110138619E+01 0.72514396056E+01 0.70736364947E+01 0.69727345151E+01 0.69297821616E+01
 0.69290506727E+01 0.69720999128E+01 0.70755892023E+01 0.72557399667E+01 0.75144161213E+01
 0.75661140420E+01 0.76528312597E+01 0.77652240495E+01 0.78826326129E+01 0.79742093052E+01
 0.80097612693E+01 0.79758514822E+01 0.78841455038E+01 0.77645055640E+01 0.76492253037E+01
 0.75611049109E+01 0.75106637367E+01 0.74975442768E+01 0.75109547235E+01 0.75316745947E+01
 0.75404742203E+01 0.75299144107E+01 0.75094122292E+01 0.74984325815E+01 0.75144743585E+01
 0.78342153344E+01 0.76527769374E+01 0.75191430468E+01 0.74432526352E+01 0.74156078510E+01
 0.74127025317E+01 0.74133440289E+01 0.74160491290E+01 0.74411709076E+01 0.75148992058E+01
 0.76495895363E+01 0.78346663662E+01 0.80402947688E+01 0.82290261161E+01 0.83696177584E+01
 0.84482964550E+01 0.84479609354E+01 0.83680053445E+01 0.82257157585E+01 0.80369852051E+01
 0.86268703863E+01 0.81801500486E+01 0.77654042969E+01 0.74432870801E+01 0.72354614730E+01
 0.71291628895E+01 0.70983216667E+01 0.71293857078E+01 0.72346157534E+01 0.74415145754E+01
 0.77653035967E+01 0.81838492988E+01 0.86327762398E+01 0.90901915090E+01 0.96236973552E+01
 0.10095050385E+02 0.10286357779E+02 0.10096776457E+02 0.96237187478E+01 0.90862229915E+01
 0.10392256191E+02 0.92381002851E+01 0.85029068271E+01 0.78826685210E+01 0.74154554715E+01
 0.71291605122E+01 0.70004834980E+01 0.70002816499E+01 0.71288464790E+01 0.74158535679E+01
 0.78846641678E+01 0.85063907329E+01 0.92413095435E+01 0.10392788824E+02 0.12011556696E+02
 0.13651056529E+02 0.14686990446E+02 0.14688954913E+02 0.13655241143E+02 0.12014454928E+02
 0.15583196936E+02 0.12171554270E+02 0.99134969599E+01 0.87509717813E+01 0.79741028253E+01
 0.74127209719E+01 0.70984335435E+01 0.70002510696E+01 0.70975236341E+01 0.74126935608E+01
 0.79758514822E+01 0.87527779173E+01 0.99127032656E+01 0.12167572449E+02 0.15578114179E+02
 0.19375599585E+02 0.22363040702E+02 0.23495818152E+02 0.22364671249E+02 0.19379326682E+02
 0.26297042351E+02 0.19526446341E+02 0.13941786978E+02 0.10483753368E+02 0.88901407319E+01
 0.80098183807E+01 0.74134126583E+01 0.71293148550E+01 0.71287780034E+01 0.74127437500E+01
 0.80101667202E+01 0.88904792952E+01 0.10481792375E+02 0.13937427376E+02 0.19522876418E+02
 0.26297301957E+02 0.32475519882E+02 0.36164750240E+02 0.36162943287E+02 0.32472423842E+02
 0.42817288071E+02 0.32590656664E+02 0.22615024897E+02 0.15048688958E+02 0.10708664078E+02
 0.88905256179E+01 0.79757743021E+01 0.74159947004E+01 0.72345880288E+01 0.74159515187E+01
 0.79758807820E+01 0.88904318941E+01 0.10707649142E+02 0.15047136936E+02 0.22615122402E+02
 0.32594501409E+02 0.42823976332E+02 0.50532635670E+02 0.53401226267E+02 0.50527289455E+02
 0.63187920924E+02 0.50605480469E+02 0.36346152370E+02 0.23783267135E+02 0.15046648581E+02
 0.10482097877E+02 0.87527053578E+01 0.78841696691E+01 0.74412467032E+01 0.74415559261E+01
 0.78846524249E+01 0.87526916968E+01 0.10481791413E+02 0.15047157998E+02 0.23785441908E+02
 0.36349613608E+02 0.50608939380E+02 0.63190254717E+02 0.70599341933E+02 0.70598551899E+02
 0.83409812096E+02 0.70638595980E+02 0.53506494431E+02 0.36348079241E+02 0.22613353420E+02
 0.13937434844E+02 0.99134969599E+01 0.85063348456E+01 0.77646062643E+01 0.75148321318E+01
 0.77652240495E+01 0.85063693567E+01 0.99127473023E+01 0.13937462611E+02 0.22615112768E+02
 0.36349637737E+02 0.53504673345E+02 0.70633173271E+02 0.83404864252E+02 0.88147348290E+02
 0.98450170823E+02 0.88160570657E+02 0.70639229904E+02 0.50610854169E+02 0.32593989987E+02
 0.19522728132E+02 0.12168527747E+02 0.92419728369E+01 0.81834833716E+01 0.76490999467E+01
 0.76495185016E+01 0.81839274296E+01 0.92413983086E+01 0.12167570802E+02 0.19522815414E+02
 0.32594548927E+02 0.50608942166E+02 0.70633095126E+02 0.88152973079E+02 0.98446681275E+02
 0.69679078638E+02 0.65891533975E+02 0.55696545963E+02 0.42076591450E+02 0.28584280372E+02
 0.18038391155E+02 0.11669342668E+02 0.88995572325E+01 0.78158306900E+01 0.71723756192E+01
 0.69598109333E+01 0.71725431400E+01 0.78159638015E+01 0.88995039266E+01 0.11669180736E+02
 0.18038315238E+02 0.28584359418E+02 0.42076711246E+02 0.55696584191E+02 0.65891508861E+02
 0.65893157610E+02 0.65891411504E+02 0.58891022373E+02 0.47017408586E+02 0.33598102811E+02
 0.21848932985E+02 0.13779030529E+02 0.96533689165E+01 0.81064367831E+01 0.72869839855E+01