   2   2   0   0
  0.1032747E+02  0.2353300E-09  0.2353300E-09  0.4306640E-09  0.5000000E-15
  1.000000000000000E-004
  CAR 
 unknown system                          
     71.69142305     -5.57547107  301      6.76759516      1.00000000
     -5.575  0.0000E+00  0.0000E+00
     -5.318  0.0000E+00  0.0000E+00
     -5.060  0.0000E+00  0.0000E+00
     -4.803  0.0000E+00  0.0000E+00
     -4.545  0.0000E+00  0.0000E+00
     -4.288  0.0000E+00  0.0000E+00
     -4.030  0.0000E+00  0.0000E+00
     -3.773 -0.2690E-33 -0.6929E-34
     -3.515 -0.1586E-24 -0.4084E-25
     -3.257 -0.3311E-17 -0.8526E-18
     -3.000 -0.2333E-11 -0.6010E-12
     -2.742 -0.5848E-07 -0.1506E-07
     -2.485 -0.4730E-04 -0.1220E-04
     -2.227 -0.4213E-03 -0.1207E-03
     -1.970  0.8945E-02  0.2183E-02
     -1.712  0.5387E-01  0.1606E-01
     -1.455  0.1077E+00  0.4379E-01
     -1.197  0.5738E-01  0.5857E-01
     -0.939  0.1511E+00  0.9748E-01
     -0.682  0.1819E+00  0.1443E+00
     -0.424  0.2011E+00  0.1961E+00
     -0.167  0.9269E-01  0.2200E+00
      0.091  0.2197E+00  0.2766E+00
      0.348  0.3071E+00  0.3557E+00
      0.606  0.3226E+00  0.4388E+00
      0.863  0.2982E+00  0.5156E+00
      1.121  0.2732E+00  0.5859E+00
      1.379  0.3307E+00  0.6711E+00
      1.636  0.7374E+00  0.8610E+00
      1.894  0.9962E+00  0.1118E+01
      2.151  0.1549E+01  0.1517E+01
      2.409  0.2033E+01  0.2040E+01
      2.666  0.2837E+01  0.2771E+01
      2.924  0.2281E+01  0.3359E+01
      3.181  0.2882E+01  0.4101E+01
      3.439  0.2565E+01  0.4762E+01
      3.697  0.3259E+01  0.5601E+01
      3.954  0.3341E+01  0.6462E+01
      4.212  0.3139E+01  0.7270E+01
      4.469  0.2447E+01  0.7900E+01
      4.727  0.2704E+01  0.8597E+01
      4.984  0.4211E+01  0.9681E+01
      5.242  0.3694E+01  0.1063E+02
      5.499  0.3727E+01  0.1159E+02
      5.757  0.3073E+01  0.1238E+02
      6.015  0.3608E+01  0.1331E+02
      6.272  0.3723E+01  0.1427E+02
      6.530  0.3590E+01  0.1520E+02
      6.787  0.3366E+01  0.1606E+02
      7.045  0.3421E+01  0.1694E+02
      7.302  0.4479E+01  0.1810E+02
      7.560  0.4856E+01  0.1935E+02
      7.817  0.4210E+01  0.2043E+02
      8.075  0.2773E+01  0.2115E+02
      8.333  0.5291E+00  0.2128E+02
      8.590  0.5401E+00  0.2142E+02
      8.848  0.4104E+00  0.2153E+02
      9.105  0.8194E+00  0.2174E+02
      9.363  0.9768E+00  0.2199E+02
      9.620  0.4216E+00  0.2210E+02
      9.878  0.3604E+00  0.2219E+02
     10.135  0.5317E+00  0.2233E+02
     10.393  0.4460E+00  0.2244E+02
     10.651  0.2853E+00  0.2252E+02
     10.908  0.6309E+00  0.2268E+02
     11.166  0.6001E+00  0.2283E+02
     11.423  0.5460E+00  0.2298E+02
     11.681  0.4494E+00  0.2309E+02
     11.938  0.3395E+00  0.2318E+02
     12.196  0.1669E+00  0.2322E+02
     12.453  0.5261E+00  0.2336E+02
     12.711  0.2512E+00  0.2342E+02
     12.969  0.4475E+00  0.2354E+02
     13.226  0.1551E+00  0.2358E+02
     13.484  0.4062E+00  0.2368E+02
     13.741  0.5165E+00  0.2381E+02
     13.999  0.7303E+00  0.2400E+02
     14.256  0.2652E+00  0.2407E+02
     14.514  0.2000E+00  0.2412E+02
     14.771  0.1654E+00  0.2417E+02
     15.029  0.7583E-01  0.2418E+02
     15.287  0.2387E+00  0.2425E+02
     15.544  0.3282E+00  0.2433E+02
     15.802  0.1793E+00  0.2438E+02
     16.059  0.2213E+00  0.2443E+02
     16.317  0.7014E+00  0.2461E+02
     16.574  0.8484E+00  0.2483E+02
     16.832  0.1080E+01  0.2511E+02
     17.089  0.6683E+00  0.2528E+02
     17.347  0.6107E+00  0.2544E+02
     17.605  0.4218E+00  0.2555E+02
     17.862  0.7978E+00  0.2575E+02
     18.120  0.6742E+00  0.2593E+02
     18.377  0.6366E+00  0.2609E+02
     18.635  0.1114E+01  0.2638E+02
     18.892  0.6204E+00  0.2654E+02
     19.150  0.6219E+00  0.2670E+02
     19.407  0.2836E+00  0.2677E+02
     19.665  0.7733E+00  0.2697E+02
     19.923  0.7619E+00  0.2717E+02
     20.180  0.7680E+00  0.2737E+02
     20.438  0.3838E+00  0.2746E+02
     20.695  0.5117E+00  0.2760E+02
     20.953  0.7119E+00  0.2778E+02
     21.210  0.4908E+00  0.2791E+02
     21.468  0.7089E+00  0.2809E+02
     21.725  0.7641E+00  0.2829E+02
     21.983  0.6261E+00  0.2845E+02
     22.241  0.6916E+00  0.2862E+02
     22.498  0.5508E+00  0.2877E+02
     22.756  0.6109E+00  0.2892E+02
     23.013  0.1053E+01  0.2920E+02
     23.271  0.1027E+01  0.2946E+02
     23.528  0.7804E+00  0.2966E+02
     23.786  0.7347E+00  0.2985E+02
     24.044  0.1078E+01  0.3013E+02
     24.301  0.9142E+00  0.3036E+02
     24.559  0.6646E+00  0.3053E+02
     24.816  0.8882E+00  0.3076E+02
     25.074  0.1143E+01  0.3106E+02
     25.331  0.7510E+00  0.3125E+02
     25.589  0.9068E+00  0.3148E+02
     25.846  0.9070E+00  0.3172E+02
     26.104  0.1363E+01  0.3207E+02
     26.362  0.1301E+01  0.3240E+02
     26.619  0.7458E+00  0.3260E+02
     26.877  0.6302E+00  0.3276E+02
     27.134  0.8239E+00  0.3297E+02
     27.392  0.7824E+00  0.3317E+02
     27.649  0.7683E+00  0.3337E+02
     27.907  0.8408E+00  0.3359E+02
     28.164  0.7526E+00  0.3378E+02
     28.422  0.7661E+00  0.3398E+02
     28.680  0.1236E+01  0.3430E+02
     28.937  0.7756E+00  0.3450E+02
     29.195  0.1165E+00  0.3453E+02
     29.452  0.7892E+00  0.3473E+02
     29.710  0.4787E+00  0.3485E+02
     29.967  0.6079E+00  0.3501E+02
     30.225  0.9043E+00  0.3524E+02
     30.482  0.7262E+00  0.3543E+02
     30.740  0.8754E+00  0.3565E+02
     30.998  0.6509E+00  0.3582E+02
     31.255  0.8915E+00  0.3605E+02
     31.513  0.7295E+00  0.3624E+02
     31.770  0.1180E+01  0.3654E+02
     32.028  0.7835E+00  0.3675E+02
     32.285  0.5713E+00  0.3689E+02
     32.543  0.8710E+00  0.3712E+02
     32.800  0.6764E+00  0.3729E+02
     33.058  0.5185E+00  0.3742E+02
     33.316  0.1105E+01  0.3771E+02
     33.573  0.1289E+01  0.3804E+02
     33.831  0.5488E+00  0.3818E+02
     34.088  0.6163E+00  0.3834E+02
     34.346  0.1135E+01  0.3863E+02
     34.603  0.1161E+01  0.3893E+02
     34.861  0.9192E+00  0.3917E+02
     35.118  0.1179E+01  0.3947E+02
     35.376  0.1243E+01  0.3979E+02
     35.634  0.8695E+00  0.4002E+02
     35.891  0.1348E+01  0.4036E+02
     36.149  0.1264E+01  0.4069E+02
     36.406  0.5687E+00  0.4084E+02
     36.664  0.9533E+00  0.4108E+02
     36.921  0.1110E+01  0.4137E+02
     37.179  0.5515E+00  0.4151E+02
     37.436  0.5524E+00  0.4165E+02
     37.694  0.8959E+00  0.4188E+02
     37.952  0.4067E+00  0.4199E+02
     38.209  0.4402E+00  0.4210E+02
     38.467  0.9398E+00  0.4234E+02
     38.724  0.1135E+01  0.4264E+02
     38.982  0.1036E+01  0.4290E+02
     39.239  0.7154E+00  0.4309E+02
     39.497  0.8028E+00  0.4329E+02
     39.754  0.7356E+00  0.4348E+02
     40.012  0.7687E+00  0.4368E+02
     40.270  0.7715E+00  0.4388E+02
     40.527  0.7083E+00  0.4406E+02
     40.785  0.1120E+01  0.4435E+02
     41.042  0.1177E+01  0.4465E+02
     41.300  0.1301E+01  0.4499E+02
     41.557  0.1065E+01  0.4526E+02
     41.815  0.8365E+00  0.4548E+02
     42.072  0.1248E+01  0.4580E+02
     42.330  0.1066E+01  0.4607E+02
     42.588  0.1071E+01  0.4635E+02
     42.845  0.1274E+01  0.4668E+02
     43.103  0.1048E+01  0.4695E+02
     43.360  0.7242E+00  0.4713E+02
     43.618  0.1139E+01  0.4743E+02
     43.875  0.1321E+01  0.4777E+02
     44.133  0.1073E+01  0.4804E+02
     44.390  0.7267E+00  0.4823E+02
     44.648  0.6718E+00  0.4840E+02
     44.906  0.9615E+00  0.4865E+02
     45.163  0.9755E+00  0.4890E+02
     45.421  0.1123E+01  0.4919E+02
     45.678  0.1367E+01  0.4954E+02
     45.936  0.7855E+00  0.4975E+02
     46.193  0.8778E+00  0.4997E+02
     46.451  0.1277E+01  0.5030E+02
     46.708  0.1245E+01  0.5062E+02
     46.966  0.5982E+00  0.5078E+02
     47.224  0.6173E+00  0.5094E+02
     47.481  0.1347E+01  0.5128E+02
     47.739  0.9064E+00  0.5152E+02
     47.996  0.9674E+00  0.5177E+02
     48.254  0.1021E+01  0.5203E+02
     48.511  0.7840E+00  0.5223E+02
     48.769  0.7613E+00  0.5243E+02
     49.026  0.1302E+01  0.5276E+02
     49.284  0.1136E+01  0.5305E+02
     49.542  0.1242E+01  0.5337E+02
     49.799  0.1649E+01  0.5380E+02
     50.057  0.1289E+01  0.5413E+02
     50.314  0.1101E+01  0.5441E+02
     50.572  0.1147E+01  0.5471E+02
     50.829  0.1127E+01  0.5500E+02
     51.087  0.1134E+01  0.5529E+02
     51.344  0.1064E+01  0.5557E+02
     51.602  0.1026E+01  0.5583E+02
     51.860  0.9395E+00  0.5607E+02
     52.117  0.8533E+00  0.5629E+02
     52.375  0.9953E+00  0.5655E+02
     52.632  0.1126E+01  0.5684E+02
     52.890  0.1246E+01  0.5716E+02
     53.147  0.1183E+01  0.5746E+02
     53.405  0.1428E+01  0.5783E+02
     53.662  0.1185E+01  0.5814E+02
     53.920  0.1387E+01  0.5849E+02
     54.178  0.1546E+01  0.5889E+02
     54.435  0.1257E+01  0.5922E+02
     54.693  0.1558E+01  0.5962E+02
     54.950  0.8718E+00  0.5984E+02
     55.208  0.1308E+01  0.6018E+02
     55.465  0.1141E+01  0.6047E+02
     55.723  0.1160E+01  0.6077E+02
     55.980  0.1489E+01  0.6116E+02
     56.238  0.1698E+01  0.6159E+02
     56.496  0.1061E+01  0.6187E+02
     56.753  0.1400E+01  0.6223E+02
     57.011  0.1456E+01  0.6260E+02
     57.268  0.1418E+01  0.6297E+02
     57.526  0.1423E+01  0.6333E+02
     57.783  0.1961E+01  0.6384E+02
     58.041  0.1430E+01  0.6421E+02
     58.298  0.1377E+01  0.6456E+02
     58.556  0.1800E+01  0.6503E+02
     58.814  0.1449E+01  0.6540E+02
     59.071  0.1711E+01  0.6584E+02
     59.329  0.1667E+01  0.6627E+02
     59.586  0.1651E+01  0.6669E+02
     59.844  0.1892E+01  0.6718E+02
     60.101  0.1798E+01  0.6764E+02
     60.359  0.1927E+01  0.6814E+02
     60.617  0.1568E+01  0.6854E+02
     60.874  0.1627E+01  0.6896E+02
     61.132  0.1641E+01  0.6939E+02
     61.389  0.1257E+01  0.6971E+02
     61.647  0.1666E+01  0.7014E+02
     61.904  0.1903E+01  0.7063E+02
     62.162  0.1472E+01  0.7101E+02
     62.419  0.1656E+01  0.7143E+02
     62.677  0.1415E+01  0.7180E+02
     62.935  0.1756E+01  0.7225E+02
     63.192  0.2080E+01  0.7279E+02
     63.450  0.1209E+01  0.7310E+02
     63.707  0.1815E+01  0.7357E+02
     63.965  0.1925E+01  0.7406E+02
     64.222  0.1876E+01  0.7454E+02
     64.480  0.1703E+01  0.7498E+02
     64.737  0.1967E+01  0.7549E+02
     64.995  0.1784E+01  0.7595E+02
     65.253  0.2227E+01  0.7652E+02
     65.510  0.1468E+01  0.7690E+02
     65.768  0.1735E+01  0.7735E+02
     66.025  0.2163E+01  0.7791E+02
     66.283  0.1296E+01  0.7824E+02
     66.540  0.1577E+01  0.7864E+02
     66.798  0.1950E+01  0.7915E+02
     67.055  0.1268E+01  0.7947E+02
     67.313  0.1188E+01  0.7978E+02
     67.571  0.4576E+00  0.7990E+02
     67.828  0.1497E+00  0.7994E+02
     68.086  0.1168E+00  0.7997E+02
     68.343  0.1358E+00  0.8000E+02
     68.601 -0.3756E-02  0.8000E+02
     68.858 -0.5521E-03  0.8000E+02
     69.116 -0.7015E-06  0.8000E+02
     69.373 -0.2823E-10  0.8000E+02
     69.631 -0.4664E-16  0.8000E+02
     69.889  0.0000E+00  0.8000E+02
     70.146  0.0000E+00  0.8000E+02
     70.404  0.0000E+00  0.8000E+02
     70.661  0.0000E+00  0.8000E+02
     70.919  0.0000E+00  0.8000E+02
     71.176  0.0000E+00  0.8000E+02
     71.434  0.0000E+00  0.8000E+02
     71.691  0.0000E+00  0.8000E+02
