    2    2    1    1
  0.1032747E+02  0.2353300E-09  0.2353300E-09  0.4306640E-09  0.5000000E-15
  1.000000000000000E-004
  CAR 
 unknown system                          
     16     96     40
 
  0.0000000E+00  0.0000000E+00  0.0000000E+00  0.7513148E-03
    1       -2.063340   1.000000
    2        1.747196   1.000000
    3        4.365135   1.000000
    4        5.223864   1.000000
    5        5.223959   1.000000
    6        5.475713   1.000000
    7        5.475828   1.000000
    8        5.679088   1.000000
    9        6.613586   0.981983
   10        6.613611   0.981947
   11        7.500764  -0.000001
   12        7.500790  -0.000001
   13       13.385318   0.000000
   14       28.850571   0.000000
   15       30.603277   0.000000
   16       33.309561   0.000000
   17       35.416421   0.000000
   18       35.956966   0.000000
   19       35.957024   0.000000
   20       36.747995   0.000000
   21       36.748152   0.000000
   22       39.301031   0.000000
   23       39.301053   0.000000
   24       40.241508   0.000000
   25       42.638320   0.000000
   26       42.638327   0.000000
   27       42.799680   0.000000
   28       46.450087   0.000000
   29       46.450462   0.000000
   30       48.258189   0.000000
   31       48.258304   0.000000
   32       50.159258   0.000000
   33       57.481127   0.000000
   34       60.976727   0.000000
   35       60.977499   0.000000
   36       61.176465   0.000000
   37       61.824924   0.000000
   38       62.636461   0.000000
   39       62.834980   0.000000
   40       62.885963   0.000000
 
  0.9090909E-01  0.2187403E-17  0.0000000E+00  0.4507889E-02
    1       -1.727408   1.000000
    2        2.009301   1.000000
    3        4.436161   1.000000
    4        4.994027   1.000000
    5        5.110701   1.000000
    6        5.352779   1.000000
    7        5.417603   1.000000
    8        5.660143   1.000000
    9        6.436364   1.020495
   10        6.507625   1.034675
   11        7.526246  -0.000001
   12        8.462860  -0.000000
   13       13.412814   0.000000
   14       29.276512   0.000000
   15       29.281671   0.000000
   16       31.763126   0.000000
   17       33.127988   0.000000
   18       35.108985   0.000000
   19       35.213025   0.000000
   20       35.429455   0.000000
   21       38.577689   0.000000
   22       38.917095   0.000000
   23       39.711164   0.000000
   24       40.314482   0.000000
   25       43.759955   0.000000
   26       43.955670   0.000000
   27       44.052427   0.000000
   28       44.397003   0.000000
   29       47.641390   0.000000
   30       49.439101   0.000000
   31       50.680431   0.000000
   32       52.335754   0.000000
   33       56.990245   0.000000
   34       58.819784   0.000000
   35       59.571896   0.000000
   36       60.136014   0.000000
   37       60.564323   0.000000
   38       62.885170   0.000000
   39       62.899355   0.000000
   40       64.006194   0.000000
 
  0.1818182E+00  0.8996804E-17  0.0000000E+00  0.4507889E-02
    1       -0.776687   1.000000
    2        2.631836   1.000000
    3        4.049408   1.000000
    4        4.408997   1.000000
    5        4.857831   1.000000
    6        5.399193   1.000000
    7        5.966180   1.000000
    8        6.018949   1.000001
    9        6.175543   1.000116
   10        6.256376   1.000898
   11        7.556545  -0.000000
   12       10.181274  -0.000000
   13       13.533637   0.000000
   14       25.439702   0.000000
   15       30.210136   0.000000
   16       30.301002   0.000000
   17       30.458182   0.000000
   18       30.896409   0.000000
   19       34.753641   0.000000
   20       36.124527   0.000000
   21       36.276085   0.000000
   22       37.549313   0.000000
   23       40.296340   0.000000
   24       40.760243   0.000000
   25       44.207062   0.000000
   26       45.385469   0.000000
   27       46.731680   0.000000
   28       48.817816   0.000000
   29       50.196066   0.000000
   30       52.807840   0.000000
   31       53.506596   0.000000
   32       55.563359   0.000000
   33       56.009217   0.000000
   34       56.142755   0.000000
   35       57.864422   0.000000
   36       59.057165   0.000000
   37       60.864243   0.000000
   38       62.769482   0.000000
   39       63.583600   0.000000
   40       65.401146   0.000000
 
  0.2727273E+00  0.4016554E-16  0.0000000E+00  0.4507889E-02
    1        0.571829   1.000000
    2        2.931240   1.000000
    3        3.315009   1.000000
    4        4.427681   1.000000
    5        4.666979   1.000000
    6        5.497445   1.000000
    7        5.968902   1.000000
    8        6.138320   1.000040
    9        6.740805   0.612240
   10        6.892068   0.070203
   11        7.558074  -0.000000
   12       12.176671  -0.000000
   13       13.813117   0.000000
   14       21.346778   0.000000
   15       26.781111   0.000000
   16       27.875166   0.000000
   17       28.529291   0.000000
   18       31.178878   0.000000
   19       33.337908   0.000000
   20       35.426652   0.000000
   21       36.582889   0.000000
   22       36.781230   0.000000
   23       37.736663   0.000000
   24       40.919964   0.000000
   25       47.929952   0.000000
   26       48.917043   0.000000
   27       50.287616   0.000000
   28       50.752576   0.000000
   29       50.784285   0.000000
   30       53.442662   0.000000
   31       54.333196   0.000000
   32       55.898170   0.000000
   33       57.098232   0.000000
   34       58.069946   0.000000
   35       59.049387   0.000000
   36       61.193033   0.000000
   37       62.500451   0.000000
   38       62.531384   0.000000
   39       64.577128   0.000000
   40       65.051347   0.000000
 
  0.3636364E+00  0.1582312E-16  0.0000000E+00  0.4507889E-02
    1        1.764704   1.000000
    2        2.657735   1.000000
    3        2.838836   1.000000
    4        4.520163   1.000000
    5        5.034747   1.000000
    6        5.203100   1.000000
    7        5.728443   1.000000
    8        7.398655  -0.000038
    9        7.522386  -0.000001
   10        7.541077  -0.000000
   11        7.612274  -0.000000
   12       13.971944   0.000000
   13       14.344257   0.000000
   14       18.221542   0.000000
   15       23.396082   0.000000
   16       25.474666   0.000000
   17       26.035332   0.000000
   18       30.653691   0.000000
   19       32.496482   0.000000
   20       35.664421   0.000000
   21       36.288191   0.000000
   22       37.157236   0.000000
   23       37.266857   0.000000
   24       40.853798   0.000000
   25       47.265341   0.000000
   26       49.423288   0.000000
   27       51.045672   0.000000
   28       54.043517   0.000000
   29       54.341169   0.000000
   30       54.423838   0.000000
   31       55.739153   0.000000
   32       58.071945   0.000000
   33       58.089139   0.000000
   34       59.729480   0.000000
   35       61.851889   0.000000
   36       62.470778   0.000000
   37       63.152004   0.000000
   38       64.097217   0.000000
   39       65.024983   0.000000
   40       66.602486   0.000000
 
  0.4545455E+00  0.3773606E-16  0.0000000E+00  0.4507889E-02
    1        2.213450   1.000000
    2        2.408750   1.000000
    3        2.610460   1.000000
    4        4.762193   1.000000
    5        5.106432   1.000000
    6        5.449723   1.000000
    7        5.593472   1.000000
    8        7.525853  -0.000001
    9        8.009540  -0.000000
   10        8.095102  -0.000000
   11        9.106787  -0.000000
   12       12.485342   0.000000
   13       16.434442   0.000000
   14       17.917305   0.000000
   15       20.713290   0.000000
   16       22.654255   0.000000
   17       25.012171   0.000000
   18       30.092626   0.000000
   19       32.234559   0.000000
   20       34.521659   0.000000
   21       36.055417   0.000000
   22       38.310031   0.000000
   23       39.783303   0.000000
   24       39.938048   0.000000
   25       43.877049   0.000000
   26       49.584017   0.000000
   27       51.566001   0.000000
   28       54.997447   0.000000
   29       57.002610   0.000000
   30       57.459297   0.000000
   31       57.959979   0.000000
   32       59.610088   0.000000
   33       60.296655   0.000000
   34       61.238051   0.000000
   35       62.455393   0.000000
   36       62.834911   0.000000
   37       65.036123   0.000000
   38       65.130400   0.000000
   39       66.280188   0.000000
   40       67.074827   0.000000
 
  0.9090909E-01  0.9090909E-01  0.0000000E+00  0.4507889E-02
    1       -1.081257   1.000000
    2        2.472104   1.000000
    3        4.296921   1.000000
    4        4.419118   1.000000
    5        5.063877   1.000000
    6        5.120040   1.000000
    7        5.819088   1.000000
    8        6.048573   1.000002
    9        6.056753   1.000003
   10        6.443813   1.022193
   11        7.512002  -0.000001
   12        9.697724  -0.000000
   13       13.490970   0.000000
   14       27.226825   0.000000
   15       28.463836   0.000000
   16       30.014334   0.000000
   17       32.310027   0.000000
   18       34.008471   0.000000
   19       34.157663   0.000000
   20       34.855983   0.000000
   21       35.293305   0.000000
   22       41.004902   0.000000
   23       41.087700   0.000000
   24       41.628794   0.000000
   25       42.801948   0.000000
   26       43.211690   0.000000
   27       43.637241   0.000000
   28       49.545526   0.000000
   29       51.179189   0.000000
   30       51.245826   0.000000
   31       51.506980   0.000000
   32       55.388870   0.000000
   33       56.320797   0.000000
   34       56.483786   0.000000
   35       57.869973   0.000000
   36       59.031519   0.000000
   37       60.563907   0.000000
   38       63.277839   0.000000
   39       63.357764   0.000000
   40       65.174707   0.000000
 
  0.1818182E+00  0.9090909E-01  0.0000000E+00  0.9015778E-02
    1        0.095204   1.000000
    2        3.069665   1.000000
    3        3.579854   1.000000
    4        4.189672   1.000000
    5        4.767035   1.000000
    6        5.486787   1.000000
    7        5.575749   1.000000
    8        6.182948   1.000143
    9        6.534231   1.034899
   10        6.793945   0.389572
   11        7.484303  -0.000002
   12       11.476703  -0.000000
   13       13.733196   0.000000
   14       23.451480   0.000000
   15       26.104328   0.000000
   16       28.707632   0.000000
   17       30.621843   0.000000
   18       31.365190   0.000000
   19       33.418024   0.000000
   20       34.169683   0.000000
   21       35.439324   0.000000
   22       39.453096   0.000000
   23       40.350848   0.000000
   24       41.673667   0.000000
   25       44.705156   0.000000
   26       45.661955   0.000000
   27       47.803875   0.000000
   28       51.084058   0.000000
   29       52.525922   0.000000
   30       53.799877   0.000000
   31       54.141417   0.000000
   32       55.986467   0.000000
   33       56.955621   0.000000
   34       57.133169   0.000000
   35       58.395033   0.000000
   36       58.909164   0.000000
   37       61.630101   0.000000
   38       63.696188   0.000000
   39       64.206928   0.000000
   40       65.750583   0.000000
 
  0.2727273E+00  0.9090909E-01  0.0000000E+00  0.9015778E-02
    1        1.463679   1.000000
    2        3.005384   1.000000
    3        3.056312   1.000000
    4        4.277792   1.000000
    5        4.861710   1.000000
    6        5.148264   1.000000
    7        5.827775   1.000000
    8        6.293520   1.002026
    9        7.308224  -0.000446
   10        7.448180  -0.000008
   11        7.747208  -0.000000
   12       13.537238   0.000000
   13       14.192574   0.000000
   14       19.645490   0.000000
   15       24.400240   0.000000
   16       25.182317   0.000000
   17       27.857766   0.000000
   18       29.711825   0.000000
   19       33.418117   0.000000
   20       34.892882   0.000000
   21       34.917016   0.000000
   22       38.659553   0.000000
   23       39.554437   0.000000
   24       42.545282   0.000000
   25       46.590684   0.000000
   26       48.887590   0.000000
   27       49.935294   0.000000
   28       49.966408   0.000000
   29       52.685227   0.000000
   30       54.545913   0.000000
   31       55.044641   0.000000
   32       57.810957   0.000000
   33       58.869165   0.000000
   34       59.336078   0.000000
   35       60.833683   0.000000
   36       62.830771   0.000000
   37       63.636837   0.000000
   38       64.252193   0.000000
   39       64.414860   0.000000
   40       65.274360   0.000000
 
  0.3636364E+00  0.9090909E-01  0.0000000E+00  0.9015778E-02
    1        2.298357   1.000000
    2        2.684719   1.000000
    3        2.756911   1.000000
    4        4.681488   1.000000
    5        4.848147   1.000000
    6        5.295672   1.000000
    7        5.543025   1.000000
    8        7.270443  -0.001086
    9        7.413497  -0.000024
   10        7.824876  -0.000000
   11        8.946366  -0.000000
   12       13.818355   0.000000
   13       15.745380   0.000000
   14       17.790252   0.000000
   15       22.104399   0.000000
   16       22.983699   0.000000
   17       24.611121   0.000000
   18       28.861373   0.000000
   19       32.537935   0.000000
   20       34.441616   0.000000
   21       36.819151   0.000000
   22       38.920214   0.000000
   23       39.751386   0.000000
   24       41.625954   0.000000
   25       45.923284   0.000000
   26       49.087454   0.000000
   27       50.187393   0.000000
   28       52.257546   0.000000
   29       54.055408   0.000000
   30       56.094469   0.000000
   31       57.745706   0.000000
   32       59.443075   0.000000
   33       60.271077   0.000000
   34       62.034483   0.000000
   35       62.279152   0.000000
   36       63.756366   0.000000
   37       63.951870   0.000000
   38       65.163571   0.000000
   39       65.424787   0.000000
   40       66.959755   0.000000
 
  0.4545455E+00  0.9090909E-01  0.0000000E+00  0.4507889E-02
    1        2.436637   1.000000
    2        2.570961   1.000000
    3        2.661659   1.000000
    4        4.739155   1.000000
    5        5.146840   1.000000
    6        5.358644   1.000000
    7        5.435008   1.000000
    8        7.399297  -0.000037
    9        7.843925  -0.000000
   10        7.873260  -0.000000
   11       10.167742  -0.000000
   12       12.267188   0.000000
   13       17.271006   0.000000
   14       18.364449   0.000000
   15       20.287807   0.000000
   16       21.801902   0.000000
   17       23.415214   0.000000
   18       28.555215   0.000000
   19       32.160776   0.000000
   20       34.284975   0.000000
   21       37.362503   0.000000
   22       39.588594   0.000000
   23       40.571118   0.000000
   24       41.038683   0.000000
   25       43.718133   0.000000
   26       50.074018   0.000000
   27       50.107874   0.000000
   28       52.495489   0.000000
   29       56.737585   0.000000
   30       57.073267   0.000000
   31       59.740745   0.000000
   32       60.470669   0.000000
   33       60.603997   0.000000
   34       60.638007   0.000000
   35       61.145010   0.000000
   36       63.741531   0.000000
   37       65.928402   0.000000
   38       65.959276   0.000000
   39       66.097725   0.000000
   40       66.713773   0.000000
 
  0.1818182E+00  0.1818182E+00  0.0000000E+00  0.4507889E-02
    1        1.373086   1.000000
    2        3.187041   1.000000
    3        3.564281   1.000000
    4        3.742822   1.000000
    5        4.821490   1.000000
    6        5.123838   1.000000
    7        5.723155   1.000000
    8        5.927181   1.000000
    9        7.277331  -0.000929
   10        7.336218  -0.000219
   11        7.821742  -0.000000
   12       13.284556   0.000000
   13       14.291969   0.000000
   14       21.472123   0.000000
   15       22.199422   0.000000
   16       26.858691   0.000000
   17       28.072446   0.000000
   18       30.229940   0.000000
   19       30.706725   0.000000
   20       34.303968   0.000000
   21       36.895623   0.000000
   22       40.756574   0.000000
   23       41.647804   0.000000
   24       43.654746   0.000000
   25       44.617390   0.000000
   26       46.421751   0.000000
   27       47.136937   0.000000
   28       50.955359   0.000000
   29       53.378480   0.000000
   30       53.541749   0.000000
   31       53.956169   0.000000
   32       58.208830   0.000000
   33       58.736289   0.000000
   34       61.502800   0.000000
   35       61.629867   0.000000
   36       61.655166   0.000000
   37       61.782601   0.000000
   38       64.547053   0.000000
   39       64.926962   0.000000
   40       65.455182   0.000000
 
  0.2727273E+00  0.1818182E+00  0.0000000E+00  0.9015778E-02
    1        2.590519   1.000000
    2        2.962722   1.000000
    3        3.248980   1.000000
    4        3.985161   1.000000
    5        4.833546   1.000000
    6        5.122103   1.000000
    7        5.513019   1.000000
    8        6.320982   1.003508
    9        7.211969  -0.003661
   10        7.733138  -0.000000
   11        9.124183  -0.000000
   12       15.100680   0.000000
   13       15.419432   0.000000
   14       18.392755   0.000000
   15       20.574321   0.000000
   16       24.065313   0.000000
   17       26.527897   0.000000
   18       26.609484   0.000000
   19       29.463655   0.000000
   20       36.605406   0.000000
   21       37.369984   0.000000
   22       40.643792   0.000000
   23       42.972542   0.000000
   24       44.587079   0.000000
   25       45.133079   0.000000
   26       47.255486   0.000000
   27       48.333041   0.000000
   28       49.088090   0.000000
   29       52.454568   0.000000
   30       53.664629   0.000000
   31       56.595507   0.000000
   32       59.751524   0.000000
   33       60.776557   0.000000
   34       62.057593   0.000000
   35       63.947289   0.000000
   36       63.992884   0.000000
   37       64.958588   0.000000
   38       65.083085   0.000000
   39       66.378923   0.000000
   40       66.578975   0.000000
 
  0.3636364E+00  0.1818182E+00  0.0000000E+00  0.9015778E-02
    1        2.879819   1.000000
    2        2.943300   1.000000
    3        3.065854   1.000000
    4        4.516883   1.000000
    5        4.751730   1.000000
    6        5.153704   1.000000
    7        5.409416   1.000000
    8        7.064288  -0.028382
    9        7.141718  -0.011868
   10        7.689628  -0.000000
   11       10.748964  -0.000000
   12       13.747817   0.000000
   13       17.637027   0.000000
   14       18.454428   0.000000
   15       19.649815   0.000000
   16       21.328043   0.000000
   17       23.588013   0.000000
   18       25.955837   0.000000
   19       28.827913   0.000000
   20       37.520932   0.000000
   21       39.029741   0.000000
   22       40.752114   0.000000
   23       41.893107   0.000000
   24       43.083394   0.000000
   25       46.518602   0.000000
   26       47.522907   0.000000
   27       48.903115   0.000000
   28       50.472176   0.000000
   29       53.815195   0.000000
   30       55.354708   0.000000
   31       56.431463   0.000000
   32       59.419161   0.000000
   33       60.189908   0.000000
   34       60.919020   0.000000
   35       64.584199   0.000000
   36       65.365382   0.000000
   37       66.028500   0.000000
   38       66.497338   0.000000
   39       66.666661   0.000000
   40       67.062296   0.000000
 
  0.2727273E+00  0.2727273E+00  0.0000000E+00  0.4507889E-02
    1        3.031362   1.000000
    2        3.379113   1.000000
    3        3.669273   1.000000
    4        3.725210   1.000000
    5        4.676699   1.000000
    6        5.074484   1.000000
    7        5.419553   1.000000
    8        6.586156   1.012623
    9        7.004735  -0.035210
   10        7.643997  -0.000000
   11       10.892470  -0.000000
   12       15.822882   0.000000
   13       16.561682   0.000000
   14       17.667720   0.000000
   15       19.088883   0.000000
   16       23.379049   0.000000
   17       23.450537   0.000000
   18       25.379420   0.000000
   19       26.184261   0.000000
   20       38.457849   0.000000
   21       39.172499   0.000000
   22       43.701135   0.000000
   23       44.374598   0.000000
   24       44.527925   0.000000
   25       44.997108   0.000000
   26       45.656216   0.000000
   27       48.092276   0.000000
   28       50.490760   0.000000
   29       50.757290   0.000000
   30       55.344228   0.000000
   31       55.765573   0.000000
   32       57.820940   0.000000
   33       60.081343   0.000000
   34       61.074616   0.000000
   35       65.100513   0.000000
   36       65.644032   0.000000
   37       65.964371   0.000000
   38       66.548999   0.000000
   39       66.747940   0.000000
   40       68.127996   0.000000
 
  0.3636364E+00  0.2727273E+00  0.0000000E+00  0.4507889E-02
    1        3.102457   1.000000
    2        3.499218   1.000000
    3        3.577374   1.000000
    4        4.073648   1.000000
    5        4.733037   1.000000
    6        4.754243   1.000000
    7        5.558554   1.000000
    8        6.924840   0.013561
    9        6.975777  -0.028868
   10        7.294337  -0.000624
   11       12.699574   0.000000
   12       13.952290   0.000000
   13       16.172799   0.000000
   14       19.643466   0.000000
   15       20.043562   0.000000
   16       21.139399   0.000000
   17       23.214056   0.000000
   18       23.599311   0.000000
   19       25.595130   0.000000
   20       38.835520   0.000000
   21       41.857013   0.000000
   22       42.299783   0.000000
   23       43.788750   0.000000
   24       43.842302   0.000000
   25       45.418079   0.000000
   26       46.746552   0.000000
   27       49.975414   0.000000
   28       50.891129   0.000000
   29       51.060679   0.000000
   30       54.416755   0.000000
   31       55.542122   0.000000
   32       56.091988   0.000000
   33       59.357612   0.000000
   34       59.880423   0.000000
   35       65.137670   0.000000
   36       66.123364   0.000000
   37       66.702522   0.000000
   38       66.862196   0.000000
   39       67.434527   0.000000
   40       68.054248   0.000000
 
  0.0000000E+00  0.0000000E+00  0.9090909E-01  0.1502630E-02
    1       -1.988984   1.000000
    2        1.705859   1.000000
    3        4.348275   1.000000
    4        5.220326   1.000000
    5        5.220421   1.000000
    6        5.463682   1.000000
    7        5.463796   1.000000
    8        5.489565   1.000000
    9        6.642309   0.931523
   10        6.642335   0.931468
   11        7.494080  -0.000002
   12        7.494107  -0.000002
   13       13.737609   0.000000
   14       28.175943   0.000000
   15       30.682846   0.000000
   16       33.164870   0.000000
   17       35.998980   0.000000
   18       36.003679   0.000000
   19       36.003730   0.000000
   20       36.765354   0.000000
   21       36.765505   0.000000
   22       39.234570   0.000000
   23       39.234582   0.000000
   24       40.472085   0.000000
   25       42.336609   0.000000
   26       42.336620   0.000000
   27       42.969619   0.000000
   28       46.688267   0.000000
   29       46.688623   0.000000
   30       48.653187   0.000000
   31       48.653293   0.000000
   32       50.016904   0.000000
   33       56.868121   0.000000
   34       60.545920   0.000000
   35       60.755737   0.000000
   36       60.756448   0.000000
   37       60.935160   0.000000
   38       60.935480   0.000000
   39       61.864242   0.000000
   40       62.514023   0.000000
 
  0.9090909E-01  0.2187403E-17  0.9090909E-01  0.9015778E-02
    1       -1.654665   1.000000
    2        1.971465   1.000000
    3        4.422456   1.000000
    4        4.865890   1.000000
    5        5.095837   1.000000
    6        5.365074   1.000000
    7        5.411464   1.000000
    8        5.646773   1.000000
    9        6.472229   1.028671
   10        6.540127   1.034136
   11        7.511800  -0.000001
   12        8.327247  -0.000000
   13       13.801177   0.000000
   14       28.533777   0.000000
   15       29.386639   0.000000
   16       31.734863   0.000000
   17       33.189597   0.000000
   18       34.559607   0.000000
   19       35.674802   0.000000
   20       35.986024   0.000000
   21       38.307978   0.000000
   22       39.009860   0.000000
   23       39.775193   0.000000
   24       40.482595   0.000000
   25       43.581186   0.000000
   26       43.596699   0.000000
   27       44.565392   0.000000
   28       44.832005   0.000000
   29       47.466739   0.000000
   30       49.670886   0.000000
   31       50.970317   0.000000
   32       52.271126   0.000000
   33       55.739422   0.000000
   34       58.883187   0.000000
   35       59.360532   0.000000
   36       59.977247   0.000000
   37       60.787500   0.000000
   38       61.740338   0.000000
   39       62.292934   0.000000
   40       63.914779   0.000000
 
  0.1818182E+00  0.8996804E-17  0.9090909E-01  0.9015778E-02
    1       -0.710618   1.000000
    2        2.604776   1.000000
    3        3.986498   1.000000
    4        4.418860   1.000000
    5        4.833490   1.000000
    6        5.349194   1.000000
    7        5.942887   1.000000
    8        6.102327   1.000013
    9        6.145703   1.000050
   10        6.325995   1.003858
   11        7.537764  -0.000000
   12        9.841617  -0.000000
   13       14.055706   0.000000
   14       25.491888   0.000000
   15       29.363237   0.000000
   16       30.265771   0.000000
   17       30.385463   0.000000
   18       31.080958   0.000000
   19       34.690527   0.000000
   20       36.531858   0.000000
   21       36.629145   0.000000
   22       37.082488   0.000000
   23       40.703561   0.000000
   24       41.174838   0.000000
   25       44.398572   0.000000
   26       45.287404   0.000000
   27       46.530852   0.000000
   28       48.802178   0.000000
   29       49.955301   0.000000
   30       52.838318   0.000000
   31       53.800926   0.000000
   32       54.413786   0.000000
   33       55.531923   0.000000
   34       57.234235   0.000000
   35       57.336904   0.000000
   36       59.305490   0.000000
   37       61.007233   0.000000
   38       62.583512   0.000000
   39       62.954563   0.000000
   40       65.538315   0.000000
 
  0.2727273E+00  0.4016554E-16  0.9090909E-01  0.9015778E-02
    1        0.618203   1.000000
    2        2.909913   1.000000
    3        3.308275   1.000000
    4        4.413753   1.000000
    5        4.654344   1.000000
    6        5.503969   1.000000
    7        5.987339   1.000000
    8        6.183042   1.000143
    9        6.747380   0.585057
   10        6.882442   0.091882
   11        7.538718  -0.000000
   12       11.466978  -0.000000
   13       14.649154   0.000000
   14       21.406774   0.000000
   15       26.393823   0.000000
   16       27.975040   0.000000
   17       28.783806   0.000000
   18       30.826417   0.000000
   19       33.159041   0.000000
   20       35.046427   0.000000
   21       35.825083   0.000000
   22       37.491510   0.000000
   23       38.722285   0.000000
   24       41.385488   0.000000
   25       48.005126   0.000000
   26       48.108853   0.000000
   27       49.440294   0.000000
   28       49.908976   0.000000
   29       52.516590   0.000000
   30       53.607119   0.000000
   31       54.594804   0.000000
   32       55.972442   0.000000
   33       56.464424   0.000000
   34       57.790467   0.000000
   35       59.575700   0.000000
   36       60.790770   0.000000
   37       62.877563   0.000000
   38       62.968052   0.000000
   39       63.588234   0.000000
   40       66.010814   0.000000
 
  0.3636364E+00  0.1582312E-16  0.9090909E-01  0.9015778E-02
    1        1.758693   1.000000
    2        2.612807   1.000000
    3        2.924441   1.000000
    4        4.315542   1.000000
    5        5.146080   1.000000
    6        5.367156   1.000000
    7        5.758716   1.000000
    8        7.364290  -0.000102
    9        7.458633  -0.000006
   10        7.532595  -0.000000
   11        7.648672  -0.000000
   12       12.825067   0.000000
   13       15.538685   0.000000
   14       18.299305   0.000000
   15       23.034342   0.000000
   16       25.869582   0.000000
   17       26.146448   0.000000
   18       30.588519   0.000000
   19       32.435271   0.000000
   20       34.530904   0.000000
   21       35.561311   0.000000
   22       37.475466   0.000000
   23       38.731451   0.000000
   24       41.245619   0.000000
   25       46.266647   0.000000
   26       50.583090   0.000000
   27       50.736221   0.000000
   28       53.365543   0.000000
   29       53.366979   0.000000
   30       55.624862   0.000000
   31       55.851686   0.000000
   32       57.823311   0.000000
   33       58.697078   0.000000
   34       59.553565   0.000000
   35       61.914921   0.000000
   36       62.934659   0.000000
   37       62.956141   0.000000
   38       63.569226   0.000000
   39       65.924190   0.000000
   40       66.582313   0.000000
 
  0.4545455E+00  0.3773606E-16  0.9090909E-01  0.9015778E-02
    1        2.152585   1.000000
    2        2.326614   1.000000
    3        2.796663   1.000000
    4        4.376433   1.000000
    5        5.302583   1.000000
    6        5.626936   1.000000
    7        5.739242   1.000000
    8        7.477703  -0.000003
    9        8.012361  -0.000000
   10        8.095156  -0.000000
   11        9.021358  -0.000000
   12       12.289116   0.000000
   13       16.362606   0.000000
   14       17.970064   0.000000
   15       20.773041   0.000000
   16       23.012927   0.000000
   17       25.128501   0.000000
   18       30.086971   0.000000
   19       32.198443   0.000000
   20       33.657125   0.000000
   21       36.967609   0.000000