       N       E                     dE             d eps       ncg     rms          rms(c)
DAV:   1     0.606547650953E+02    0.60655E+02   -0.26277E+03  9176   0.323E+02
DAV:   2    -0.145730503935E+02   -0.75228E+02   -0.64127E+02  7920   0.954E+01
DAV:   3    -0.189497279567E+02   -0.43767E+01   -0.41504E+01  9536   0.241E+01
DAV:   4    -0.189695991393E+02   -0.19871E-01   -0.19857E-01  9224   0.169E+00
DAV:   5    -0.189696262773E+02   -0.27138E-04   -0.27137E-04  9256   0.594E-02    0.168E+01
DAV:   6    -0.161734276899E+02    0.27962E+01   -0.19348E+00 11184   0.250E+01    0.269E+00
DAV:   7    -0.159621974093E+02    0.21123E+00   -0.13590E-01 10144   0.572E+00    0.111E+00
DAV:   8    -0.159350312140E+02    0.27166E-01   -0.39083E-03 10096   0.428E-01    0.491E-01
DAV:   9    -0.159251451502E+02    0.98861E-02   -0.87520E-04 11168   0.161E-01    0.568E-02
DAV:  10    -0.159251759454E+02   -0.30795E-04   -0.35185E-05  9072   0.246E-02    0.277E-02
DAV:  11    -0.159251691406E+02    0.68049E-05   -0.67098E-07  9320   0.635E-03    0.196E-03
DAV:  12    -0.159251683129E+02    0.82770E-06   -0.30250E-08  6032   0.853E-04
   1 F= -.15925168E+02 E0= -.15925940E+02  d E =0.231379E-02
