unknown system                          
           1
     2.353300    0.000000    0.000000
    -1.176650    2.038018    0.000000
     0.000000    0.000000    4.306640
   Fe
     2
Direct configuration=     1
   0.00000000  0.00000000  0.00000000
   0.33333333  0.66666667  0.50000000
