unknown system                          
   1.00000000000000     
     2.330000    0.000000    0.000000
    -1.165000    2.017839    0.000000
     0.000000    0.000000    4.100000
   Fe
     2
Direct
  0.000000  0.000000  0.000000
  0.333333  0.666667  0.500000
 
   16   16   28
  159.62      147.03      114.73      75.579      42.224      21.194      11.823      8.9445      8.0308      8.9463    
  11.824      21.194      42.222      75.578      114.73      147.03      147.08      147.02      124.63      89.349    
  54.100      28.343      14.661      9.7443      8.1214      8.1340      9.7615      14.654      28.328      54.135    
  89.461      124.77      114.81      124.67      114.72      89.353      58.773      33.041      17.272      10.597    
  8.3936      7.5748      8.4136      10.599      17.239      33.012      58.806      89.449      75.541      89.271    
  89.288      75.587      54.102      33.038      18.335      11.201      8.6757      7.3659      7.3717      8.6838    
  11.193      18.299      32.980      54.040      42.105      53.882      58.561      53.979      42.225      28.337    
  17.269      11.203      8.7952      7.3585      6.7910      7.3543      8.8069      11.230      17.271      28.271    
  21.185      28.203      32.819      32.848      28.253      21.190      14.659      10.601      8.6786      7.3579    
  6.6200      6.6068      7.3458      8.7124      10.677      14.720      11.910      14.734      17.256      18.258    
  17.219      14.665      11.825      9.7483      8.3953      7.3639      6.7889      6.6065      6.7588      7.3395    
  8.4136      9.8140      8.9348      9.8673      10.763      11.324      11.289      10.690      9.8186      8.9462    
  8.1193      7.5713      7.3705      7.3549      7.3469      7.3404      7.5166      8.0650      7.9252      8.1342    
  8.5487      8.8960      9.0091      8.8716      8.5524      8.2025      8.0271      8.1308      8.4155      8.6871    
  8.8073      8.7129      8.4138      8.0639      8.9331      8.1351      7.6709      7.5735      7.6285      7.6358    
  7.6025      7.7257      8.1912      8.9464      9.7646      10.603      11.192      11.227      10.678      9.8132    
  11.908      9.8678      8.5517      7.5733      7.0704      6.9479      7.0991      7.5957      8.5322      9.8025    
  11.825      14.655      17.237      18.293      17.272      14.723      21.185      14.731      10.766      8.8966    
  7.6246      6.9472      6.9614      7.6382      8.8627      10.687      14.668      21.189      28.328      33.010    
  32.980      28.276      42.106      28.197      17.256      11.327      9.0056      7.6335      7.1034      7.6398    
  8.9964      11.301      17.252      28.261      42.225      54.140      58.806      54.043      75.542      53.880    
  32.817      18.262      11.290      8.8680      7.6063      7.5997      8.8585      11.298      18.300      32.877    
  53.942      75.586      89.460      89.444      114.81      89.276      58.559      32.850      17.223      10.687    
  8.5517      7.7297      8.5285      10.681      17.256      32.881      58.529      89.180      114.72      124.76    
  147.08      124.68      89.288      53.975      28.255      14.665      9.8147      8.2041      8.1919      9.7982    
  14.672      28.269      53.939      89.176      124.54      147.02      146.60      135.06      105.43      69.480    
  38.876      19.711      11.315      8.7143      7.8373      8.7160      11.317      19.711      38.875      69.478    
  105.43      135.06      135.11      135.06      114.51      82.097      49.720      26.160      13.806      9.4463    
  7.9113      7.9234      9.4634      13.801      26.147      49.750      82.196      114.63      105.51      114.57    
  105.43      82.100      53.991      30.415      16.115      10.181      8.1566      7.3797      8.1756      10.184    
  16.086      30.389      54.020      82.185      69.446      82.089      82.104      69.487      49.722      30.413    
  17.059      10.698      8.4144      7.1715      7.1764      8.4212      10.690      17.026      30.360      49.666    
  38.771      49.608      53.919      49.694      38.877      26.154      16.112      10.700      8.5242      7.1578    
  6.6266      7.1528      8.5329      10.723      16.114      26.096      19.704      26.113      30.351      30.377    
  26.157      19.706      13.804      10.185      8.4172      7.1572      6.4658      6.4536      7.1457      8.4469    
  10.253      13.859      11.393      13.928      16.210      17.121      16.178      13.867      11.317      9.4501    
  8.1583      7.1696      6.6245      6.4533      6.5983      7.1489      8.1756      9.5092      8.7049      9.5912    
  10.400      10.900      10.870      10.336      9.5494      8.7160      7.9093      7.3764      7.1753      7.1533    
  7.1467      7.1497      7.3288      7.8613      7.7422      7.9463      8.3384      8.6646      8.7711      8.6430    
  8.3420      8.0078      7.8337      7.9204      8.1775      8.4243      8.5332      8.4473      8.1758      7.8602    
  8.7033      7.9472      7.4994      7.3898      7.4262      7.4318      7.4137      7.5467      7.9968      8.7161    
  9.4664      10.189      10.689      10.720      10.254      9.5083      11.391      9.5917      8.3413      7.3896    
  6.8936      6.7682      6.9178      7.4079      8.3228      9.5332      11.317      13.802      16.084      17.021    
  16.115      13.862      19.704      13.925      10.403      8.6652      7.4223      6.7675      6.7806      7.4355    
  8.6357      10.332      13.869      19.706      26.147      30.387      30.361      26.101      38.772      26.108    
  16.210      10.904      8.7677      7.4296      6.9220      7.4371      8.7618      10.881      16.206      26.164    
  38.877      49.755      54.020      49.669      69.447      49.606      30.349      17.125      10.871      8.6395    
  7.4174      7.4118      8.6316      10.878      17.159      30.402      49.661      69.487      82.195      82.181    
  105.51      82.093      53.917      30.378      16.181      10.333      8.3413      7.5505      8.3192      10.327    
  16.210      30.406      53.891      82.009      105.43      114.62      135.11      114.57      82.104      49.690    
  26.159      13.867      9.5457      8.0093      7.9975      9.5290      13.872      26.171      49.659      82.005    
  114.45      135.06      113.38      104.50      81.654      53.898      30.414      16.071      10.111      8.1049    
  7.3365      8.1061      10.112      16.071      30.414      53.897      81.654      104.50      104.54      104.50    
  88.629      63.565      38.602      20.733      11.761      8.6979      7.3610      7.3715      8.7144      11.761    
  20.725      38.622      63.633      88.714      81.706      88.733      81.653      63.568      41.842      23.857    
  13.324      9.1872      7.5363      6.8748      7.5524      9.1928      13.305      23.838      41.859      63.626    
  53.875      63.707      63.717      53.904      38.604      23.855      13.973      9.5110      7.7325      6.6729    
  6.6758      7.7359      9.5040      13.949      23.817      38.564      30.344      38.723      42.073      38.782    
  30.415      20.728      13.322      9.5124      7.8176      6.6449      6.2086      6.6382      7.8195      9.5262    
  13.324      20.690      16.068      20.896      24.142      24.159      20.924      16.066      11.759      9.1906    
  7.7351      6.6445      6.0743      6.0650      6.6345      7.7544      9.2389      11.800      10.164      12.000    
  13.680      14.361      13.659      11.959      10.113      8.7014      7.5380      6.6713      6.2069      6.0647    
  6.1903      6.6595      7.5524      8.7435      8.0966      8.9116      9.5603      9.9374      9.9182      9.5205    
  8.8871      8.1065      7.3593      6.8719      6.6749      6.6386      6.6353      6.6602      6.8419      7.3269    
  7.2682      7.4773      7.8377      8.1343      8.2342      8.1196      7.8411      7.5215      7.3334      7.3689    
  7.5542      7.7388      7.8197      7.7547      7.5526      7.3259      8.0951      7.4781      7.1177      7.0250    
  7.0461      7.0478      7.0366      7.1463      7.5117      8.1062      8.7171      9.1966      9.5026      9.5234    
  9.2393      8.7428      10.163      8.9122      7.8405      7.0248      6.6005      6.4890      6.6142      7.0333    
  7.8248      8.8711      10.113      11.762      13.303      13.944      13.324      11.802      16.067      11.997    
  9.5629      8.1349      7.0425      6.4883      6.4987      7.0544      8.1165      9.5141      11.956      16.067    
  20.725      23.836      23.818      20.695      30.345      20.891      13.680      9.9403      8.2310      7.0457    
  6.6180      7.0558      8.2330      9.9277      13.677      20.928      30.416      38.626      41.859      38.567    
  53.876      38.721      24.139      14.364      9.9186      8.1164      7.0399      7.0369      8.1127      9.9253    
  14.388      24.177      38.760      53.905      63.632      63.622      81.706      63.710      42.071      24.159    
  13.662      9.5179      7.8405      7.1498      7.8214      9.5089      13.680      24.180      42.055      63.653    
  81.653      88.706      104.54      88.740      63.717      38.778      20.926      11.959      8.8838      7.5228    
  7.5122      8.8672      11.959      20.935      38.758      63.650      88.656      104.50      73.604      67.880    
  53.149      35.348      20.618      12.117      8.8191      7.3054      6.7050      7.3064      8.8204      12.118    
  20.619      35.348      53.149      67.880      67.897      67.877      57.614      41.449      25.583      14.685    
  9.6326      7.7326      6.6595      6.6675      7.7468      9.6371      14.681      25.591      41.481      57.656    
  53.174      57.740      53.148      41.452      27.573      16.463      10.397      8.0698      6.7493      6.2480    
  6.7610      8.0768      10.389      16.452      27.579      41.478      35.338      41.697      41.703      35.354    
  25.584      16.461      10.721      8.2486      6.8727      6.0670      6.0677      6.8727      8.2435      10.708    
  16.442      25.564      20.587      25.892      28.037      25.920      20.619      14.680      10.395      8.2497    
  6.9287      6.0279      5.7131      6.0203      6.9242      8.2537      10.396      14.664      12.118      15.026    
  17.037      17.044      15.037      12.113      9.6310      8.0727      6.8749      6.0277      5.6130      5.6072    
  6.0201      6.8826      8.0972      9.6542      8.8455      9.9838      10.998      11.413      10.989      9.9653    
  8.8205      7.7356      6.7508      6.0658      5.7117      5.6070      5.7057      6.0634      6.7610      7.7578    
  7.2992      8.0425      8.6414      8.9553      8.9482      8.6274      8.0362      7.3069      6.6582      6.2457    
  6.0671      6.0207      6.0208      6.0640      6.2350      6.6434      6.6681      6.9072      7.2651      7.5610    
  7.6676      7.5544      7.2681      6.9310      6.7025      6.6653      6.7626      6.8750      6.9243      6.8828    
  6.7611      6.6426      7.2979      6.9079      6.7294      6.7361      6.7915      6.7895      6.7354      6.7382    
  6.9235      7.3065      7.7490      8.0800      8.2422      8.2512      8.0976      7.7571      8.8442      8.0430    
  7.2676      6.7360      6.4889      6.4289      6.4915      6.7348      7.2563      8.0221      8.8205      9.6377    
  10.387      10.704      10.397      9.6564      12.118      9.9817      8.6438      7.5616      6.7884      6.4283    
  6.4350      6.7978      7.5551      8.6195      9.9587      12.114      14.681      16.450      16.442      14.668    
  20.588      15.022      10.998      8.9578      7.6648      6.7876      6.4948      6.7990      7.6735      8.9553    
  10.995      15.037      20.621      25.595      27.579      25.566      35.339      25.890      17.035      11.417    
  8.9486      7.5516      6.7383      6.7378      7.5518      8.9533      11.428      17.053      25.910      35.355    
  41.481      41.475      53.174      41.700      28.035      17.045      10.992      8.6254      7.2676      6.7410    
  7.2533      8.6151      10.998      17.056      28.030      41.674      53.148      57.650      67.896      57.746    
  41.703      25.916      15.039      9.9660      8.0334      6.9320      6.9237      8.0188      9.9614      15.043    
  25.909      41.670      57.703      67.877      40.383      37.323      29.518      20.322      13.136      9.3557    
  7.6536      6.5131      6.1038      6.5139      7.6548      9.3566      13.136      20.322      29.518      37.323    
  37.327      37.321      31.849      23.375      15.399      10.349      8.1034      6.7572      6.0002      6.0052    
  6.7670      8.1089      10.348      15.398      23.381      31.860      29.523      31.957      29.517      23.377    
  16.333      11.069      8.4088      6.9878      6.0186      5.6847      6.0251      6.9938      8.4085      11.064    
  16.332      23.381      20.321      23.624      23.626      20.327      15.400      11.067      8.5272      7.1221    
  6.0813      5.5429      5.5421      6.0793      7.1195      8.5237      11.062      15.393      13.131      15.752    
  16.833      15.757      13.136      10.345      8.4069      7.1230      6.1131      5.5054      5.3072      5.4988    
  6.1062      7.1209      8.4083      10.344      9.3584      10.745      11.719      11.719      10.743      9.3527    
  8.1021      6.9899      6.0830      5.5052      5.2426      5.2400      5.5007      6.0825      6.9958      8.1105    
  7.6600      8.4977      9.1048      9.3381      9.1037      8.4947      7.6547      6.7595      6.0197      5.5421    
  5.3062      5.2398      5.3075      5.5453      6.0251      6.7659      6.5096      7.1309      7.6821      7.9995    
  8.0004      7.6850      7.1356      6.5143      5.9992      5.6830      5.5418      5.4991      5.5011      5.5458    
  5.6852      5.9974      6.0920      6.3534      6.7059      7.0000      7.1121      6.9995      6.7084      6.3612    
  6.1020      6.0035      6.0264      6.0811      6.1062      6.0827      6.0253      5.9967      6.5085      6.3540    
  6.3678      6.4910      6.5966      6.5932      6.4841      6.3642      6.3566      6.5140      6.7687      6.9963    
  7.1184      7.1189      6.9961      6.7652      7.6588      7.1313      6.7079      6.4909      6.4380      6.4376    
  6.4342      6.4849      6.7016      7.1260      7.6547      8.1093      8.4072      8.5205      8.4088      8.1122    
  9.3582      8.4960      7.6841      7.0006      6.5942      6.4371      6.4404      6.6002      7.0020      7.6782    
  8.4876      9.3533      10.348      11.063      11.062      10.348      13.132      10.742      9.1047      8.0015    
  7.1099      6.5917      6.4367      6.6012      7.1201      8.0047      9.1024      10.741      13.137      15.401    
  16.332      15.395      20.322      15.750      11.717      9.3405      8.0008      6.9974      6.4863      6.4871    
  6.9993      8.0031      9.3434      11.721      15.756      20.327      23.381      23.379      29.523      23.626    
  16.831      11.719      9.1060      7.6835      6.7079      6.3663      6.6991      7.6747      9.1048      11.724    
  16.833      23.622      29.517      31.855      37.327      31.961      23.626      15.754      10.745      8.4953    
  7.1334      6.3618      6.3566      7.1234      8.4899      10.746      15.755      23.619      31.950      37.321    
  19.963      18.660      15.427      11.846      9.2840      7.7845      6.6199      5.8906      5.6523      5.8915    
  6.6208      7.7846      9.2835      11.846      15.427      18.660      18.658      18.658      16.363      12.959    
  9.9931      8.1767      6.9006      5.9717      5.5142      5.5164      5.9764      6.9040      8.1762      9.9896    
  12.955      16.361      15.423      16.433      15.427      12.961      10.297      8.4046      7.1104      6.0893    
  5.4829      5.2910      5.4851      6.0926      7.1130      8.4045      10.294      12.956      11.848      13.144    
  13.145      11.849      9.9940      8.4034      7.1862      6.1705      5.5032      5.1953      5.1941      5.5012    
  6.1701      7.1881      8.4056      9.9942      9.2899      10.287      10.699      10.283      9.2843      8.1742    
  7.1091      6.1711      5.5184      5.1708      5.0659      5.1669      5.5131      6.1679      7.1100      8.1786    
  7.7866      8.5341      8.9770      8.9743      8.5284      7.7824      6.8997      6.0907      5.5044      5.1707    
  5.0335      5.0330      5.1688      5.5009      6.0874      6.8996      6.6174      7.2812      7.7773      7.9606    
  7.7785      7.2838      6.6206      5.9732      5.4836      5.1948      5.0653      5.0329      5.0689      5.1989    
  5.4851      5.9715      5.8898      6.3619      6.8050      7.0742      7.0775      6.8125      6.3686      5.8915    
  5.5135      5.2898      5.1939      5.1671      5.1691      5.1992      5.2960      5.5171      5.6534      5.9118    
  6.2308      6.4951      6.5982      6.4972      6.2326      5.9112      5.6511      5.5152      5.4860      5.5024    
  5.5131      5.5010      5.4853      5.5166      5.8889      5.9122      6.0523      6.2405      6.3706      6.3681    
  6.2344      6.0461      5.9095      5.8915      5.9775      6.0943      6.1694      6.1666      6.0876      5.9710    
  6.6165      6.3622      6.2323      6.2405      6.3119      6.3482      6.3074      6.2352      6.2302      6.3644    
  6.6206      6.9042      7.1121      7.1860      7.1104      6.9007      7.7863      7.2800      6.8064      6.4955    
  6.3690      6.3479      6.3488      6.3717      6.4991      6.8089      7.2793      7.7823      8.1760      8.4038    
  8.4060      8.1810      9.2903      8.5319      7.7773      7.0757      6.5968      6.3671      6.3090      6.3723    
  6.6034      7.0792      7.7756      8.5264      9.2842      9.9917      10.294      9.9955      11.849      10.285    
  8.9757      7.9624      7.0779      6.4958      6.2358      6.2366      6.4972      7.0781      7.9610      8.9741    
  10.285      11.849      12.955      12.955      15.424      13.145      10.698      8.9746      7.7801      6.8115    
  6.2323      6.0474      6.2285      6.8065      7.7773      8.9757      10.702      13.150      15.427      16.358    
  18.657      16.436      13.144      10.281      8.5295      7.2842      6.3671      5.9115      5.9094      6.3626    
  7.2810      8.5298      10.284      13.148      16.439      18.658      11.041      10.633      9.6541      8.5778    
  7.5626      6.6324      5.9634      5.5997      5.4905      5.6002      5.9638      6.6323      7.5620      8.5773    
  9.6540      10.633      10.631      10.632      9.9198      8.8804      7.8458      6.8331      6.0178      5.5087    
  5.2834      5.2840      5.5100      6.0188      6.8326      7.8431      8.8762      9.9160      9.6504      9.9673    
  9.6539      8.8812      7.9501      6.9621      6.0957      5.5007      5.1896      5.0982      5.1897      5.5018    
  6.0976      6.9631      7.9483      8.8770      8.5793      9.0204      9.0208      8.5795      7.8462      6.9615    
  6.1303      5.5182      5.1680      5.0243      5.0235      5.1669      5.5187      6.1329      6.9644      7.8476    
  7.5677      8.0993      8.2910      8.0957      7.5628      6.8318      6.0951      5.5185      5.1685      5.0087    
  4.9665      5.0072      5.1661      5.5167      6.0955      6.8351      6.6333      7.1888      7.5152      7.5131    
  7.1846      6.6314      6.0174      5.5015      5.1686      5.0087      4.9565      4.9568      5.0082      5.1659    
  5.4974      6.0152      5.9602      6.4507      6.8310      6.9743      6.8318      6.4529      5.9637      5.5095    
  5.1899      5.0239      4.9661      4.9567      4.9686      5.0263      5.1897      5.5066      5.5999      5.9980    
  6.3746      6.6057      6.6079      6.3795      6.0018      5.6001      5.2831      5.0976      5.0234      5.0073    
  5.0085      5.0265      5.1018      5.2863      5.4939      5.8065      6.1557      6.4337      6.5409      6.4356    
  6.1566      5.8043      5.4899      5.2834      5.1901      5.1675      5.1662      5.1661      5.1897      5.2860    
  5.5995      5.8067      6.0983      6.3876      6.5681      6.5671      6.3849      6.0946      5.8041      5.6002    
  5.5105      5.5026      5.5184      5.5161      5.4975      5.5063      5.9597      5.9982      6.1563      6.3876    
  6.5922      6.6726      6.5898      6.3852      6.1564      6.0010      5.9637      6.0189      6.0972      6.1318    
  6.0957      6.0158      6.6331      6.4500      6.3752      6.4339      6.5674      6.6725      6.6724      6.5679    
  6.4363      6.3785      6.4514      6.6311      6.8325      6.9627      6.9647      6.8364      7.5679      7.1875    
  6.8309      6.6065      6.5403      6.5667      6.5905      6.5682      6.5427      6.6082      6.8301      7.1836    
  7.5623      7.8443      7.9485      7.8483      8.5795      8.0987      7.5146      6.9753      6.6082      6.4349    
  6.3855      6.3859      6.4353      6.6076      6.9735      7.5124      8.0973      8.5792      8.8762      8.8762    
  9.6504      9.0212      8.2905      7.5133      6.8326      6.3789      6.1563      6.0952      6.1555      6.3773    
  6.8310      7.5133      8.2931      9.0257      9.6539      9.9143      10.631      9.9689      9.0207      8.0946    
  7.1851      6.4531      6.0011      5.8044      5.8041      6.0002      6.4522      7.1854      8.0969      9.0248    
  9.9730      10.632      8.1280      7.9766      7.5658      7.0166      6.4860      6.0980      5.8891      5.8130    
  5.7981      5.8125      5.8888      6.0985      6.4871      7.0174      7.5658      7.9763      7.9755      7.9764    
  7.6667      7.1327      6.5229      5.9919      5.6335      5.4503      5.3854      5.3859      5.4517      5.6350    
  5.9927      6.5222      7.1308      7.6647      7.5645      7.7247      7.5658      7.1329      6.5488      5.9710    
  5.5268      5.2625      5.1457      5.1166      5.1467      5.2638      5.5275      5.9705      6.5471      7.1310    
  7.0179      7.3090      7.3086      7.0170      6.5229      5.9709      5.5021      5.1952      5.0448      4.9945    
  4.9943      5.0444      5.1945      5.5016      5.9709      6.5235      6.4890      6.8681      7.0091      6.8659    
  6.4861      5.9916      5.5268      5.1953      5.0211      4.9595      4.9479      4.9584      5.0194      5.1940    
  5.5269      5.9935      6.0989      6.5312      6.7916      6.7911      6.5301      6.0979      5.6334      5.2628    
  5.0449      4.9594      4.9422      4.9420      4.9588      5.0443      5.2625      5.6338      5.8875      6.3599    
  6.7260      6.8644      6.7276      6.3621      5.8890      5.4505      5.1458      4.9942      4.9477      4.9420    
  4.9485      4.9954      5.1467      5.4503      5.8120      6.3258      6.7932      7.0722      7.0732      6.7957    
  6.3280      5.8128      5.3855      5.1165      4.9941      4.9585      4.9590      4.9954      5.1180      5.3862    
  5.7987      6.3441      6.9026      7.3206      7.4752      7.3206      6.9024      6.3437      5.7982      5.3859    
  5.1466      5.0445      5.0197      5.0443      5.1465      5.3862      5.8123      6.3442      6.9533      7.4868    
  7.7966      7.7957      7.4847      6.9511      6.3430      5.8126      5.4517      5.2638      5.1946      5.1939    
  5.2622      5.4502      5.8878      6.3259      6.9023      7.4867      7.9192      8.0775      7.9179      7.4852    
  6.9016      6.3264      5.8890      5.6349      5.5274      5.5015      5.5268      5.6339      6.0989      6.3599    
  6.7929      7.3204      7.7969      8.0776      8.0777      7.7974      7.3215      6.7943      6.3605      6.0984    
  5.9925      5.9704      5.9710      5.9936      6.4888      6.5309      6.7259      7.0722      7.4756      7.7959    
  7.9177      7.7973      7.4775      7.0737      6.7261      6.5298      6.4870      6.5224      6.5473      6.5236    
  7.0177      6.8679      6.7918      6.8647      7.0733      7.3205      7.4844      7.4850      7.3217      7.0737    
  6.8638      6.7904      6.8670      7.0175      7.1309      7.1308      7.5645      7.3092      7.0093      6.7913    
  6.7274      6.7954      6.9023      6.9511      6.9018      6.7943      6.7260      6.7904      7.0097      7.3106    
  7.5658      7.6644      7.9756      7.7251      7.3087      6.8658      6.5299      6.3618      6.3281      6.3439    
  6.3431      6.3263      6.3604      6.5298      6.8670      7.3105      7.7266      7.9761      6.6938      6.6272    
  6.4670      6.3119      6.2557      6.3279      6.4797      6.6214      6.6772      6.6195      6.4784      6.3294    
  6.2590      6.3144      6.4672      6.6263      6.6261      6.6276      6.4645      6.2098      5.9700      5.8274    
  5.8000      5.8439      5.8908      5.8923      5.8479      5.8047      5.8306      5.9702      6.2071      6.4611    
  6.4664      6.5661      6.4672      6.2095      5.8892      5.6106      5.4370      5.3706      5.3676      5.3757    
  5.3713      5.3746      5.4379      5.6081      5.8856      6.2070      6.3145      6.5236      6.5218      6.3112    
  5.9695      5.6107      5.3307      5.1693      5.1074      5.0959      5.0961      5.1068      5.1665      5.3265    
  5.6081      5.9706      6.2604      6.5953      6.7207      6.5919      6.2557      5.8277      5.4375      5.1694    
  5.0349      4.9902      4.9819      4.9875      5.0308      5.1664      5.4374      5.8309      6.3301      6.8143    
  7.1050      7.1056      6.8148      6.3286      5.8001      5.3707      5.1071      4.9900      4.9556      4.9544    
  4.9882      5.1074      5.3737      5.8037      6.4776      7.1258      7.6113      7.7925      7.6156      7.1305    
  6.4789      5.8435      5.3677      5.0958      4.9819      4.9546      4.9825      5.0979      5.3713      5.8460    
  6.6178      7.4223      8.1043      8.4925      8.4939      8.1077      7.4262      6.6206      5.8915      5.3762    
  5.0958      4.9876      4.9886      5.0978      5.3776      5.8909      6.6750      7.6001      8.4586      9.1125    
  9.3706      9.1106      8.4573      7.6012      6.6778      5.8932      5.3707      5.1064      5.0314      5.1072    
  5.3705      5.8910      6.6190      7.6002      8.5943      9.5333      10.165      10.163      9.5286      8.5902    
  7.5988      6.6199      5.8476      5.3738      5.1670      5.1667      5.3729      5.8461      6.4789      7.4226    
  8.4573      9.5330      10.500      10.900      10.498      9.5298      8.4543      7.4209      6.4789      5.8045    
  5.4380      5.3272      5.4370      5.8033      6.3305      7.1264      8.1029      9.1118      10.166      10.900    
  10.901      10.168      9.1132      8.1035      7.1263      6.3303      5.8303      5.6083      5.6082      5.8301    
  6.2598      6.8149      7.6112      8.4918      9.3717      10.164      10.496      10.167      9.3768      8.4955    
  7.6123      6.8141      6.2584      5.9693      5.8859      5.9702      6.3138      6.5955      7.1060      7.7921    
  8.4937      9.1112      9.5274      9.5289      9.1145      8.4962      7.7923      7.1044      6.5938      6.3130    
  6.2074      6.2076      6.4662      6.5231      6.7217      7.1058      7.6144      8.1076      8.4573      8.5898    
  8.4557      8.1047      7.6113      7.1036      6.7212      6.5241      6.4672      6.4621      6.6262      6.5653    
  6.5220      6.5926      6.8139      7.1299      7.4272      7.6016      7.5991      7.4216      7.1251      6.8125    
  6.5943      6.5248      6.5672      6.6268      6.3498      6.3387      6.3512      6.4847      6.7914      7.2147    
  7.6217      7.8960      7.9902      7.8936      7.6192      7.2145      6.7933      6.4866      6.3517      6.3383    
  6.3366      6.3397      6.2522      6.1503      6.1348      6.2540      6.4660      6.6753      6.7997      6.8015    
  6.6802      6.4720      6.2579      6.1339      6.1445      6.2452      6.3491      6.4317      6.3518      6.1496    
  5.9247      5.7788      5.7529      5.8118      5.8847      5.9171      5.8893      5.8177      5.7562      5.7777    
  5.9206      6.1451      6.4882      6.7031      6.7006      6.4831      6.1338      5.7790      5.5233      5.3976    
  5.3642      5.3654      5.3651      5.3628      5.3945      5.5200      5.7784      6.1372      6.7983      7.2092    
  7.3605      7.2040      6.7912      6.2548      5.7539      5.3977      5.2039      5.1240      5.1029      5.1195    
  5.1973      5.3929      5.7537      6.2596      7.2163      7.8696      8.2484      8.2492      7.8707      7.2158    
  6.4662      5.8117      5.3638      5.1237      5.0293      5.0280      5.1213      5.3630      5.8134      6.4685    
  7.6166      8.5099      9.2082      9.4898      9.2135      8.5166      7.6202      6.6744      5.8850      5.3652    
  5.1029      5.0284      5.1054      5.3696      5.8893      6.6756      7.8914      9.0971      10.419      11.344    
  11.345      10.422      9.1011      7.8946      6.8011      5.9181      5.3645      5.1197      5.1219      5.3692    
  5.9216      6.8011      7.9896      9.5093      11.592      13.548      14.354      13.546      11.590      9.5091    
  7.9916      6.8033      5.8882      5.3619      5.1982      5.3625      5.8879      6.8014      7.8936      9.5094    