unknown system                          
   1.00000000000000     
     2.330000    0.000000    0.000000
    -1.165000    2.017839    0.000000
     0.000000    0.000000    4.100000
   Fe
     2
Direct
  0.000000  0.000000  0.000000
  0.333333  0.666667  0.500000
 
   16   16   28
 0.15961713258E+03 0.14702628069E+03 0.11472604114E+03 0.75579348844E+02 0.42224174310E+02
 0.21193951789E+02 0.11822641510E+02 0.89445018611E+01 0.80308463301E+01 0.89462967638E+01
 0.11824319163E+02 0.21193806982E+02 0.42222481952E+02 0.75577814468E+02 0.11472575365E+03
 0.14702668602E+03 0.14708415001E+03 0.14702226608E+03 0.12463146769E+03 0.89349381171E+02
 0.54100143037E+02 0.28342878943E+02 0.14661103172E+02 0.97443271892E+01 0.81213896574E+01
 0.81340023526E+01 0.97615205625E+01 0.14654134110E+02 0.28328268080E+02 0.54134803401E+02
 0.89461363372E+02 0.12476761233E+03 0.11481116762E+03 0.12466735616E+03 0.11472465921E+03
 0.89352866803E+02 0.58772905111E+02 0.33041045718E+02 0.17272313507E+02 0.10596737666E+02
 0.83935540429E+01 0.75747890026E+01 0.84136070826E+01 0.10599006713E+02 0.17239177591E+02
 0.33012330298E+02 0.58806224562E+02 0.89449117931E+02 0.75540689492E+02 0.89271024341E+02
 0.89287669702E+02 0.75586561373E+02 0.54102482788E+02 0.33038392856E+02 0.18334940597E+02
 0.11201375940E+02 0.86757326197E+01 0.73659429685E+01 0.73716598063E+01 0.86838478623E+01
 0.11193094717E+02 0.18298655790E+02 0.32979745851E+02 0.54040214442E+02 0.42104802400E+02
 0.53881648116E+02 0.58560810422E+02 0.53979319116E+02 0.42225446999E+02 0.28337108110E+02
 0.17269417491E+02 0.11202981932E+02 0.87952311428E+01 0.73584623156E+01 0.67910451575E+01
 0.73543330904E+01 0.88068745902E+01 0.11230219693E+02 0.17271443175E+02 0.28270804097E+02
 0.21185265735E+02 0.28202630294E+02 0.32819405201E+02 0.32848457943E+02 0.28252898430E+02
 0.21189556838E+02 0.14659330172E+02 0.10600641426E+02 0.86785617277E+01 0.73578990119E+01
 0.66200159432E+01 0.66067699909E+01 0.73457918427E+01 0.87124315909E+01 0.10677257384E+02
 0.14720139340E+02 0.11909733131E+02 0.14734334058E+02 0.17255870658E+02 0.18257610442E+02
 0.17219349306E+02 0.14664504592E+02 0.11824800368E+02 0.97482901990E+01 0.83952930963E+01
 0.73639020000E+01 0.67888769990E+01 0.66064912368E+01 0.67587795741E+01 0.73395182888E+01
 0.84136070826E+01 0.98140010863E+01 0.89347535211E+01 0.98673417013E+01 0.10762935167E+02
 0.11324246652E+02 0.11289383727E+02 0.10689608708E+02 0.98185603242E+01 0.89462169366E+01
 0.81192994124E+01 0.75712684531E+01 0.73704617840E+01 0.73548970169E+01 0.73469190729E+01
 0.73403612349E+01 0.75166228216E+01 0.80649951273E+01 0.79252146428E+01 0.81342089908E+01
 0.85487214543E+01 0.88960146618E+01 0.90090799830E+01 0.88716497108E+01 0.85524257972E+01
 0.82025156404E+01 0.80271159948E+01 0.81308426551E+01 0.84155108154E+01 0.86871029754E+01
 0.88072790071E+01 0.87128575959E+01 0.84137717619E+01 0.80639256748E+01 0.89331385884E+01
 0.81350773928E+01 0.76708877978E+01 0.75735200830E+01 0.76284694076E+01 0.76357670801E+01
 0.76025417260E+01 0.77257388379E+01 0.81911523677E+01 0.89463969066E+01 0.97646369305E+01
 0.10603463451E+02 0.11191618659E+02 0.11227137643E+02 0.10677810362E+02 0.98131544445E+01
 0.11908055479E+02 0.98678463668E+01 0.85516865489E+01 0.75732760695E+01 0.70704448977E+01
 0.69478925427E+01 0.70990599374E+01 0.75956916278E+01 0.85322080782E+01 0.98025039070E+01
 0.11824800368E+02 0.14655302099E+02 0.17237151907E+02 0.18293302446E+02 0.17272313507E+02
 0.14723080329E+02 0.21184976055E+02 0.14731365845E+02 0.10765691884E+02 0.88966280923E+01
 0.76245618812E+01 0.69472315722E+01 0.69613814508E+01 0.76381546192E+01 0.88626739773E+01
 0.10687041199E+02 0.14668496867E+02 0.21189122352E+02 0.28328132376E+02 0.33010243614E+02
 0.32980312028E+02 0.28276439226E+02 0.42105829676E+02 0.28197356929E+02 0.17255693260E+02
 0.11327477865E+02 0.90055901251E+01 0.76335376148E+01 0.71033755634E+01 0.76398326803E+01
 0.89963670364E+01 0.11300926969E+02 0.17252279972E+02 0.28261439678E+02 0.42224781917E+02
 0.54139607764E+02 0.58805835777E+02 0.54042679054E+02 0.75541789382E+02 0.53879520954E+02
 0.32816962872E+02 0.18261977235E+02 0.11289918403E+02 0.88680443637E+01 0.76063223572E+01
 0.75997162725E+01 0.88584551996E+01 0.11298230433E+02 0.18300153363E+02 0.32877476158E+02
 0.53941759654E+02 0.75586126887E+02 0.89460135689E+02 0.89444404615E+02 0.11481145511E+03
 0.89275651735E+02 0.58559049862E+02 0.32849583117E+02 0.17222762594E+02 0.10686536443E+02
 0.85516865488E+01 0.77297042328E+01 0.85285037352E+01 0.10681212217E+02 0.17255870658E+02
 0.32881043661E+02 0.58528544838E+02 0.89180365017E+02 0.11472465921E+03 0.12475911138E+03
 0.14708392464E+03 0.12467545643E+03 0.89288187490E+02 0.53974724369E+02 0.28255000882E+02
 0.14664746159E+02 0.98147155887E+01 0.82040846180E+01 0.81918529433E+01 0.97981545061E+01
 0.14671706647E+02 0.28268815494E+02 0.53939292069E+02 0.89176255412E+02 0.12454000278E+03
 0.14702244605E+03 0.14659873804E+03 0.13506018557E+03 0.10542981305E+03 0.69479668361E+02
 0.38876266294E+02 0.19710822920E+02 0.11315444796E+02 0.87143341926E+01 0.78372721036E+01
 0.87159593040E+01 0.11317071467E+02 0.19710960737E+02 0.38875051233E+02 0.69478458787E+02
 0.10542953422E+03 0.13506046329E+03 0.13511155292E+03 0.13505632511E+03 0.11450744690E+03
 0.82096769259E+02 0.49720000071E+02 0.26159594671E+02 0.13805978690E+02 0.94462636270E+01
 0.79113213660E+01 0.79234032068E+01 0.94634164049E+01 0.13801201061E+02 0.26146850936E+02
 0.49750402310E+02 0.82196155226E+02 0.11462876327E+03 0.10550544122E+03 0.11456621919E+03
 0.10542853282E+03 0.82100154746E+02 0.53991170890E+02 0.30415373580E+02 0.16115130792E+02
 0.10180869205E+02 0.81565874738E+01 0.73797199177E+01 0.81756266648E+01 0.10184206253E+02
 0.16086025682E+02 0.30389187573E+02 0.54019934989E+02 0.82185331215E+02 0.69445601766E+02
 0.82088965356E+02 0.82103873883E+02 0.69486681249E+02 0.49722236205E+02 0.30412778690E+02
 0.17059119054E+02 0.10698386441E+02 0.84144320864E+01 0.71715381612E+01 0.71764376763E+01
 0.84211734469E+01 0.10690426738E+02 0.17026279357E+02 0.30360130951E+02 0.49666455658E+02
 0.38770881347E+02 0.49607941823E+02 0.53919202458E+02 0.49694436897E+02 0.38877442508E+02
 0.26153935170E+02 0.16112288397E+02 0.10699935421E+02 0.85241739623E+01 0.71577515948E+01
 0.66266076423E+01 0.71527787240E+01 0.85329026075E+01 0.10723283758E+02 0.16114288571E+02
 0.26095761304E+02 0.19703837935E+02 0.26112886303E+02 0.30350970161E+02 0.30376550121E+02
 0.26156808940E+02 0.19706472364E+02 0.13804210377E+02 0.10184641354E+02 0.84171959147E+01
 0.71572323789E+01 0.64658039344E+01 0.64536222016E+01 0.71456559218E+01 0.84469076653E+01
 0.10253242698E+02 0.13859413495E+02 0.11392978465E+02 0.13928196387E+02 0.16209761986E+02
 0.17120838220E+02 0.16177796055E+02 0.13866647214E+02 0.11317496324E+02 0.94501093144E+01
 0.81583093648E+01 0.71696220993E+01 0.66245436643E+01 0.64533480219E+01 0.65983447537E+01
 0.71489137661E+01 0.81756266648E+01 0.95091729263E+01 0.87049210367E+01 0.95911554747E+01
 0.10399887453E+02 0.10900436400E+02 0.10870077562E+02 0.10336260115E+02 0.95494437641E+01
 0.87160212312E+01 0.79093379268E+01 0.73763680177E+01 0.71753272563E+01 0.71533169138E+01
 0.71467133275E+01 0.71497194078E+01 0.73288445419E+01 0.78612753077E+01 0.77421708330E+01
 0.79463354196E+01 0.83384163963E+01 0.86645907559E+01 0.87710775128E+01 0.86429677646E+01
 0.83420437969E+01 0.80078272785E+01 0.78337004695E+01 0.79203761941E+01 0.81775036378E+01
 0.84243187170E+01 0.85332425778E+01 0.84472891070E+01 0.81757817468E+01 0.78602317342E+01
 0.87033465129E+01 0.79471927737E+01 0.74994366796E+01 0.73898081080E+01 0.74261550013E+01
 0.74317684798E+01 0.74136802440E+01 0.75466622773E+01 0.79968395988E+01 0.87160718188E+01
 0.94664301044E+01 0.10188506232E+02 0.10688947741E+02 0.10720255782E+02 0.10253770527E+02
 0.95083409384E+01 0.11391351794E+02 0.95916807112E+01 0.83413416614E+01 0.73895786557E+01
 0.68935863049E+01 0.67681998925E+01 0.69178443530E+01 0.74078934829E+01 0.83228495239E+01
 0.95332045783E+01 0.11317496324E+02 0.13802288493E+02 0.16084025508E+02 0.17021061115E+02
 0.16115130792E+02 0.13862269241E+02 0.19703577988E+02 0.13925348963E+02 0.10402613695E+02
 0.86651972094E+01 0.74223277202E+01 0.67675409985E+01 0.67806457426E+01 0.74355112281E+01
 0.86357228332E+01 0.10332466779E+02 0.13868559035E+02 0.19706350235E+02 0.26146690239E+02
 0.30387166601E+02 0.30360704868E+02 0.26101260108E+02 0.38771909461E+02 0.26107769833E+02
 0.16209592408E+02 0.10903566676E+02 0.87676510772E+01 0.74295726516E+01 0.69220361408E+01
 0.74371426811E+01 0.87618219501E+01 0.10881115829E+02 0.16206245891E+02 0.26163931742E+02
 0.38877255560E+02 0.49755093226E+02 0.54019620725E+02 0.49668910440E+02 0.69446689211E+02
 0.49605828462E+02 0.30348535927E+02 0.17125046746E+02 0.10870587526E+02 0.86394629910E+01
 0.74173568869E+01 0.74117995781E+01 0.86316116061E+01 0.10878495518E+02 0.17159150480E+02
 0.30402406468E+02 0.49661457748E+02 0.69486559120E+02 0.82195047539E+02 0.82180838041E+02
 0.10550572004E+03 0.82093368079E+02 0.53917387845E+02 0.30377602612E+02 0.16181142572E+02
 0.10333322929E+02 0.83413416614E+01 0.75504948346E+01 0.83192221232E+01 0.10326803351E+02
 0.16209761986E+02 0.30405893194E+02 0.53890939569E+02 0.82008971028E+02 0.10542853282E+03
 0.11462058237E+03 0.13511132579E+03 0.11457399457E+03 0.82104273694E+02 0.49689947832E+02
 0.26158910052E+02 0.13866963812E+02 0.95457414104E+01 0.80093206727E+01 0.79974756390E+01
 0.95289769882E+01 0.13871723057E+02 0.26171149324E+02 0.49659082042E+02 0.82004968116E+02
 0.11445316533E+03 0.13505637569E+03 0.11337904363E+03 0.10450090565E+03 0.81653793610E+02
 0.53897945972E+02 0.30414468157E+02 0.16070540496E+02 0.10110851458E+02 0.81048555706E+01
 0.73365456229E+01 0.81060981439E+01 0.10112350067E+02 0.16071282105E+02 0.30414289572E+02
 0.53897446171E+02 0.81653536602E+02 0.10450090681E+03 0.10453602575E+03 0.10449747083E+03
 0.88629436820E+02 0.63565048597E+02 0.38601896758E+02 0.20733219583E+02 0.11760765766E+02
 0.86978761247E+01 0.73610222010E+01 0.73715251332E+01 0.87143666282E+01 0.11760988871E+02
 0.20724974365E+02 0.38621703532E+02 0.63632995202E+02 0.88713650824E+02 0.81705644699E+02
 0.88733247871E+02 0.81652774028E+02 0.63568143597E+02 0.41841806358E+02 0.23857248024E+02
 0.13324365956E+02 0.91871862438E+01 0.75363276262E+01 0.68747555267E+01 0.75524351414E+01
 0.91927738044E+01 0.13305250796E+02 0.23837624191E+02 0.41859454355E+02 0.63625722112E+02
 0.53875246913E+02 0.63706684514E+02 0.63717282818E+02 0.53904375996E+02 0.38603856207E+02
 0.23854835105E+02 0.13973083995E+02 0.95109667098E+01 0.77325240599E+01 0.66729021146E+01
 0.66757880644E+01 0.77359488471E+01 0.95040497065E+01 0.13949164563E+02 0.23817431419E+02
 0.38564385334E+02 0.30343834131E+02 0.38723215061E+02 0.42072906209E+02 0.38781883710E+02
 0.30415400811E+02 0.20727920863E+02 0.13321696557E+02 0.95123517948E+01 0.78176071431E+01
 0.66448842785E+01 0.62086382950E+01 0.66381782368E+01 0.78195266881E+01 0.95262489649E+01
 0.13323598139E+02 0.20689855426E+02 0.16067579062E+02 0.20896090168E+02 0.24141712637E+02
 0.24158616306E+02 0.20924246277E+02 0.16066368905E+02 0.11759039462E+02 0.91905784057E+01
 0.77350822423E+01 0.66444786392E+01 0.60743449849E+01 0.60649603961E+01 0.66344751942E+01
 0.77544450628E+01 0.92388688769E+01 0.11799810853E+02 0.10164458164E+02 0.11999917710E+02
 0.13680086603E+02 0.14360668797E+02 0.13659280537E+02 0.11958846813E+02 0.10112621688E+02
 0.87013793980E+01 0.75379721126E+01 0.66713128569E+01 0.62068583329E+01 0.60647010314E+01
 0.61902909518E+01 0.66595297171E+01 0.75524351414E+01 0.87435446570E+01 0.80965632689E+01
 0.89116444435E+01 0.95602854306E+01 0.99374368390E+01 0.99181803078E+01 0.95205045053E+01
 0.88871488645E+01 0.81064560576E+01 0.73593180418E+01 0.68718528078E+01 0.66749068210E+01
 0.66386468069E+01 0.66353494035E+01 0.66602377313E+01 0.68418983719E+01 0.73268713185E+01
 0.72681925226E+01 0.74773106618E+01 0.78376635922E+01 0.81343466968E+01 0.82342452540E+01
 0.81196499451E+01 0.78410635158E+01 0.75215015985E+01 0.73334095710E+01 0.73688529167E+01
 0.75542171152E+01 0.77387852850E+01 0.78197094837E+01 0.77547233182E+01 0.75525726288E+01
 0.73259032614E+01 0.80950956686E+01 0.74781243009E+01 0.71177106717E+01 0.70250061350E+01
 0.70460856322E+01 0.70477534929E+01 0.70365796556E+01 0.71463123472E+01 0.75117416965E+01
 0.81062310306E+01 0.87170802109E+01 0.91966352650E+01 0.95025918928E+01 0.95234060661E+01
 0.92393381756E+01 0.87427549664E+01 0.10162959556E+02 0.89122003381E+01 0.78404537243E+01
 0.70248200071E+01 0.66005198995E+01 0.64889878741E+01 0.66142058144E+01 0.70333486885E+01
 0.78248185132E+01 0.88710850547E+01 0.10112621688E+02 0.11761865354E+02 0.13303349213E+02
 0.13944355802E+02 0.13324365956E+02 0.11802413641E+02 0.16067380717E+02 0.11997390823E+02
 0.95629023569E+01 0.81349393088E+01 0.70425139903E+01 0.64883445420E+01 0.64986765883E+01
 0.70543536155E+01 0.81164901657E+01 0.95141294098E+01 0.11956065682E+02 0.16066912168E+02
 0.20724761084E+02 0.23835795626E+02 0.23818015774E+02 0.20694940864E+02 0.30344844307E+02
 0.20891418992E+02 0.13679939954E+02 0.99402907380E+01 0.82310326151E+01 0.70456737697E+01
 0.66180356513E+01 0.70558455342E+01 0.82329745048E+01 0.99277151827E+01 0.13676796288E+02
 0.20927949320E+02 0.30416232402E+02 0.38626055466E+02 0.41859322110E+02 0.38566777818E+02
 0.53876289976E+02 0.38721165065E+02 0.24139333463E+02 0.14364442837E+02 0.99186347430E+01
 0.81164430931E+01 0.70399470673E+01 0.70369022280E+01 0.81126907018E+01 0.99253157189E+01
 0.14388265703E+02 0.24176569258E+02 0.38760227715E+02 0.53904919259E+02 0.63632191621E+02
 0.63621823532E+02 0.81705901708E+02 0.63710485717E+02 0.42070989011E+02 0.24159481474E+02
 0.13662424203E+02 0.95179385716E+01 0.78404537243E+01 0.71497547756E+01 0.78214185896E+01
 0.95089465497E+01 0.13680086603E+02 0.24179813601E+02 0.42054558866E+02 0.63653279554E+02
 0.81652774028E+02 0.88706359766E+02 0.10453579956E+03 0.88740131856E+02 0.63717395810E+02
 0.38777714973E+02 0.20926312904E+02 0.11959337131E+02 0.88838353602E+01 0.75227781156E+01
 0.75122045745E+01 0.88672156559E+01 0.11959082887E+02 0.20934687124E+02 0.38758108973E+02
 0.63649591343E+02 0.88655961928E+02 0.10449724580E+03 0.73603695469E+02 0.67879790683E+02
 0.53148861640E+02 0.35348093343E+02 0.20618467568E+02 0.12117161636E+02 0.88190971643E+01
 0.73054255624E+01 0.67049864857E+01 0.73063522966E+01 0.88204380857E+01 0.12118272062E+02
 0.20618991781E+02 0.35348092970E+02 0.53148631655E+02 0.67879606619E+02 0.67896530842E+02
 0.67876960797E+02 0.57613558231E+02 0.41448931712E+02 0.25582811602E+02 0.14684553861E+02
 0.96325764426E+01 0.77326070219E+01 0.66595174962E+01 0.66675186452E+01 0.77467602759E+01
 0.96371154817E+01 0.14680930258E+02 0.25590756896E+02 0.41481400539E+02 0.57655641273E+02
 0.53173690910E+02 0.57739884568E+02 0.53148156098E+02 0.41451574634E+02 0.27572968337E+02
 0.16463435929E+02 0.10397143003E+02 0.80698442120E+01 0.67493430781E+01 0.62479872743E+01
 0.67610069115E+01 0.80768023662E+01 0.10389117536E+02 0.16451945924E+02 0.27578813849E+02
 0.41478149314E+02 0.35337942821E+02 0.41697038749E+02 0.41702839103E+02 0.35353605714E+02
 0.25584401673E+02 0.16461341195E+02 0.10720957554E+02 0.82485638300E+01 0.68726707532E+01
 0.60670126368E+01 0.60676974294E+01 0.68726643894E+01 0.82435012088E+01 0.10708022130E+02
 0.16441920624E+02 0.25563682523E+02 0.20586574781E+02 0.25892143409E+02 0.28037246607E+02
 0.25919620300E+02 0.20619116803E+02 0.14679914141E+02 0.10394790134E+02 0.82497004806E+01
 0.69287031412E+01 0.60279295939E+01 0.57130544714E+01 0.60203116873E+01 0.69242459641E+01
 0.82536513578E+01 0.10396475281E+02 0.14664006034E+02 0.12118094976E+02 0.15026134324E+02
 0.17037255484E+02 0.17044360115E+02 0.15036736680E+02 0.12113401419E+02 0.96309905785E+01
 0.80726547696E+01 0.68748683838E+01 0.60276614455E+01 0.56130311965E+01 0.56072004838E+01
 0.60201346011E+01 0.68826374523E+01 0.80971549013E+01 0.96542167915E+01 0.88454973405E+01
 0.99838469706E+01 0.10998082384E+02 0.11413348903E+02 0.10989268744E+02 0.99653448386E+01
 0.88205061016E+01 0.77355732741E+01 0.67507979030E+01 0.60658357990E+01 0.57116653174E+01
 0.56069686901E+01 0.57056967265E+01 0.60634327006E+01 0.67610069115E+01 0.77577990793E+01
 0.72991994165E+01 0.80424926346E+01 0.86413736788E+01 0.89553125769E+01 0.89481663938E+01
 0.86274290016E+01 0.80361735503E+01 0.73068725693E+01 0.66581698152E+01 0.62456781892E+01
 0.60671032589E+01 0.60206856516E+01 0.60207767139E+01 0.60640153679E+01 0.62349647054E+01
 0.66434415416E+01 0.66681308510E+01 0.69071635757E+01 0.72650528852E+01 0.75610371589E+01
 0.76676373947E+01 0.75543724665E+01 0.72680785335E+01 0.69310037386E+01 0.67024613683E+01
 0.66653226953E+01 0.67625942829E+01 0.68750454699E+01 0.69242645062E+01 0.68828209023E+01
 0.67611394580E+01 0.66425932726E+01 0.72978796075E+01 0.69078803524E+01 0.67294083457E+01
 0.67361080127E+01 0.67914859875E+01 0.67894500330E+01 0.67354113163E+01 0.67381810758E+01
 0.69234577837E+01 0.73064794945E+01 0.77490046491E+01 0.80800236383E+01 0.82421545258E+01
 0.82511680242E+01 0.80975656158E+01 0.77570772004E+01 0.88441564191E+01 0.80430243266E+01
 0.72675748631E+01 0.67359888131E+01 0.64888542635E+01 0.64288809909E+01 0.64915012574E+01
 0.67347779355E+01 0.72562821536E+01 0.80221080961E+01 0.88205061016E+01 0.96377260665E+01
 0.10387432389E+02 0.10703894831E+02 0.10397143003E+02 0.96564132403E+01 0.12117933516E+02
 0.99817449977E+01 0.86437588252E+01 0.75616175920E+01 0.67883734793E+01 0.64282882439E+01
 0.64350216847E+01 0.67977678682E+01 0.75551443468E+01 0.86195042413E+01 0.99586875380E+01
 0.12114350385E+02 0.14680686021E+02 0.16450419165E+02 0.16442488600E+02 0.14668401518E+02
 0.20587503184E+02 0.15022133636E+02 0.10997970993E+02 0.89577732431E+01 0.76648351084E+01
 0.67876015990E+01 0.64947593935E+01 0.67990319424E+01 0.76735286447E+01 0.89553192739E+01
 0.10995173874E+02 0.15036913766E+02 0.20620569418E+02 0.25594551822E+02 0.27578873467E+02
 0.25565887379E+02 0.35338892160E+02 0.25890255831E+02 0.17035049940E+02 0.11416509562E+02
 0.89485720606E+01 0.75516445291E+01 0.67382774216E+01 0.67377632404E+01 0.75518359764E+01
 0.89532642744E+01 0.11428435506E+02 0.17053384212E+02 0.25910419117E+02 0.35354554680E+02
 0.41480951265E+02 0.41475057119E+02 0.53173920895E+02 0.41700038275E+02 0.28035318780E+02
 0.17044997053E+02 0.10992065863E+02 0.86253824104E+01 0.72675748631E+01 0.67410106859E+01
 0.72532565053E+01 0.86150725037E+01 0.10998082384E+02 0.17056226693E+02 0.28029888862E+02
 0.41673540659E+02 0.53148156098E+02 0.57649630750E+02 0.67896321832E+02 0.57745517759E+02
 0.41702655421E+02 0.25915988163E+02 0.15038664785E+02 0.99659857292E+01 0.80334057519E+01
 0.69319574561E+01 0.69236947245E+01 0.80188086058E+01 0.99614304015E+01 0.15042842559E+02
 0.25908674558E+02 0.41670357451E+02 0.57703177970E+02 0.67876567722E+02 0.40383108658E+02
 0.37323397172E+02 0.29517790507E+02 0.20322252644E+02 0.13135988914E+02 0.93557328138E+01
 0.76536462657E+01 0.65130860029E+01 0.61038479404E+01 0.65139436336E+01 0.76548116508E+01
 0.93565718487E+01 0.13136251649E+02 0.20322126467E+02 0.29517590877E+02 0.37323289591E+02
 0.37326757242E+02 0.37321246875E+02 0.31848838345E+02 0.23374631276E+02 0.15398796283E+02
 0.10348716286E+02 0.81034088644E+01 0.67571939246E+01 0.60001839150E+01 0.60051684309E+01
 0.67670076189E+01 0.81088975701E+01 0.10347741162E+02 0.15398347009E+02 0.23381389499E+02
 0.31859921557E+02 0.29522753479E+02 0.31956545389E+02 0.29517350503E+02 0.23376704792E+02
 0.16333456731E+02 0.11068542356E+02 0.84088102856E+01 0.69877940660E+01 0.60185684997E+01
 0.56847052892E+01 0.60251445319E+01 0.69938249613E+01 0.84085288351E+01 0.11064166791E+02
 0.16332002224E+02 0.23381076735E+02 0.20320738484E+02 0.23623621363E+02 0.23626013152E+02
 0.20326592494E+02 0.15400000410E+02 0.11066892379E+02 0.85272227796E+01 0.71221212933E+01
 0.60812747452E+01 0.55428887251E+01 0.55421045859E+01 0.60793019439E+01 0.71194934672E+01
 0.85237124096E+01 0.11061774359E+02 0.15393491375E+02 0.13131360879E+02 0.15751618456E+02
 0.16833044345E+02 0.15756849579E+02 0.13136414147E+02 0.10345034974E+02 0.84069260542E+01
 0.71229631043E+01 0.61131427346E+01 0.55053920808E+01 0.53071799065E+01 0.54988407674E+01
 0.61062224360E+01 0.71208814499E+01 0.84082570020E+01 0.10344273510E+02 0.93583987143E+01
 0.10744713112E+02 0.11718653830E+02 0.11718700961E+02 0.10743108718E+02 0.93526774605E+01
 0.81021044281E+01 0.69899019560E+01 0.60829695838E+01 0.55052372843E+01 0.52425678169E+01
 0.52399633123E+01 0.55006676329E+01 0.60825167921E+01 0.69957785104E+01 0.81105383558E+01
 0.76599742536E+01 0.84976855596E+01 0.91048060004E+01 0.93380715440E+01 0.91037226055E+01
 0.84946741206E+01 0.76546970090E+01 0.67594821596E+01 0.60197000513E+01 0.55420890457E+01
 0.53062011089E+01 0.52397742938E+01 0.53074517396E+01 0.55453369919E+01 0.60251445319E+01
 0.67658548814E+01 0.65096499546E+01 0.71308790618E+01 0.76820898912E+01 0.79994860530E+01
 0.80003737747E+01 0.76849851109E+01 0.71355856701E+01 0.65142971253E+01 0.59991848875E+01
 0.56829978567E+01 0.55417623360E+01 0.54991167396E+01 0.55010984017E+01 0.55457944214E+01
 0.56852185535E+01 0.59974071006E+01 0.60919674103E+01 0.63534359778E+01 0.67058624108E+01
 0.70000316947E+01 0.71120674211E+01 0.69994770987E+01 0.67083592637E+01 0.63611636940E+01
 0.61019948559E+01 0.60034785665E+01 0.60264179787E+01 0.60811427182E+01 0.61061529742E+01
 0.60826627280E+01 0.60252864270E+01 0.59967162637E+01 0.65085185710E+01 0.63539968067E+01
 0.63677575324E+01 0.64909739084E+01 0.65966335892E+01 0.65931820718E+01 0.64841141248E+01
 0.63641843800E+01 0.63565962622E+01 0.65140233725E+01 0.67686699802E+01 0.69962962535E+01
 0.71183956724E+01 0.71189418442E+01 0.69961419126E+01 0.67652290077E+01 0.76588088685E+01
 0.71312948404E+01 0.67079451085E+01 0.64909274863E+01 0.64380060404E+01 0.64375987756E+01
 0.64342017299E+01 0.64848824322E+01 0.67016413363E+01 0.71259562517E+01 0.76546970090E+01
 0.81092670330E+01 0.84071978873E+01 0.85204990576E+01 0.84088102855E+01 0.81122122550E+01
 0.93582205770E+01 0.84960310759E+01 0.76840752191E+01 0.70005856801E+01 0.65941895269E+01
 0.64371107400E+01 0.64404467516E+01 0.66002372670E+01 0.70019648620E+01 0.76782036686E+01
 0.84875659686E+01 0.93533383582E+01 0.10347522738E+02 0.11063016633E+02 0.11062274178E+02
 0.10347736398E+02 0.13132109803E+02 0.10741536253E+02 0.91047347866E+01 0.80014823594E+01
 0.71098886557E+01 0.65917017637E+01 0.64367225489E+01 0.66012010210E+01 0.71200688400E+01
 0.80046674537E+01 0.91024391139E+01 0.10741281852E+02 0.13137425805E+02 0.15401388393E+02
 0.16332173239E+02 0.15395328632E+02 0.20321525559E+02 0.15750031065E+02 0.11716805005E+02
 0.93405406604E+01 0.80007552744E+01 0.69973708319E+01 0.64863188320E+01 0.64871335616E+01
 0.69993046097E+01 0.80030526470E+01 0.93434190177E+01 0.11721254912E+02 0.15756122494E+02
 0.20327253392E+02 0.23381212291E+02 0.23378826012E+02 0.29522953110E+02 0.23625804194E+02
 0.16831330437E+02 0.11719142984E+02 0.91060182781E+01 0.76834979183E+01 0.67079451085E+01
 0.63662551647E+01 0.66991444835E+01 0.76747311480E+01 0.91048060004E+01 0.11723545759E+02
 0.16833316178E+02 0.23621560105E+02 0.29517350503E+02 0.31855371061E+02 0.37326591070E+02
 0.31960798482E+02 0.23625675360E+02 0.15753952049E+02 0.10744730152E+02 0.84953249408E+01
 0.71334366812E+01 0.63617581370E+01 0.63566298762E+01 0.71233914842E+01 0.84898712724E+01
 0.10746080145E+02 0.15754812354E+02 0.23619039482E+02 0.31949571076E+02 0.37320973122E+02
 0.19962530374E+02 0.18659832728E+02 0.15427104118E+02 0.11846464878E+02 0.92840375522E+01
 0.77844690878E+01 0.66199132750E+01 0.58905959021E+01 0.56523311955E+01 0.58914775081E+01
 0.66208235195E+01 0.77846133048E+01 0.92834605066E+01 0.11845855593E+02 0.15426948750E+02
 0.18659960832E+02 0.18657533018E+02 0.18658361088E+02 0.16363403422E+02 0.12959187500E+02
 0.99931205016E+01 0.81766913332E+01 0.69006480854E+01 0.59717063676E+01 0.55141641798E+01
 0.55163749204E+01 0.59764315976E+01 0.69039686366E+01 0.81761912188E+01 0.99895815764E+01
 0.12955171713E+02 0.16360792314E+02 0.15423492803E+02 0.16433258344E+02 0.15426841394E+02
 0.12960628566E+02 0.10296998596E+02 0.84045580508E+01 0.71104112383E+01 0.60892919293E+01
 0.54829227460E+01 0.52910096476E+01 0.54851492872E+01 0.60926221863E+01 0.71129541181E+01
 0.84045419770E+01 0.10293966343E+02 0.12956074395E+02 0.11848092006E+02 0.13143624084E+02
 0.13144513593E+02 0.11849483060E+02 0.99939513474E+01 0.84034298241E+01 0.71862163841E+01
 0.61705340169E+01 0.55032474044E+01 0.51953052103E+01 0.51941251507E+01 0.55011549003E+01
 0.61701270220E+01 0.71881320682E+01 0.84056360585E+01 0.99942458029E+01 0.92898722495E+01
 0.10286595239E+02 0.10699400881E+02 0.10282885094E+02 0.92843307530E+01 0.81741703913E+01
 0.71091183875E+01 0.61710842593E+01 0.55183718619E+01 0.51708210949E+01 0.50659330213E+01
 0.51668889481E+01 0.55131055262E+01 0.61678906087E+01 0.71099983227E+01 0.81786190320E+01
 0.77865515498E+01 0.85341489785E+01 0.89769931325E+01 0.89742926595E+01 0.85283614898E+01
 0.77823651704E+01 0.68997468888E+01 0.60906820509E+01 0.55043579182E+01 0.51707272702E+01
 0.50334632418E+01 0.50329794209E+01 0.51688271931E+01 0.55008567319E+01 0.60873534466E+01
 0.68996025784E+01 0.66173675720E+01 0.72811597227E+01 0.77773146866E+01 0.79606484172E+01
 0.77784993667E+01 0.72837576309E+01 0.66206266995E+01 0.59732480933E+01 0.54836487128E+01
 0.51947795803E+01 0.50653137947E+01 0.50328501435E+01 0.50688888167E+01 0.51989129073E+01
 0.54851492872E+01 0.59714524411E+01 0.58897695370E+01 0.63619466872E+01 0.68049846373E+01
 0.70742191039E+01 0.70774955363E+01 0.68124871085E+01 0.63685592371E+01 0.58914695065E+01
 0.55134862300E+01 0.52898448056E+01 0.51939362081E+01 0.51670810541E+01 0.51691131238E+01
 0.51992495947E+01 0.52960481135E+01 0.55170947625E+01 0.56534330821E+01 0.59118444346E+01
 0.62308065811E+01 0.64950563953E+01 0.65982243068E+01 0.64972188877E+01 0.62325985966E+01
 0.59112004532E+01 0.56511328764E+01 0.55151942011E+01 0.54860027737E+01 0.55024196733E+01
 0.55130620056E+01 0.55010109911E+01 0.54852768069E+01 0.55165919930E+01 0.58889154190E+01
 0.59122159597E+01 0.60523398765E+01 0.62404985662E+01 0.63705949412E+01 0.63681040315E+01
 0.62344162574E+01 0.60461195889E+01 0.59095199701E+01 0.58914969945E+01 0.59774799196E+01
 0.60943007789E+01 0.61694037762E+01 0.61666171205E+01 0.60876419176E+01 0.59709590375E+01
 0.66164573274E+01 0.63621913786E+01 0.62322609414E+01 0.62404984379E+01 0.63118840586E+01
 0.63482056352E+01 0.63073612249E+01 0.62352152879E+01 0.62302445357E+01 0.63643717523E+01
 0.66206266995E+01 0.69041646474E+01 0.71120741829E+01 0.71859732838E+01 0.71104112383E+01
 0.69006997858E+01 0.77863409709E+01 0.72799592492E+01 0.68063774526E+01 0.64955169440E+01
 0.63689891640E+01 0.63478809280E+01 0.63488132658E+01 0.63716563977E+01 0.64990907707E+01
 0.68089072544E+01 0.72793344046E+01 0.77822988085E+01 0.81760422743E+01 0.84037943544E+01
 0.84060166626E+01 0.81809910295E+01 0.92903477128E+01 0.85318924881E+01 0.77772755459E+01
 0.70756812260E+01 0.65968351876E+01 0.63671172810E+01 0.63090298456E+01 0.63722754243E+01
 0.66034325807E+01 0.70792035074E+01 0.77756451537E+01 0.85264232449E+01 0.92842291706E+01
 0.99917149340E+01 0.10294144383E+02 0.99955483148E+01 0.11848634929E+02 0.10285438862E+02
 0.89756988794E+01 0.79624069604E+01 0.70778512774E+01 0.64958151123E+01 0.62358488728E+01
 0.62366480317E+01 0.64972264467E+01 0.70780971264E+01 0.79610297090E+01 0.89740608530E+01
 0.10285055145E+02 0.11849416698E+02 0.12955128020E+02 0.12954589636E+02 0.15423648171E+02
 0.13145079521E+02 0.10698170105E+02 0.89746102656E+01 0.77801297588E+01 0.68115080008E+01
 0.62322609414E+01 0.60474007282E+01 0.62284525202E+01 0.68065353313E+01 0.77773146866E+01
 0.89756727123E+01 0.10702356677E+02 0.13150008672E+02 0.15426841394E+02 0.16357716944E+02
 0.18657432402E+02 0.16436158945E+02 0.13144221181E+02 0.10280868485E+02 0.85294921629E+01
 0.72842314574E+01 0.63670712175E+01 0.59114961175E+01 0.59094441093E+01 0.63626390413E+01
 0.72810087047E+01 0.85298104083E+01 0.10284194913E+02 0.13148260822E+02 0.16438989164E+02
 0.18658388576E+02 0.11040691553E+02 0.10633171525E+02 0.96540504326E+01 0.85778211971E+01
 0.75626254120E+01 0.66324395469E+01 0.59633655729E+01 0.55996738951E+01 0.54904586742E+01
 0.56002144520E+01 0.59638269094E+01 0.66322864391E+01 0.75619869364E+01 0.85772868780E+01
 0.96539726548E+01 0.10633330870E+02 0.10630796449E+02 0.10632347532E+02 0.99198124447E+01
 0.88803659057E+01 0.78457793069E+01 0.68331454849E+01 0.60178274439E+01 0.55086927037E+01
 0.52834366992E+01 0.52840037892E+01 0.55099944111E+01 0.60188147067E+01 0.68326107308E+01
 0.78431263799E+01 0.88762394466E+01 0.99160004301E+01 0.96503512238E+01 0.99672725249E+01
 0.96539138366E+01 0.88811685246E+01 0.79501245554E+01 0.69620819730E+01 0.60957107257E+01
 0.55006909035E+01 0.51895777403E+01 0.50982295421E+01 0.51897215219E+01 0.55017583425E+01
 0.60976316458E+01 0.69630955863E+01 0.79483390810E+01 0.88769943303E+01 0.85792537688E+01
 0.90204330157E+01 0.90208144266E+01 0.85794871607E+01 0.78462266950E+01 0.69614701229E+01
 0.61303171781E+01 0.55182002816E+01 0.51680317294E+01 0.50242842542E+01 0.50235144972E+01
 0.51668607875E+01 0.55186637289E+01 0.61328767101E+01 0.69644180007E+01 0.78476276924E+01
 0.75677467691E+01 0.80993318442E+01 0.82909984442E+01 0.80957020106E+01 0.75628367419E+01
 0.68318032016E+01 0.60950648101E+01 0.55185121092E+01 0.51684612756E+01 0.50087371858E+01
 0.49664589645E+01 0.50072097975E+01 0.51660778897E+01 0.55166968381E+01 0.60954932441E+01
 0.68351451524E+01 0.66333171327E+01 0.71888231466E+01 0.75151911417E+01 0.75130531195E+01
 0.71846463558E+01 0.66313796524E+01 0.60173673144E+01 0.55014558247E+01 0.51685735318E+01
 0.50086501222E+01 0.49565351630E+01 0.49567734270E+01 0.50082404911E+01 0.51659245902E+01