   2   2   0   0
  0.9638209E+01  0.2330000E-09  0.2330000E-09  0.4100000E-09  0.5000000E-15
  1.000000000000000E-004
  CAR 
 unknown system                          
     75.53590399     -5.37647428  301      7.43798842      1.00000000
     -5.376  0.0000E+00  0.0000E+00
     -5.107  0.0000E+00  0.0000E+00
     -4.837  0.0000E+00  0.0000E+00
     -4.567  0.0000E+00  0.0000E+00
     -4.298  0.0000E+00  0.0000E+00
     -4.028  0.0000E+00  0.0000E+00
     -3.758  0.0000E+00  0.0000E+00
     -3.489 -0.2466E-35 -0.6651E-36
     -3.219 -0.1033E-25 -0.2785E-26
     -2.949 -0.1103E-17 -0.2974E-18
     -2.679 -0.2835E-11 -0.7646E-12
     -2.410 -0.1781E-06 -0.4803E-07
     -2.140 -0.2298E-03 -0.6203E-04
     -1.870 -0.1840E-05 -0.6253E-04
     -1.601  0.4821E-01  0.1294E-01
     -1.331  0.5710E-01  0.2834E-01
     -1.061  0.7709E-01  0.4913E-01
     -0.791 -0.4117E-02  0.4802E-01
     -0.522 -0.6365E-02  0.4631E-01
     -0.252  0.7071E-01  0.6538E-01
      0.018  0.3959E+00  0.1722E+00
      0.287  0.6101E+00  0.3367E+00
      0.557  0.1264E+00  0.3708E+00
      0.827 -0.3492E-01  0.3614E+00
      1.097  0.3685E+00  0.4608E+00
      1.366  0.5147E+00  0.5996E+00
      1.636 -0.3141E-01  0.5911E+00
      1.906  0.1011E-02  0.5914E+00
      2.175  0.7064E+00  0.7819E+00
      2.445  0.2792E+01  0.1535E+01
      2.715  0.1794E+01  0.2019E+01
      2.984  0.2647E+01  0.2733E+01
      3.254  0.2829E+01  0.3496E+01
      3.524  0.2620E+01  0.4202E+01
      3.794  0.1339E+01  0.4564E+01
      4.063  0.2889E+01  0.5343E+01
      4.333  0.4699E+01  0.6610E+01
      4.603  0.2491E+01  0.7282E+01
      4.872  0.1424E+01  0.7666E+01
      5.142  0.3928E+01  0.8725E+01
      5.412  0.4074E+01  0.9824E+01
      5.682  0.2592E+01  0.1052E+02
      5.951  0.3384E+01  0.1144E+02
      6.221  0.2795E+01  0.1219E+02
      6.491  0.3865E+01  0.1323E+02
      6.760  0.3827E+01  0.1426E+02
      7.030  0.4357E+01  0.1544E+02
      7.300  0.1217E+01  0.1577E+02
      7.570  0.1951E+01  0.1629E+02
      7.839  0.2815E+01  0.1705E+02
      8.109  0.4212E+01  0.1819E+02
      8.379  0.4562E+01  0.1942E+02
      8.648  0.5008E+01  0.2077E+02
      8.918  0.2061E+01  0.2133E+02
      9.188  0.2638E+00  0.2140E+02
      9.457  0.1438E+01  0.2179E+02
      9.727  0.3366E-01  0.2179E+02
      9.997 -0.2650E-01  0.2179E+02
     10.267  0.1606E+00  0.2183E+02
     10.536  0.1837E+01  0.2233E+02
     10.806  0.1754E+00  0.2237E+02
     11.076 -0.1892E-01  0.2237E+02
     11.345 -0.1698E-02  0.2237E+02
     11.615  0.4457E-02  0.2237E+02
     11.885  0.3142E+00  0.2245E+02
     12.155  0.2210E-01  0.2246E+02
     12.424  0.3089E+00  0.2254E+02
     12.694  0.7641E+00  0.2275E+02
     12.964  0.1762E+01  0.2322E+02
     13.233  0.4021E+00  0.2333E+02
     13.503  0.2010E+00  0.2339E+02
     13.773  0.5057E+00  0.2352E+02
     14.042  0.1063E+00  0.2355E+02
     14.312  0.8089E+00  0.2377E+02
     14.582  0.1500E+00  0.2381E+02
     14.852  0.2060E-01  0.2382E+02
     15.121  0.3156E+00  0.2390E+02
     15.391  0.2255E+00  0.2396E+02
     15.661  0.4051E+00  0.2407E+02
     15.930  0.1614E+00  0.2411E+02
     16.200 -0.1522E-01  0.2411E+02
     16.470  0.2964E+00  0.2419E+02
     16.740  0.1088E+00  0.2422E+02
     17.009  0.3958E+00  0.2433E+02
     17.279  0.3751E-01  0.2434E+02
     17.549 -0.3602E-01  0.2433E+02
     17.818  0.5522E+00  0.2448E+02
     18.088  0.1671E+01  0.2493E+02
     18.358  0.6965E+00  0.2511E+02
     18.628 -0.3567E-01  0.2511E+02
     18.897  0.8676E+00  0.2534E+02
     19.167  0.6696E+00  0.2552E+02
     19.437  0.8210E+00  0.2574E+02
     19.706  0.9093E+00  0.2599E+02
     19.976  0.5711E+00  0.2614E+02
     20.246  0.1266E+01  0.2648E+02
     20.515  0.2198E+00  0.2654E+02
     20.785  0.6159E+00  0.2671E+02
     21.055  0.6082E+00  0.2687E+02
     21.325 -0.3755E-01  0.2686E+02
     21.594  0.2859E+00  0.2694E+02
     21.864  0.1121E+01  0.2724E+02
     22.134  0.1104E+01  0.2754E+02
     22.403  0.2415E+00  0.2760E+02
     22.673  0.4939E+00  0.2774E+02
     22.943  0.1409E+01  0.2812E+02
     23.213  0.1643E+00  0.2816E+02
     23.482  0.1403E+01  0.2854E+02
     23.752  0.1172E+01  0.2886E+02
     24.022  0.1864E+00  0.2891E+02
     24.291  0.2708E+00  0.2898E+02
     24.561 -0.3414E-01  0.2897E+02
     24.831  0.4375E+00  0.2909E+02
     25.101  0.6728E+00  0.2927E+02
     25.370  0.1077E+01  0.2956E+02
     25.640  0.1198E+01  0.2988E+02
     25.910  0.9163E+00  0.3013E+02
     26.179  0.1047E+01  0.3041E+02
     26.449  0.1406E+01  0.3079E+02
     26.719  0.1117E+01  0.3109E+02
     26.988  0.5800E+00  0.3125E+02
     27.258  0.1318E+01  0.3160E+02
     27.528  0.2326E+00  0.3167E+02
     27.798  0.1432E+01  0.3205E+02
     28.067  0.6010E+00  0.3222E+02
     28.337  0.1315E+01  0.3257E+02
     28.607  0.4396E+00  0.3269E+02
     28.876  0.1026E+01  0.3297E+02
     29.146  0.6673E+00  0.3315E+02
     29.416  0.7125E+00  0.3334E+02
     29.686  0.4407E+00  0.3346E+02
     29.955  0.5023E+00  0.3359E+02
     30.225  0.2209E+00  0.3365E+02
     30.495 -0.1962E-01  0.3365E+02
     30.764  0.4965E-01  0.3366E+02
     31.034  0.9212E+00  0.3391E+02
     31.304  0.5471E+00  0.3406E+02
     31.574  0.1749E+01  0.3453E+02
     31.843  0.1191E+01  0.3485E+02
     32.113  0.2156E+01  0.3543E+02
     32.383  0.3168E+00  0.3552E+02
     32.652  0.6727E+00  0.3570E+02
     32.922  0.1876E+01  0.3620E+02
     33.192  0.1149E+01  0.3651E+02
     33.461  0.4598E+00  0.3664E+02
     33.731  0.4512E+00  0.3676E+02
     34.001  0.3531E-01  0.3677E+02
     34.271  0.7222E+00  0.3696E+02
     34.540  0.2176E+01  0.3755E+02
     34.810  0.6839E+00  0.3773E+02
     35.080  0.1169E+01  0.3805E+02
     35.349 -0.2506E-02  0.3805E+02
     35.619 -0.1855E-01  0.3804E+02
     35.889  0.1033E+01  0.3832E+02
     36.159  0.4197E+00  0.3844E+02
     36.428  0.5198E+00  0.3858E+02
     36.698  0.3323E+00  0.3867E+02
     36.968  0.1263E+01  0.3901E+02
     37.237  0.7668E+00  0.3921E+02
     37.507  0.1026E+01  0.3949E+02
     37.777  0.7273E+00  0.3969E+02
     38.047  0.3360E+00  0.3978E+02
     38.316  0.1610E+01  0.4021E+02
     38.586  0.1123E+01  0.4051E+02
     38.856  0.4327E+00  0.4063E+02
     39.125  0.3070E+00  0.4071E+02
     39.395  0.6601E+00  0.4089E+02
     39.665  0.7094E+00  0.4108E+02
     39.934  0.1282E+01  0.4143E+02
     40.204  0.1310E+01  0.4178E+02
     40.474  0.2032E+00  0.4184E+02
     40.744  0.4664E+00  0.4196E+02
     41.013  0.2089E+01  0.4253E+02
     41.283  0.3122E+00  0.4261E+02
     41.553  0.4017E+00  0.4272E+02
     41.822  0.6120E+00  0.4288E+02
     42.092  0.1823E+01  0.4337E+02
     42.362  0.1580E+01  0.4380E+02
     42.632  0.7900E+00  0.4401E+02
     42.901  0.4518E+00  0.4414E+02
     43.171  0.8209E+00  0.4436E+02
     43.441  0.3346E+00  0.4445E+02
     43.710  0.9319E+00  0.4470E+02
     43.980  0.2352E+01  0.4533E+02
     44.250  0.4120E+00  0.4544E+02
     44.519  0.5981E+00  0.4561E+02
     44.789  0.9499E+00  0.4586E+02
     45.059  0.2826E+00  0.4594E+02
     45.329  0.1646E+01  0.4638E+02
     45.598  0.1174E+01  0.4670E+02
     45.868  0.1772E+01  0.4718E+02
     46.138  0.1022E+01  0.4745E+02
     46.407  0.5256E+00  0.4759E+02
     46.677  0.4457E+00  0.4771E+02
     46.947  0.1916E+01  0.4823E+02
     47.217  0.4541E+00  0.4835E+02
     47.486  0.5405E+00  0.4850E+02
     47.756  0.2017E+01  0.4904E+02
     48.026  0.1067E+01  0.4933E+02
     48.295  0.4757E+00  0.4946E+02
     48.565 -0.3740E-01  0.4945E+02
     48.835  0.6187E+00  0.4962E+02
     49.105  0.8299E+00  0.4984E+02
     49.374  0.1171E+00  0.4987E+02
     49.644  0.1767E+01  0.5035E+02
     49.914  0.1367E+01  0.5072E+02
     50.183  0.2677E+00  0.5079E+02
     50.453  0.1668E+01  0.5124E+02
     50.723  0.1069E+01  0.5153E+02
     50.992  0.2344E+01  0.5216E+02
     51.262  0.1391E+01  0.5253E+02
     51.532  0.1241E+00  0.5257E+02
     51.802  0.9468E+00  0.5282E+02
     52.071  0.3163E+00  0.5291E+02
     52.341  0.3220E-01  0.5292E+02
     52.611  0.7328E+00  0.5311E+02
     52.880  0.6445E+00  0.5329E+02
     53.150  0.1117E+01  0.5359E+02
     53.420  0.4993E+00  0.5372E+02
     53.690  0.1591E+01  0.5415E+02
     53.959  0.4291E+00  0.5427E+02
     54.229  0.9834E+00  0.5453E+02
     54.499  0.1297E+01  0.5488E+02
     54.768  0.2262E+01  0.5549E+02
     55.038  0.1121E+01  0.5580E+02
     55.308  0.1707E+01  0.5626E+02
     55.578  0.8858E+00  0.5650E+02
     55.847  0.5076E+00  0.5663E+02
     56.117  0.1144E+01  0.5694E+02
     56.387  0.1254E+01  0.5728E+02
     56.656  0.1046E+00  0.5731E+02
     56.926  0.4399E+00  0.5743E+02
     57.196  0.1829E+01  0.5792E+02
     57.465  0.2496E+01  0.5859E+02
     57.735  0.1899E+01  0.5911E+02
     58.005  0.1651E+01  0.5955E+02
     58.275  0.1947E+01  0.6008E+02
     58.544  0.1370E+01  0.6045E+02
     58.814  0.1384E+01  0.6082E+02
     59.084  0.1549E+01  0.6124E+02
     59.353  0.3053E+01  0.6206E+02
     59.623  0.9578E+00  0.6232E+02
     59.893  0.1857E+01  0.6282E+02
     60.163  0.1549E+01  0.6324E+02
     60.432  0.8742E+00  0.6347E+02
     60.702  0.1123E+01  0.6378E+02
     60.972  0.8430E+00  0.6400E+02
     61.241  0.1297E+01  0.6435E+02
     61.511  0.1562E+01  0.6477E+02
     61.781  0.1580E+01  0.6520E+02
     62.051  0.1048E+00  0.6523E+02
     62.320  0.9226E+00  0.6548E+02
     62.590  0.9500E+00  0.6573E+02
     62.860  0.1531E+01  0.6615E+02
     63.129  0.2095E+01  0.6671E+02
     63.399  0.2658E+01  0.6743E+02
     63.669  0.2932E+01  0.6822E+02
     63.938  0.6194E+00  0.6839E+02
     64.208  0.7493E+00  0.6859E+02
     64.478  0.2522E+01  0.6927E+02
     64.748  0.1724E+01  0.6973E+02
     65.017  0.5942E+00  0.6989E+02
     65.287  0.1225E+01  0.7022E+02
     65.557  0.2915E+01  0.7101E+02
     65.826  0.1324E+01  0.7137E+02
     66.096  0.1603E+01  0.7180E+02
     66.366  0.1296E+01  0.7215E+02
     66.636  0.2474E+01  0.7282E+02
     66.905  0.1851E+01  0.7332E+02
     67.175  0.1932E+01  0.7384E+02
     67.445  0.8037E+00  0.7405E+02
     67.714  0.1188E+01  0.7437E+02
     67.984  0.1655E+01  0.7482E+02
     68.254  0.1518E+01  0.7523E+02
     68.523  0.1215E+01  0.7556E+02
     68.793  0.1875E+01  0.7606E+02
     69.063  0.6116E+00  0.7623E+02
     69.333  0.2617E+01  0.7693E+02
     69.602  0.1776E+01  0.7741E+02
     69.872  0.1188E+01  0.7773E+02
     70.142  0.7142E+00  0.7793E+02
     70.411  0.7598E+00  0.7813E+02
     70.681  0.1906E+01  0.7864E+02
     70.951  0.1650E+01  0.7909E+02
     71.221  0.1878E+01  0.7960E+02
     71.490  0.8241E+00  0.7982E+02
     71.760  0.5955E-01  0.7983E+02
     72.030  0.6167E+00  0.8000E+02
     72.299  0.2911E-03  0.8000E+02
     72.569 -0.2758E-02  0.8000E+02
     72.839 -0.2137E-05  0.8000E+02
     73.109 -0.3402E-10  0.8000E+02
     73.378  0.0000E+00  0.8000E+02
     73.648  0.0000E+00  0.8000E+02
     73.918  0.0000E+00  0.8000E+02
     74.187  0.0000E+00  0.8000E+02
     74.457  0.0000E+00  0.8000E+02
     74.727  0.0000E+00  0.8000E+02
     74.996  0.0000E+00  0.8000E+02
     75.266  0.0000E+00  0.8000E+02
     75.536  0.0000E+00  0.8000E+02
