    2    2    1    1
  0.9638209E+01  0.2330000E-09  0.2330000E-09  0.4100000E-09  0.5000000E-15
  1.000000000000000E-004
  CAR 
 unknown system                          
     16     15     40
 
  0.0000000E+00  0.0000000E+00  0.0000000E+00  0.8000000E-02
    1       -1.698639   1.000000
    2        2.061642   1.000000
    3        4.886512   1.000000
    4        5.531961   1.000000
    5        5.533693   1.000000
    6        5.893333   1.000000
    7        5.895163   1.000000
    8        6.777908   1.000016
    9        6.964171   1.002037
   10        6.964577   1.002054
   11        7.966286  -0.000601
   12        7.966794  -0.000594
   13       15.216897   0.000000
   14       31.487709   0.000000
   15       31.675611   0.000000
   16       34.642513   0.000000
   17       37.315116   0.000000
   18       37.316525   0.000000
   19       38.156959   0.000000
   20       38.159421   0.000000
   21       39.374222   0.000000
   22       40.794559   0.000000
   23       40.794917   0.000000
   24       41.768302   0.000000
   25       45.260741   0.000000
   26       45.261248   0.000000
   27       45.429886   0.000000
   28       49.314741   0.000000
   29       49.319684   0.000000
   30       50.698486   0.000000
   31       50.701668   0.000000
   32       53.524389   0.000000
   33       61.138632   0.000000
   34       63.265929   0.000000
   35       63.276349   0.000000
   36       63.582498   0.000000
   37       65.133687   0.000000
   38       66.308596   0.000000
   39       66.317733   0.000000
   40       68.112057   0.000000
 
  0.2000000E+00 -0.1306388E-16  0.0000000E+00  0.4800000E-01
    1       -0.131630   1.000000
    2        3.022371   1.000000
    3        4.443659   1.000000
    4        4.730877   1.000000
    5        5.296216   1.000000
    6        6.059259   1.000000
    7        6.426278   1.000000
    8        6.482361   1.000000
    9        6.529307   1.000000
   10        6.790946   1.000024
   11        8.159330  -0.000002
   12       11.776785  -0.000000
   13       15.399075   0.000000
   14       25.810206   0.000000
   15       30.932504   0.000000
   16       31.507028   0.000000
   17       31.602816   0.000000
   18       33.175834   0.000000
   19       37.116713   0.000000
   20       38.498944   0.000000
   21       38.604680   0.000000
   22       39.466765   0.000000
   23       42.018176   0.000000
   24       43.203297   0.000000
   25       46.736614   0.000000
   26       48.138323   0.000000
   27       49.513419   0.000000
   28       51.929954   0.000000
   29       53.583395   0.000000
   30       56.326075   0.000000
   31       57.358683   0.000000
   32       58.952766   0.000000
   33       60.012360   0.000000
   34       60.074876   0.000000
   35       60.409906   0.000000
   36       62.380934   0.000000
   37       64.512466   0.000000
   38       68.290786   0.000000
   39       68.641028   0.000000
   40       69.693102   0.000000
 
  0.4000000E+00  0.1037082E-16  0.0000000E+00  0.4800000E-01
    1        2.353511   1.000000
    2        2.804654   1.000000
    3        3.059770   1.000000
    4        5.204891   1.000000
    5        5.475210   1.000000
    6        5.868962   1.000000
    7        5.972255   1.000000
    8        8.360623  -0.000000
    9        8.379841  -0.000000
   10        8.575264  -0.000000
   11        8.816405  -0.000000
   12       14.968717   0.000000
   13       16.843076   0.000000
   14       19.221924   0.000000
   15       24.089319   0.000000
   16       26.133197   0.000000
   17       26.444126   0.000000
   18       31.836002   0.000000
   19       34.427723   0.000000
   20       36.988147   0.000000
   21       38.845459   0.000000
   22       40.857572   0.000000
   23       41.878238   0.000000
   24       43.573667   0.000000
   25       50.223191   0.000000
   26       53.451047   0.000000
   27       54.301259   0.000000
   28       57.751722   0.000000
   29       58.171261   0.000000
   30       58.273384   0.000000
   31       59.191888   0.000000
   32       61.519697   0.000000
   33       62.823974   0.000000
   34       62.979116   0.000000
   35       64.886914   0.000000
   36       66.865072   0.000000
   37       67.893301   0.000000
   38       68.154464   0.000000
   39       69.476358   0.000000
   40       69.917569   0.000000
 
  0.2000000E+00  0.2000000E+00  0.0000000E+00  0.4800000E-01
    1        2.333034   1.000000
    2        3.504354   1.000000
    3        3.916704   1.000000
    4        3.953962   1.000000
    5        5.380313   1.000000
    6        5.495309   1.000000
    7        6.149196   1.000000
    8        6.555448   1.000000
    9        7.950713  -0.000867
   10        8.136937  -0.000005
   11        9.176986  -0.000000
   12       15.651080   0.000000
   13       16.383003   0.000000
   14       21.519657   0.000000
   15       22.333264   0.000000
   16       27.690945   0.000000
   17       29.079423   0.000000
   18       31.251564   0.000000
   19       31.840596   0.000000
   20       38.288537   0.000000
   21       40.187846   0.000000
   22       43.790483   0.000000
   23       44.282052   0.000000
   24       46.653581   0.000000
   25       47.672015   0.000000
   26       49.601595   0.000000
   27       49.947657   0.000000
   28       54.359650   0.000000
   29       57.075239   0.000000
   30       57.225070   0.000000
   31       57.524439   0.000000
   32       62.272532   0.000000
   33       62.853541   0.000000
   34       64.129364   0.000000
   35       65.452561   0.000000
   36       65.891690   0.000000
   37       66.531071   0.000000
   38       68.198696   0.000000
   39       68.646891   0.000000
   40       71.173787   0.000000
 
  0.4000000E+00  0.2000000E+00  0.0000000E+00  0.4800000E-01
    1        3.185125   1.000000
    2        3.317742   1.000000
    3        3.542578   1.000000
    4        4.865277   1.000000
    5        5.300928   1.000000
    6        5.307421   1.000000
    7        6.045903   1.000000
    8        7.815124  -0.011362
    9        7.929227  -0.001405
   10        8.211405  -0.000000
   11       12.397489  -0.000000
   12       14.295527   0.000000
   13       19.688662   0.000000
   14       20.202739   0.000000
   15       20.870096   0.000000
   16       22.720556   0.000000
   17       25.055011   0.000000
   18       27.055564   0.000000
   19       29.991770   0.000000
   20       40.751101   0.000000
   21       42.730230   0.000000
   22       43.938919   0.000000
   23       45.523388   0.000000
   24       46.706032   0.000000
   25       50.374360   0.000000
   26       50.671071   0.000000
   27       51.635852   0.000000
   28       54.076856   0.000000
   29       55.937683   0.000000
   30       58.035025   0.000000
   31       59.319174   0.000000
   32       60.725770   0.000000
   33       62.954132   0.000000
   34       63.272151   0.000000
   35       68.509330   0.000000
   36       68.762204   0.000000
   37       70.476950   0.000000
   38       70.630159   0.000000
   39       71.085067   0.000000
   40       71.294261   0.000000
 
  0.0000000E+00  0.0000000E+00  0.2000000E+00  0.1600000E-01
    1       -1.301974   1.000000
    2        1.933596   1.000000
    3        4.796778   1.000000
    4        5.539122   1.000000
    5        5.540813   1.000000
    6        5.816570   1.000000
    7        5.818347   1.000000
    8        5.844239   1.000000
    9        7.163643   1.032754
   10        7.164091   1.032827
   11        8.111215  -0.000010
   12        8.111702  -0.000010
   13       16.955653   0.000000
   14       29.090082   0.000000
   15       31.860587   0.000000
   16       33.905445   0.000000
   17       37.503704   0.000000
   18       37.504812   0.000000
   19       38.254116   0.000000
   20       38.256318   0.000000
   21       40.701342   0.000000
   22       40.702624   0.000000
   23       40.941659   0.000000
   24       42.956510   0.000000
   25       43.839753   0.000000
   26       43.841164   0.000000
   27       46.916897   0.000000
   28       50.421441   0.000000
   29       50.425738   0.000000
   30       52.623043   0.000000
   31       52.625558   0.000000
   32       52.741957   0.000000
   33       58.566490   0.000000
   34       62.633074   0.000000
   35       62.637342   0.000000
   36       63.207952   0.000000
   37       63.215090   0.000000
   38       63.356940   0.000000
   39       65.151502   0.000000
   40       68.251153   0.000000
 
  0.2000000E+00 -0.1306388E-16  0.2000000E+00  0.9600000E-01
    1        0.199867   1.000000
    2        3.002806   1.000000
    3        4.227756   1.000000
    4        4.874395   1.000000
    5        5.102831   1.000000
    6        5.770108   1.000000
    7        6.367774   1.000000
    8        6.689464   1.000001
    9        6.888795   1.000360
   10        6.955918   1.001712
   11        8.302733  -0.000000
   12       10.345448  -0.000000
   13       17.773076   0.000000
   14       26.182553   0.000000
   15       29.684516   0.000000
   16       30.893417   0.000000
   17       31.423328   0.000000
   18       32.886259   0.000000
   19       35.778581   0.000000
   20       37.583404   0.000000
   21       39.199913   0.000000
   22       40.870003   0.000000
   23       43.690439   0.000000
   24       45.787861   0.000000
   25       47.708703   0.000000
   26       47.965879   0.000000
   27       48.780392   0.000000
   28       51.088332   0.000000
   29       53.070950   0.000000
   30       56.097549   0.000000
   31       57.307470   0.000000
   32       58.200212   0.000000
   33       58.853112   0.000000
   34       59.058796   0.000000
   35       62.139032   0.000000
   36       64.455725   0.000000
   37       65.294685   0.000000
   38       65.824983   0.000000
   39       66.849002   0.000000
   40       69.561845   0.000000
 
  0.4000000E+00  0.1037082E-16  0.2000000E+00  0.9600000E-01
    1        2.223141   1.000000
    2        2.730099   1.000000
    3        3.497114   1.000000
    4        4.278999   1.000000
    5        5.903830   1.000000
    6        6.123792   1.000000
    7        6.829992   1.000075
    8        8.020388  -0.000151
    9        8.420407  -0.000000
   10        8.616470  -0.000000
   11        8.682301  -0.000000
   12       12.902806   0.000000
   13       18.032351   0.000000
   14       20.168241   0.000000
   15       23.366731   0.000000
   16       27.084705   0.000000
   17       27.674282   0.000000
   18       31.854748   0.000000
   19       34.222001   0.000000
   20       34.396274   0.000000
   21       37.366609   0.000000
   22       41.526816   0.000000
   23       42.287088   0.000000
   24       45.618070   0.000000
   25       49.734880   0.000000
   26       52.484390   0.000000
   27       54.684775   0.000000
   28       56.884152   0.000000
   29       57.140709   0.000000
   30       59.801846   0.000000
   31       60.401589   0.000000
   32       61.412300   0.000000
   33       63.013224   0.000000
   34       64.408656   0.000000
   35       65.526130   0.000000
   36       66.528070   0.000000
   37       67.147636   0.000000
   38       67.832672   0.000000
   39       70.461383   0.000000
   40       70.931818   0.000000
 
  0.2000000E+00  0.2000000E+00  0.2000000E+00  0.9600000E-01
    1        2.436725   1.000000
    2        3.297117   1.000000
    3        4.049563   1.000000
    4        4.096972   1.000000
    5        5.289679   1.000000
    6        5.409795   1.000000
    7        6.101344   1.000000
    8        6.916824   1.000712
    9        7.673988  -0.035130
   10        8.289396  -0.000000
   11        9.319026  -0.000000
   12       12.841814  -0.000000
   13       19.621854   0.000000
   14       21.878535   0.000000
   15       22.736750   0.000000
   16       26.459915   0.000000
   17       27.573808   0.000000
   18       32.453221   0.000000
   19       33.052310   0.000000
   20       35.881168   0.000000
   21       40.986411   0.000000
   22       43.911770   0.000000
   23       44.511477   0.000000
   24       45.273418   0.000000
   25       47.670708   0.000000
   26       49.639696   0.000000
   27       51.626901   0.000000
   28       53.493785   0.000000
   29       55.455336   0.000000
   30       58.606400   0.000000
   31       60.623487   0.000000
   32       62.544700   0.000000
   33       62.751955   0.000000
   34       63.470093   0.000000
   35       63.614500   0.000000
   36       65.871504   0.000000
   37       67.045928   0.000000
   38       67.585439   0.000000
   39       69.116205   0.000000
   40       69.209565   0.000000
 
  0.4000000E+00  0.2000000E+00  0.2000000E+00  0.9600000E-01
    1        2.953617   1.000000
    2        3.423311   1.000000
    3        4.062737   1.000000
    4        4.207168   1.000000
    5        5.070786   1.000000
    6        5.823894   1.000000
    7        6.378604   1.000000
    8        7.502302   0.242839
    9        8.042871  -0.000081
   10        8.354587  -0.000000
   11       12.530105  -0.000000
   12       14.124783   0.000000
   13       18.774712   0.000000
   14       19.348940   0.000000
   15       20.754917   0.000000
   16       24.805912   0.000000
   17       25.756539   0.000000
   18       26.624264   0.000000
   19       32.024842   0.000000
   20       38.340482   0.000000
   21       39.960683   0.000000
   22       42.074869   0.000000
   23       46.226556   0.000000
   24       47.623499   0.000000
   25       50.830076   0.000000
   26       50.886576   0.000000
   27       54.559009   0.000000
   28       55.277751   0.000000
   29       57.863872   0.000000
   30       58.375729   0.000000
   31       59.255161   0.000000
   32       59.726244   0.000000
   33       63.616286   0.000000
   34       64.235119   0.000000
   35       66.311987   0.000000
   36       68.489010   0.000000
   37       68.696185   0.000000
   38       70.740788   0.000000
   39       71.050287   0.000000
   40       71.858069   0.000000
 
  0.0000000E+00  0.0000000E+00  0.4000000E+00  0.1600000E-01
    1       -0.209555   1.000000
    2        1.160725   1.000000
    3        4.678204   1.000000
    4        4.831476   1.000000
    5        5.536460   1.000000
    6        5.538118   1.000000
    7        5.669538   1.000000
    8        5.671234   1.000000
    9        7.618159  -0.011545
   10        7.618661  -0.011975
   11        7.948823  -0.000906
   12        7.949373  -0.000895
   13       20.704415   0.000000
   14       25.007483   0.000000
   15       32.007376   0.000000
   16       32.715656   0.000000
   17       37.919940   0.000000
   18       37.920667   0.000000
   19       38.199891   0.000000
   20       38.201192   0.000000
   21       40.832268   0.000000
   22       40.834983   0.000000
   23       41.888883   0.000000
   24       41.891380   0.000000
   25       43.711104   0.000000
   26       44.845364   0.000000
   27       49.732711   0.000000
   28       50.850183   0.000000
   29       53.108853   0.000000
   30       53.112044   0.000000
   31       54.937841   0.000000
   32       54.940003   0.000000
   33       56.376396   0.000000
   34       58.983889   0.000000
   35       59.684532   0.000000
   36       59.688233   0.000000
   37       60.985895   0.000000
   38       60.990622   0.000000
   39       66.737382   0.000000
   40       68.941687   0.000000
 
  0.2000000E+00 -0.1306388E-16  0.4000000E+00  0.9600000E-01
    1        1.110098   1.000000
    2        2.275868   1.000000
    3        4.166624   1.000000
    4        4.596273   1.000000
    5        5.139812   1.000000
    6        5.460687   1.000000
    7        6.340666   1.000000
    8        6.479505   1.000000
    9        7.397785   0.666363
   10        7.672300  -0.034990
   11        7.885971  -0.003417
   12        8.649543  -0.000000
   13       21.740372   0.000000
   14       26.174573   0.000000
   15       27.012710   0.000000
   16       28.320646   0.000000
   17       32.774431   0.000000
   18       33.490777   0.000000
   19       34.350315   0.000000
   20       34.928066   0.000000
   21       42.209226   0.000000
   22       43.826801   0.000000
   23       45.309503   0.000000
   24       45.935254   0.000000
   25       46.845081   0.000000
   26       47.284621   0.000000
   27       50.892090   0.000000
   28       51.077011   0.000000
   29       53.670483   0.000000
   30       54.077613   0.000000
   31       55.105870   0.000000
   32       55.825523   0.000000
   33       57.747396   0.000000
   34       61.054100   0.000000
   35       61.616207   0.000000
   36       64.236497   0.000000
   37       64.490474   0.000000
   38       65.347373   0.000000
   39       66.604648   0.000000
   40       68.100432   0.000000
 
  0.4000000E+00  0.1037082E-16  0.4000000E+00  0.9600000E-01
    1        2.207898   1.000000
    2        2.506670   1.000000
    3        3.698310   1.000000
    4        3.898515   1.000000
    5        6.593613   1.000000
    6        6.645407   1.000000
    7        7.395641   0.674808
    8        7.748585  -0.025241
    9        8.512258  -0.000000
   10        8.598787  -0.000000
   11        8.657748  -0.000000
   12       10.438966  -0.000000
   13       18.942830   0.000000
   14       19.998869   0.000000
   15       25.237942   0.000000
   16       28.031626   0.000000
   17       28.847690   0.000000
   18       31.379811   0.000000
   19       31.997638   0.000000
   20       32.775236   0.000000
   21       36.904860   0.000000
   22       39.660136   0.000000
   23       45.154528   0.000000
   24       46.877338   0.000000
   25       48.942962   0.000000
   26       50.430537   0.000000
   27       54.858258   0.000000
   28       57.723045   0.000000
   29       58.751267   0.000000
   30       59.360023   0.000000
   31       60.087197   0.000000
   32       61.627354   0.000000
   33       65.397570   0.000000
   34       65.448010   0.000000
   35       65.875880   0.000000
   36       66.278337   0.000000
   37       66.434331   0.000000
   38       67.476322   0.000000
   39       69.382230   0.000000
   40       71.236385   0.000000
 
  0.2000000E+00  0.2000000E+00  0.4000000E+00  0.9600000E-01
    1        2.654157   1.000000
    2        2.988039   1.000000
    3        4.302042   1.000000
    4        4.418527   1.000000
    5        5.060130   1.000000
    6        5.093957   1.000000
    7        6.412194   1.000000
    8        6.942496   1.001280
    9        7.942631  -0.001043
   10        8.428738  -0.000000
   11        9.296271  -0.000000
   12       10.425697  -0.000000
   13       22.770788   0.000000
   14       23.273376   0.000000
   15       23.664109   0.000000
   16       25.395533   0.000000
   17       25.517747   0.000000
   18       28.693239   0.000000
   19       36.360742   0.000000
   20       38.117016   0.000000
   21       40.105823   0.000000
   22       41.903275   0.000000
   23       42.548464   0.000000
   24       43.081636   0.000000
   25       49.494181   0.000000
   26       50.385367   0.000000
   27       52.885540   0.000000
   28       55.150979   0.000000
   29       57.473837   0.000000
   30       59.248234   0.000000
   31       59.263189   0.000000
   32       61.012073   0.000000
   33       63.113494   0.000000
   34       63.275577   0.000000
   35       63.349965   0.000000
   36       63.641022   0.000000
   37       66.719638   0.000000
   38       69.234324   0.000000
   39       69.661588   0.000000
   40       70.438480   0.000000
 
  0.4000000E+00  0.2000000E+00  0.4000000E+00  0.9600000E-01
    1        2.958180   1.000000
    2        3.264070   1.000000
    3        4.046564   1.000000
    4        4.441517   1.000000
    5        5.018908   1.000000
    6        5.776438   1.000000
    7        6.816143   1.000050
    8        7.063040   1.011728
    9        8.099424  -0.000015
   10        8.316755  -0.000000
   11       12.891091  -0.000000
   12       13.550276   0.000000
   13       17.929973   0.000000
   14       18.126970   0.000000
   15       21.981535   0.000000
   16       23.531578   0.000000
   17       28.189536   0.000000
   18       29.303158   0.000000
   19       34.529726   0.000000
   20       34.876977   0.000000
   21       36.762854   0.000000
   22       39.800412   0.000000
   23       44.712584   0.000000
   24       45.814333   0.000000
   25       54.508532   0.000000
   26       54.584075   0.000000
   27       56.212958   0.000000
   28       57.135063   0.000000
   29       57.424152   0.000000
   30       58.202128   0.000000
   31       59.856530   0.000000
   32       61.365103   0.000000
   33       63.422834   0.000000
   34       64.620493   0.000000
   35       65.032765   0.000000
   36       67.110927   0.000000
   37       67.837803   0.000000
   38       69.197579   0.000000
   39       70.082947   0.000000
   40       70.730707   0.000000
