<?xml version="1.0" encoding="ISO-8859-1"?>
<modeling>
 <generator>
  <i name="program" type="string">vasp </i>
  <i name="version" type="string">6.2.0  </i>
  <i name="subversion" type="string">18Jan21 (build Mar 17 2021 09:06:54) complex                          serial </i>
  <i name="platform" type="string">LinuxIFC </i>
  <i name="date" type="string">2021 09 09 </i>
  <i name="time" type="string">13:51:15 </i>
 </generator>
 <incar>
  <i type="string" name="PREC">normal</i>
  <i type="int" name="ICHARG">     1</i>
  <i type="int" name="IBRION">    -1</i>
  <i name="EDIFF">      0.00000100</i>
  <i type="int" name="NSW">     0</i>
  <i name="ENCUT">    200.00000000</i>
  <i type="int" name="NBANDS">    40</i>
  <i type="int" name="ISMEAR">     1</i>
  <i name="SIGMA">      0.20000000</i>
  <i type="logical" name="LCHARG"> T  </i>
  <i type="int" name="KPAR">     1</i>
  <i type="int" name="NCORE">     1</i>
  <i type="string" name="GGA">PE</i>
 </incar>
 <primitive_cell>
  <structure name="primitive_cell" >
   <crystal>
    <varray name="basis" >
     <v>       2.33000000       0.00000000       0.00000000 </v>
     <v>      -1.16500000       2.01783919       0.00000000 </v>
     <v>       0.00000000       0.00000000       4.10000000 </v>
    </varray>
    <i name="volume">     19.27641779 </i>
    <varray name="rec_basis" >
     <v>       0.42918455       0.24778982       0.00000000 </v>
     <v>       0.00000000       0.49557963       0.00000000 </v>
     <v>       0.00000000       0.00000000       0.24390244 </v>
    </varray>
   </crystal>
   <varray name="positions" >
    <v>       0.00000000       0.00000000       0.00000000 </v>
    <v>       0.33333333       0.66666667       0.50000000 </v>
   </varray>
  </structure>
  <varray name="primitive_index" >
   <v type="int" >        1 </v>
   <v type="int" >        2 </v>
  </varray>
 </primitive_cell>
 <kpoints>
  <generation param="Monkhorst-Pack">
   <v type="int" name="divisions">       5        5        5 </v>
   <v name="usershift">      0.00000000       0.00000000       0.00000000 </v>
   <v name="genvec1">      0.20000000       0.00000000       0.00000000 </v>
   <v name="genvec2">      0.00000000       0.20000000       0.00000000 </v>
   <v name="genvec3">      0.00000000       0.00000000       0.20000000 </v>
   <v name="shift">      0.00000000       0.00000000       0.00000000 </v>
  </generation>
  <varray name="kpointlist" >
   <v>       0.00000000       0.00000000       0.00000000 </v>
   <v>       0.20000000      -0.00000000       0.00000000 </v>
   <v>       0.40000000       0.00000000       0.00000000 </v>
   <v>       0.20000000       0.20000000       0.00000000 </v>
   <v>       0.40000000       0.20000000       0.00000000 </v>
   <v>       0.00000000       0.00000000       0.20000000 </v>
   <v>       0.20000000      -0.00000000       0.20000000 </v>
   <v>       0.40000000       0.00000000       0.20000000 </v>
   <v>       0.20000000       0.20000000       0.20000000 </v>
   <v>       0.40000000       0.20000000       0.20000000 </v>
   <v>       0.00000000       0.00000000       0.40000000 </v>
   <v>       0.20000000      -0.00000000       0.40000000 </v>
   <v>       0.40000000       0.00000000       0.40000000 </v>
   <v>       0.20000000       0.20000000       0.40000000 </v>
   <v>       0.40000000       0.20000000       0.40000000 </v>
  </varray>
  <varray name="weights" >
   <v>       0.00800000 </v>
   <v>       0.04800000 </v>
   <v>       0.04800000 </v>
   <v>       0.04800000 </v>
   <v>       0.04800000 </v>
   <v>       0.01600000 </v>
   <v>       0.09600000 </v>
   <v>       0.09600000 </v>
   <v>       0.09600000 </v>
   <v>       0.09600000 </v>
   <v>       0.01600000 </v>
   <v>       0.09600000 </v>
   <v>       0.09600000 </v>
   <v>       0.09600000 </v>
   <v>       0.09600000 </v>
  </varray>
 </kpoints>
 <parameters>
  <separator name="general" >
   <i type="string" name="SYSTEM">unknown system</i>
   <i type="logical" name="LCOMPAT"> F  </i>
  </separator>
  <separator name="electronic" >
   <i type="string" name="PREC">normal</i>
   <i name="ENMAX">    200.00000000</i>
   <i name="ENAUG">    511.36800000</i>
   <i name="EDIFF">      0.00000100</i>
   <i type="int" name="IALGO">    38</i>
   <i type="int" name="IWAVPR">     0</i>
   <i type="int" name="NBANDS">    40</i>
   <i type="int" name="NBANDSLOW">    -1</i>
   <i type="int" name="NBANDSHIGH">    -1</i>
   <i name="NELECT">     16.00000000</i>
   <i type="int" name="TURBO">     0</i>
   <i type="int" name="IRESTART">     0</i>
   <i type="int" name="NREBOOT">     0</i>
   <i type="int" name="NMIN">     0</i>
   <i name="EREF">      0.00000000</i>
   <separator name="electronic smearing" >
    <i type="int" name="ISMEAR">     1</i>
    <i name="SIGMA">      0.20000000</i>
    <i name="KSPACING">      0.50000000</i>
    <i type="logical" name="KGAMMA"> T  </i>
    <i type="logical" name="KBLOWUP"> T  </i>
   </separator>
   <separator name="electronic projectors" >
    <i type="logical" name="LREAL"> F  </i>
    <v name="ROPT">      0.00000000</v>
    <i type="int" name="LMAXPAW">  -100</i>
    <i type="int" name="LMAXMIX">     2</i>
    <i type="logical" name="NLSPLINE"> F  </i>
   </separator>
   <separator name="electronic startup" >
    <i type="int" name="ISTART">     1</i>
    <i type="int" name="ICHARG">     1</i>
    <i type="int" name="INIWAV">     1</i>
   </separator>
   <separator name="electronic spin" >
    <i type="int" name="ISPIN">     1</i>
    <i type="logical" name="LNONCOLLINEAR"> F  </i>
    <v name="MAGMOM">      1.00000000      1.00000000</v>
    <i name="NUPDOWN">     -1.00000000</i>
    <i type="logical" name="LSORBIT"> F  </i>
    <v name="SAXIS">      0.00000000      0.00000000      1.00000000</v>
    <i type="logical" name="LSPIRAL"> F  </i>
    <v name="QSPIRAL">      0.00000000      0.00000000      0.00000000</v>
    <i type="logical" name="LZEROZ"> F  </i>
   </separator>
   <separator name="electronic exchange-correlation" >
    <i type="logical" name="LASPH"> F  </i>
    <i type="logical" name="LMETAGGA"> F  </i>
   </separator>
   <separator name="electronic convergence" >
    <i type="int" name="NELM">    60</i>
    <i type="int" name="NELMDL">     0</i>
    <i type="int" name="NELMIN">     2</i>
    <i name="ENINI">    200.00000000</i>
    <separator name="electronic convergence detail" >
     <i type="logical" name="LDIAG"> T  </i>
     <i type="logical" name="LSUBROT"> F  </i>
     <i name="WEIMIN">      0.00000000</i>
     <i name="EBREAK">      0.00000001</i>
     <i name="DEPER">      0.30000000</i>
     <i type="int" name="NRMM">     4</i>
     <i name="TIME">      0.40000000</i>
    </separator>
   </separator>
   <separator name="electronic mixer" >
    <i name="AMIX">      0.40000000</i>
    <i name="BMIX">      1.00000000</i>
    <i name="AMIN">      0.10000000</i>
    <i name="AMIX_MAG">      1.60000000</i>
    <i name="BMIX_MAG">      1.00000000</i>
    <separator name="electronic mixer details" >
     <i type="int" name="IMIX">     4</i>
     <i type="logical" name="MIXFIRST"> F  </i>
     <i type="int" name="MAXMIX">   -45</i>
     <i name="WC">    100.00000000</i>
     <i type="int" name="INIMIX">     1</i>
     <i type="int" name="MIXPRE">     1</i>
     <i type="int" name="MREMOVE">     5</i>
    </separator>
   </separator>
   <separator name="electronic dipolcorrection" >
    <i type="logical" name="LDIPOL"> F  </i>
    <i type="logical" name="LMONO"> F  </i>
    <i type="int" name="IDIPOL">     0</i>
    <i name="EPSILON">      1.00000000</i>
    <v name="DIPOL">   -100.00000000   -100.00000000   -100.00000000</v>
    <i name="EFIELD">      0.00000000</i>
   </separator>
  </separator>
  <separator name="grids" >
   <i type="int" name="NGX">     8</i>
   <i type="int" name="NGY">     8</i>
   <i type="int" name="NGZ">    14</i>
   <i type="int" name="NGXF">    16</i>
   <i type="int" name="NGYF">    16</i>
   <i type="int" name="NGZF">    28</i>
   <i type="logical" name="ADDGRID"> F  </i>
  </separator>
  <separator name="ionic" >
   <i type="int" name="NSW">     0</i>
   <i type="int" name="IBRION">    -1</i>
   <i type="int" name="MDALGO">     0</i>
   <i type="int" name="ISIF">     2</i>
   <i name="PSTRESS">      0.00000000</i>
   <i name="EDIFFG">      0.00001000</i>
   <i type="int" name="NFREE">     0</i>
   <i name="POTIM">      0.50000000</i>
   <i name="SMASS">     -3.00000000</i>
   <i name="SCALEE">      1.00000000</i>
  </separator>
  <separator name="ionic md" >
   <i name="TEBEG">      0.00010000</i>
   <i name="TEEND">      0.00010000</i>
   <i type="int" name="NBLOCK">     1</i>
   <i type="int" name="KBLOCK">     1</i>
   <i type="int" name="NPACO">   256</i>
   <i name="APACO">     16.00000000</i>
  </separator>
  <separator name="symmetry" >
   <i type="int" name="ISYM">     2</i>
   <i name="SYMPREC">      0.00001000</i>
  </separator>
  <separator name="dos" >
   <i type="int" name="LORBIT">     0</i>
   <v name="RWIGS">     -1.00000000</v>
   <i type="int" name="NEDOS">   301</i>
   <i name="EMIN">     10.00000000</i>
   <i name="EMAX">    -10.00000000</i>
   <i name="EFERMI">      0.00000000</i>
  </separator>
  <separator name="writing" >
   <i type="int" name="NWRITE">     2</i>
   <i type="logical" name="LWAVE"> T  </i>
   <i type="logical" name="LDOWNSAMPLE"> F  </i>
   <i type="logical" name="LCHARG"> T  </i>
   <i type="logical" name="LPARD"> F  </i>
   <i type="logical" name="LVTOT"> F  </i>
   <i type="logical" name="LVHAR"> F  </i>
   <i type="logical" name="LELF"> F  </i>
   <i type="logical" name="LOPTICS"> F  </i>
   <v name="STM">      0.00000000      0.00000000      0.00000000      0.00000000      0.00000000      0.00000000      0.00000000</v>
  </separator>
  <separator name="performance" >
   <i type="int" name="NPAR">     1</i>
   <i type="int" name="NSIM">     4</i>
   <i type="int" name="NBLK">    -1</i>
   <i type="logical" name="LPLANE"> T  </i>
   <i type="logical" name="LSCALAPACK"> F  </i>
   <i type="logical" name="LSCAAWARE"> F  </i>
   <i type="logical" name="LSCALU"> F  </i>
   <i type="logical" name="LASYNC"> F  </i>
   <i type="logical" name="LORBITALREAL"> F  </i>
  </separator>
  <separator name="miscellaneous" >
   <i type="int" name="IDIOT">     3</i>
   <i type="int" name="PHON_NSTRUCT">    -1</i>
   <i type="logical" name="LMUSIC"> F  </i>
   <v name="POMASS">     55.84700000</v>
   <v name="DARWINR">      0.00000000</v>
   <v name="DARWINV">      1.00000000</v>
   <i type="logical" name="LCORR"> T  </i>
  </separator>
  <i type="logical" name="GGA_COMPAT"> T  </i>
  <i type="logical" name="LBERRY"> F  </i>
  <i type="int" name="ICORELEVEL">     0</i>
  <i type="logical" name="LDAU"> F  </i>
  <i type="int" name="I_CONSTRAINED_M">     0</i>
  <separator name="electronic exchange-correlation" >
   <i type="string" name="GGA">PE</i>
   <i type="int" name="VOSKOWN">     0</i>
   <i type="logical" name="LHFCALC"> F  </i>
   <i type="string" name="PRECFOCK"></i>
   <i type="logical" name="LSYMGRAD"> F  </i>
   <i type="logical" name="LHFONE"> F  </i>
   <i type="logical" name="LRHFCALC"> F  </i>
   <i type="logical" name="LTHOMAS"> F  </i>
   <i type="logical" name="LMODELHF"> F  </i>
   <i type="logical" name="LFOCKACE"> F  </i>
   <i name="ENCUT4O">     -1.00000000</i>
   <i type="int" name="EXXOEP">     0</i>
   <i type="int" name="FOURORBIT">     0</i>
   <i name="AEXX">      0.00000000</i>
   <i name="HFALPHA">      0.00000000</i>
   <i name="MCALPHA">      0.00000000</i>
   <i name="ALDAX">      1.00000000</i>
   <i name="AGGAX">      1.00000000</i>
   <i name="ALDAC">      1.00000000</i>
   <i name="AGGAC">      1.00000000</i>
   <i type="int" name="NKREDX">     1</i>
   <i type="int" name="NKREDY">     1</i>
   <i type="int" name="NKREDZ">     1</i>
   <i type="logical" name="SHIFTRED"> F  </i>
   <i type="logical" name="ODDONLY"> F  </i>
   <i type="logical" name="EVENONLY"> F  </i>
   <i type="int" name="LMAXFOCK">     0</i>
   <i type="int" name="NMAXFOCKAE">     0</i>
   <i type="logical" name="LFOCKAEDFT"> F  </i>
   <i name="HFSCREEN">      0.00000000</i>
   <i name="HFSCREENC">      0.00000000</i>
   <i type="int" name="NBANDSGWLOW">     0</i>
  </separator>
  <separator name="vdW DFT" >
   <i type="logical" name="LUSE_VDW"> F  </i>
   <i name="Zab_VDW">     -0.84910000</i>
   <i name="PARAM1">      0.12340000</i>
   <i name="PARAM2">      1.00000000</i>
   <i name="PARAM3">      0.00000000</i>
  </separator>
  <separator name="model GW" >
   <i type="int" name="MODEL_GW">     0</i>
   <i name="MODEL_EPS0">      5.78292534</i>
   <i name="MODEL_ALPHA">      1.00000000</i>
  </separator>
  <separator name="linear response parameters" >
   <i type="logical" name="LEPSILON"> F  </i>
   <i type="logical" name="LRPA"> F  </i>
   <i type="logical" name="LNABLA"> F  </i>
   <i type="logical" name="LVEL"> F  </i>
   <i type="int" name="KINTER">     0</i>
   <i name="CSHIFT">      0.10000000</i>
   <i name="OMEGAMAX">     -1.00000000</i>
   <i name="DEG_THRESHOLD">      0.00200000</i>
   <i name="RTIME">     -0.10000000</i>
   <i name="WPLASMAI">      0.00000000</i>
   <v name="DFIELD">      0.00000000      0.00000000      0.00000000</v>
   <v name="WPLASMA">      0.00000000      0.00000000      0.00000000      0.00000000      0.00000000      0.00000000      0.00000000      0.00000000      0.00000000</v>
  </separator>
  <separator name="orbital magnetization" >
   <i type="logical" name="NUCIND"> F  </i>
   <v name="MAGPOS">      0.00000000      0.00000000      0.00000000</v>
   <i type="logical" name="LNICSALL"> T  </i>
   <i type="logical" name="ORBITALMAG"> F  </i>
   <i type="logical" name="LMAGBLOCH"> F  </i>
   <i type="logical" name="LCHIMAG"> F  </i>
   <i type="logical" name="LGAUGE"> T  </i>
   <i type="int" name="MAGATOM">     0</i>
   <v name="MAGDIPOL">      0.00000000      0.00000000      0.00000000</v>
   <v name="AVECCONST">      0.00000000      0.00000000      0.00000000</v>
  </separator>
  <separator name="response functions" >
   <i type="logical" name="LFINITE_TEMPERATURE"> F  </i>
   <i type="logical" name="LADDER"> F  </i>
   <i type="logical" name="LRPAFORCE"> F  </i>
   <i type="logical" name="LFXC"> F  </i>
   <i type="logical" name="LHARTREE"> T  </i>
   <i type="int" name="IBSE">     0</i>
   <v type="int" name="KPOINT">    -1     0     0     0</v>
   <i type="logical" name="LTCTC"> F  </i>
   <i type="logical" name="LTCTE"> F  </i>
   <i type="logical" name="LTETE"> F  </i>
   <i type="logical" name="LTRIPLET"> F  </i>
   <i type="logical" name="LFXCEPS"> F  </i>
   <i type="logical" name="LFXHEG"> F  </i>
   <i type="int" name="NATURALO">     2</i>
   <i type="logical" name="LHOLEGF"> F  </i>
   <i type="logical" name="L2ORDER"> F  </i>
   <i type="logical" name="LDMP1"> F  </i>
   <i type="logical" name="LMP2LT"> F  </i>
   <i type="logical" name="LSMP2LT"> F  </i>
   <i type="logical" name="LGWLF"> F  </i>
   <i name="ENCUTGW">     -2.00000000</i>
   <i name="ENCUTGWSOFT">     -2.00000000</i>
   <i name="ENCUTLF">     -1.00000000</i>
   <i type="logical" name="LESF_SPLINES"> F  </i>
   <i type="int" name="LMAXMP2">    -1</i>
   <i name="SCISSOR">      0.00000000</i>
   <i type="int" name="NOMEGA">     0</i>
   <i type="int" name="NOMEGAR">     0</i>
   <i type="int" name="NBANDSGW">    -1</i>
   <i type="int" name="NBANDSO">    -1</i>
   <i type="int" name="NBANDSV">    -1</i>
   <i type="int" name="NELM">     1</i>
   <i type="int" name="NELMHF">     1</i>
   <i type="int" name="DIM">     3</i>
   <i type="int" name="IESPILON">     4</i>
   <i type="int" name="ANTIRES">     0</i>
   <i name="OMEGAMAX">    -30.00000000</i>
   <i name="OMEGAMIN">    -30.00000000</i>
   <i name="OMEGATL">   -200.00000000</i>
   <i type="int" name="OMEGAGRID">     0</i>
   <i name="CSHIFT">     -0.10000000</i>
   <i type="logical" name="LSELFENERGY"> F  </i>
   <i type="logical" name="LSPECTRAL"> F  </i>
   <i type="logical" name="LSPECTRALGW"> F  </i>
   <i type="logical" name="LSINGLES"> F  </i>
   <i type="logical" name="LFERMIGW"> F  </i>
   <i type="logical" name="ODDONLYGW"> F  </i>
   <i type="logical" name="EVENONLYGW"> F  </i>
   <i type="int" name="NKREDLFX">     1</i>
   <i type="int" name="NKREDLFY">     1</i>
   <i type="int" name="NKREDLFZ">     1</i>
   <i type="int" name="MAXMEM">  2800</i>
   <i type="int" name="TELESCOPE">     0</i>
   <i type="int" name="NTAUPAR">    -1</i>
   <i type="int" name="NOMEGAPAR">    -1</i>
   <i name="DAMP_NEWTON">      0.80000001</i>
   <i name="LAMBDA">      1.00000000</i>
  </separator>
  <separator name="External order field" >
   <i name="OFIELD_KAPPA">      0.00000000</i>
   <v name="OFIELD_K">      0.00000000      0.00000000      0.00000000</v>
   <i name="OFIELD_Q6_NEAR">      0.00000000</i>
   <i name="OFIELD_Q6_FAR">      0.00000000</i>
   <i name="OFIELD_A">      0.00000000</i>
  </separator>
 </parameters>
 <atominfo>
  <atoms>       2 </atoms>
  <types>       1 </types>
  <array name="atoms" >
   <dimension dim="1">ion</dimension>
   <field type="string">element</field>
   <field type="int">atomtype</field>
   <set>
    <rc><c>Fe</c><c>   1</c></rc>
    <rc><c>Fe</c><c>   1</c></rc>
   </set>
  </array>
  <array name="atomtypes" >
   <dimension dim="1">type</dimension>
   <field type="int">atomspertype</field>
   <field type="string">element</field>
   <field>mass</field>
   <field>valence</field>
   <field type="string">pseudopotential</field>
   <set>
    <rc><c>   2</c><c>Fe</c><c>     55.84700000</c><c>      8.00000000</c><c>  PAW_PBE Fe 06Sep2000                  </c></rc>
   </set>
  </array>
 </atominfo>
 <structure name="initialpos" >
  <crystal>
   <varray name="basis" >
    <v>       2.33000000       0.00000000       0.00000000 </v>
    <v>      -1.16500000       2.01783919       0.00000000 </v>
    <v>       0.00000000       0.00000000       4.10000000 </v>
   </varray>
   <i name="volume">     19.27641779 </i>
   <varray name="rec_basis" >
    <v>       0.42918455       0.24778982       0.00000000 </v>
    <v>       0.00000000       0.49557963       0.00000000 </v>
    <v>       0.00000000       0.00000000       0.24390244 </v>
   </varray>
  </crystal>
  <varray name="positions" >
   <v>       0.00000000       0.00000000       0.00000000 </v>
   <v>       0.33333333       0.66666667       0.50000000 </v>
  </varray>
 </structure>
 <calculation>
  <scstep>
   <time name="dav">    0.07    0.09</time>
   <time name="total">    0.08    0.10</time>
   <energy>
    <i name="alphaZ">    143.41622339 </i>
    <i name="ewald">  -1249.69361233 </i>
    <i name="hartreedc">   -164.68583911 </i>
    <i name="XCdc">      7.13265827 </i>
    <i name="pawpsdc">   1583.80975907 </i>
    <i name="pawaedc">  -1598.15387407 </i>
    <i name="eentropy">     -0.00295593 </i>
    <i name="bandstr">     75.42904013 </i>
    <i name="atom">   1187.29615887 </i>
    <i name="e_fr_energy">    -15.45244171 </i>
    <i name="e_wo_entrp">    -15.44948578 </i>
    <i name="e_0_energy">    -15.45145640 </i>
   </energy>
  </scstep>
  <scstep>
   <time name="dav">    0.07    0.07</time>
   <time name="total">    0.08    0.08</time>
   <energy>
    <i name="e_fr_energy">    -15.45228726 </i>
    <i name="e_wo_entrp">    -15.44937732 </i>
    <i name="e_0_energy">    -15.45131728 </i>
   </energy>
  </scstep>
  <scstep>
   <time name="dav">    0.04    0.04</time>
   <time name="total">    0.05    0.05</time>
   <energy>
    <i name="e_fr_energy">    -15.45229729 </i>
    <i name="e_wo_entrp">    -15.44938599 </i>
    <i name="e_0_energy">    -15.45132686 </i>
   </energy>
  </scstep>
  <scstep>
   <time name="dav">    0.04    0.04</time>
   <time name="total">    0.05    0.05</time>
   <energy>
    <i name="alphaZ">    143.41622339 </i>
    <i name="ewald">  -1249.69361233 </i>
    <i name="hartreedc">   -164.68535360 </i>
    <i name="XCdc">      7.13263585 </i>
    <i name="pawpsdc">   1583.81021863 </i>
    <i name="pawaedc">  -1598.15460346 </i>
    <i name="eentropy">     -0.00291091 </i>
    <i name="bandstr">     75.42894611 </i>
    <i name="atom">   1187.29615887 </i>
    <i name="e_fr_energy">    -15.45229746 </i>
    <i name="e_wo_entrp">    -15.44938654 </i>
    <i name="e_0_energy">    -15.45132715 </i>
   </energy>
  </scstep>
  <structure>
   <crystal>
    <varray name="basis" >
     <v>       2.33000000       0.00000000       0.00000000 </v>
     <v>      -1.16500000       2.01783919       0.00000000 </v>
     <v>       0.00000000       0.00000000       4.10000000 </v>
    </varray>
    <i name="volume">     19.27641779 </i>
    <varray name="rec_basis" >
     <v>       0.42918455       0.24778982       0.00000000 </v>
     <v>       0.00000000       0.49557963       0.00000000 </v>
     <v>       0.00000000       0.00000000       0.24390244 </v>
    </varray>
   </crystal>
   <varray name="positions" >
    <v>       0.00000000       0.00000000       0.00000000 </v>
    <v>       0.33333333       0.66666667       0.50000000 </v>
   </varray>
  </structure>
  <varray name="forces" >
   <v>      -0.00000000      -0.00000000      -0.00000000 </v>
   <v>       0.00000000       0.00000000       0.00000000 </v>
  </varray>
  <varray name="stress" >
   <v>    -728.84388337      -0.00000000       0.00000000 </v>
   <v>      -0.00000000    -728.84388337       0.00000000 </v>
   <v>       0.00000000       0.00000000   -1390.95761513 </v>
  </varray>
  <energy>
   <i name="e_fr_energy">    -15.45229746 </i>
   <i name="e_wo_entrp">    -15.44938654 </i>
   <i name="e_0_energy">    -15.45132715 </i>
  </energy>
  <time name="totalsc">    0.30    0.32</time>
  <eigenvalues>
   <array>
    <dimension dim="1">band</dimension>
    <dimension dim="2">kpoint</dimension>
    <dimension dim="3">spin</dimension>
    <field>eigene</field>
    <field>occ</field>
    <set>
     <set comment="spin 1">
      <set comment="kpoint 1">
       <r>   -1.6986    1.0000 </r>
       <r>    2.0616    1.0000 </r>
       <r>    4.8865    1.0000 </r>
       <r>    5.5320    1.0000 </r>
       <r>    5.5337    1.0000 </r>
       <r>    5.8933    1.0000 </r>
       <r>    5.8952    1.0000 </r>
       <r>    6.7779    1.0000 </r>
       <r>    6.9642    1.0020 </r>
       <r>    6.9646    1.0021 </r>
       <r>    7.9663   -0.0006 </r>
       <r>    7.9668   -0.0006 </r>
       <r>   15.2169    0.0000 </r>
       <r>   31.4877    0.0000 </r>
       <r>   31.6756    0.0000 </r>
       <r>   34.6425    0.0000 </r>
       <r>   37.3151    0.0000 </r>
       <r>   37.3165    0.0000 </r>
       <r>   38.1570    0.0000 </r>
       <r>   38.1594    0.0000 </r>
       <r>   39.3742    0.0000 </r>
       <r>   40.7946    0.0000 </r>
       <r>   40.7949    0.0000 </r>
       <r>   41.7683    0.0000 </r>
       <r>   45.2607    0.0000 </r>
       <r>   45.2612    0.0000 </r>
       <r>   45.4299    0.0000 </r>
       <r>   49.3147    0.0000 </r>
       <r>   49.3197    0.0000 </r>
       <r>   50.6985    0.0000 </r>
       <r>   50.7017    0.0000 </r>
       <r>   53.5244    0.0000 </r>
       <r>   61.1386    0.0000 </r>
       <r>   63.2659    0.0000 </r>
       <r>   63.2763    0.0000 </r>
       <r>   63.5825    0.0000 </r>
       <r>   65.1337    0.0000 </r>
       <r>   66.3086    0.0000 </r>
       <r>   66.3177    0.0000 </r>
       <r>   68.1121    0.0000 </r>
      </set>
      <set comment="kpoint 2">
       <r>   -0.1316    1.0000 </r>
       <r>    3.0224    1.0000 </r>
       <r>    4.4437    1.0000 </r>
       <r>    4.7309    1.0000 </r>
       <r>    5.2962    1.0000 </r>
       <r>    6.0593    1.0000 </r>
       <r>    6.4263    1.0000 </r>
       <r>    6.4824    1.0000 </r>
       <r>    6.5293    1.0000 </r>
       <r>    6.7909    1.0000 </r>
       <r>    8.1593   -0.0000 </r>
       <r>   11.7768   -0.0000 </r>
       <r>   15.3991    0.0000 </r>
       <r>   25.8102    0.0000 </r>
       <r>   30.9325    0.0000 </r>
       <r>   31.5070    0.0000 </r>
       <r>   31.6028    0.0000 </r>
       <r>   33.1758    0.0000 </r>
       <r>   37.1167    0.0000 </r>
       <r>   38.4989    0.0000 </r>
       <r>   38.6047    0.0000 </r>
       <r>   39.4668    0.0000 </r>
       <r>   42.0182    0.0000 </r>
       <r>   43.2033    0.0000 </r>
       <r>   46.7366    0.0000 </r>
       <r>   48.1383    0.0000 </r>
       <r>   49.5134    0.0000 </r>
       <r>   51.9300    0.0000 </r>
       <r>   53.5834    0.0000 </r>
       <r>   56.3261    0.0000 </r>
       <r>   57.3587    0.0000 </r>
       <r>   58.9528    0.0000 </r>
       <r>   60.0124    0.0000 </r>
       <r>   60.0749    0.0000 </r>
       <r>   60.4099    0.0000 </r>
       <r>   62.3809    0.0000 </r>
       <r>   64.5125    0.0000 </r>
       <r>   68.2908    0.0000 </r>
       <r>   68.6410    0.0000 </r>
       <r>   69.6931    0.0000 </r>
      </set>
      <set comment="kpoint 3">
       <r>    2.3535    1.0000 </r>
       <r>    2.8047    1.0000 </r>
       <r>    3.0598    1.0000 </r>
       <r>    5.2049    1.0000 </r>
       <r>    5.4752    1.0000 </r>
       <r>    5.8690    1.0000 </r>
       <r>    5.9723    1.0000 </r>
       <r>    8.3606   -0.0000 </r>
       <r>    8.3798   -0.0000 </r>
       <r>    8.5753   -0.0000 </r>
       <r>    8.8164   -0.0000 </r>
       <r>   14.9687    0.0000 </r>
       <r>   16.8431    0.0000 </r>
       <r>   19.2219    0.0000 </r>
       <r>   24.0893    0.0000 </r>
       <r>   26.1332    0.0000 </r>
       <r>   26.4441    0.0000 </r>
       <r>   31.8360    0.0000 </r>
       <r>   34.4277    0.0000 </r>
       <r>   36.9881    0.0000 </r>
       <r>   38.8455    0.0000 </r>
       <r>   40.8576    0.0000 </r>
       <r>   41.8782    0.0000 </r>
       <r>   43.5737    0.0000 </r>
       <r>   50.2232    0.0000 </r>
       <r>   53.4510    0.0000 </r>
       <r>   54.3013    0.0000 </r>
       <r>   57.7517    0.0000 </r>
       <r>   58.1713    0.0000 </r>
       <r>   58.2734    0.0000 </r>
       <r>   59.1919    0.0000 </r>
       <r>   61.5197    0.0000 </r>
       <r>   62.8240    0.0000 </r>
       <r>   62.9791    0.0000 </r>
       <r>   64.8869    0.0000 </r>
       <r>   66.8651    0.0000 </r>
       <r>   67.8933    0.0000 </r>
       <r>   68.1545    0.0000 </r>
       <r>   69.4764    0.0000 </r>
       <r>   69.9176    0.0000 </r>
      </set>
      <set comment="kpoint 4">
       <r>    2.3330    1.0000 </r>
       <r>    3.5044    1.0000 </r>
       <r>    3.9167    1.0000 </r>
       <r>    3.9540    1.0000 </r>
       <r>    5.3803    1.0000 </r>
       <r>    5.4953    1.0000 </r>
       <r>    6.1492    1.0000 </r>
       <r>    6.5554    1.0000 </r>
       <r>    7.9507   -0.0009 </r>
       <r>    8.1369   -0.0000 </r>
       <r>    9.1770   -0.0000 </r>
       <r>   15.6511    0.0000 </r>
       <r>   16.3830    0.0000 </r>
       <r>   21.5197    0.0000 </r>
       <r>   22.3333    0.0000 </r>
       <r>   27.6909    0.0000 </r>
       <r>   29.0794    0.0000 </r>
       <r>   31.2516    0.0000 </r>
       <r>   31.8406    0.0000 </r>
       <r>   38.2885    0.0000 </r>
       <r>   40.1878    0.0000 </r>
       <r>   43.7905    0.0000 </r>
       <r>   44.2821    0.0000 </r>
       <r>   46.6536    0.0000 </r>
       <r>   47.6720    0.0000 </r>
       <r>   49.6016    0.0000 </r>
       <r>   49.9477    0.0000 </r>
       <r>   54.3596    0.0000 </r>
       <r>   57.0752    0.0000 </r>
       <r>   57.2251    0.0000 </r>
       <r>   57.5244    0.0000 </r>
       <r>   62.2725    0.0000 </r>
       <r>   62.8535    0.0000 </r>
       <r>   64.1294    0.0000 </r>
       <r>   65.4526    0.0000 </r>
       <r>   65.8917    0.0000 </r>
       <r>   66.5311    0.0000 </r>
       <r>   68.1987    0.0000 </r>
       <r>   68.6469    0.0000 </r>
       <r>   71.1738    0.0000 </r>
      </set>
      <set comment="kpoint 5">
       <r>    3.1851    1.0000 </r>
       <r>    3.3177    1.0000 </r>
       <r>    3.5426    1.0000 </r>
       <r>    4.8653    1.0000 </r>
       <r>    5.3009    1.0000 </r>
       <r>    5.3074    1.0000 </r>
       <r>    6.0459    1.0000 </r>
       <r>    7.8151   -0.0114 </r>
       <r>    7.9292   -0.0014 </r>
       <r>    8.2114   -0.0000 </r>
       <r>   12.3975   -0.0000 </r>
       <r>   14.2955    0.0000 </r>
       <r>   19.6887    0.0000 </r>
       <r>   20.2027    0.0000 </r>
       <r>   20.8701    0.0000 </r>
       <r>   22.7206    0.0000 </r>
       <r>   25.0550    0.0000 </r>
       <r>   27.0556    0.0000 </r>
       <r>   29.9918    0.0000 </r>
       <r>   40.7511    0.0000 </r>
       <r>   42.7302    0.0000 </r>
       <r>   43.9389    0.0000 </r>
       <r>   45.5234    0.0000 </r>
       <r>   46.7060    0.0000 </r>
       <r>   50.3744    0.0000 </r>
       <r>   50.6711    0.0000 </r>
       <r>   51.6359    0.0000 </r>
       <r>   54.0769    0.0000 </r>
       <r>   55.9377    0.0000 </r>
       <r>   58.0350    0.0000 </r>
       <r>   59.3192    0.0000 </r>
       <r>   60.7258    0.0000 </r>
       <r>   62.9541    0.0000 </r>
       <r>   63.2722    0.0000 </r>
       <r>   68.5093    0.0000 </r>
       <r>   68.7622    0.0000 </r>
       <r>   70.4770    0.0000 </r>
       <r>   70.6302    0.0000 </r>
       <r>   71.0851    0.0000 </r>
       <r>   71.2943    0.0000 </r>
      </set>
      <set comment="kpoint 6">
       <r>   -1.3020    1.0000 </r>
       <r>    1.9336    1.0000 </r>
       <r>    4.7968    1.0000 </r>
       <r>    5.5391    1.0000 </r>
       <r>    5.5408    1.0000 </r>
       <r>    5.8166    1.0000 </r>
       <r>    5.8183    1.0000 </r>
       <r>    5.8442    1.0000 </r>
       <r>    7.1636    1.0328 </r>
       <r>    7.1641    1.0328 </r>
       <r>    8.1112   -0.0000 </r>
       <r>    8.1117   -0.0000 </r>
       <r>   16.9557    0.0000 </r>
       <r>   29.0901    0.0000 </r>
       <r>   31.8606    0.0000 </r>
       <r>   33.9054    0.0000 </r>
       <r>   37.5037    0.0000 </r>
       <r>   37.5048    0.0000 </r>
       <r>   38.2541    0.0000 </r>
       <r>   38.2563    0.0000 </r>
       <r>   40.7013    0.0000 </r>
       <r>   40.7026    0.0000 </r>
       <r>   40.9417    0.0000 </r>
       <r>   42.9565    0.0000 </r>
       <r>   43.8398    0.0000 </r>
       <r>   43.8412    0.0000 </r>
       <r>   46.9169    0.0000 </r>
       <r>   50.4214    0.0000 </r>
       <r>   50.4257    0.0000 </r>
       <r>   52.6230    0.0000 </r>
       <r>   52.6256    0.0000 </r>
       <r>   52.7420    0.0000 </r>
       <r>   58.5665    0.0000 </r>
       <r>   62.6331    0.0000 </r>
       <r>   62.6373    0.0000 </r>
       <r>   63.2080    0.0000 </r>
       <r>   63.2151    0.0000 </r>
       <r>   63.3569    0.0000 </r>
       <r>   65.1515    0.0000 </r>
       <r>   68.2512    0.0000 </r>
      </set>
      <set comment="kpoint 7">
       <r>    0.1999    1.0000 </r>
       <r>    3.0028    1.0000 </r>
       <r>    4.2278    1.0000 </r>
       <r>    4.8744    1.0000 </r>
       <r>    5.1028    1.0000 </r>
       <r>    5.7701    1.0000 </r>
       <r>    6.3678    1.0000 </r>
       <r>    6.6895    1.0000 </r>
       <r>    6.8888    1.0004 </r>
       <r>    6.9559    1.0017 </r>
       <r>    8.3027   -0.0000 </r>
       <r>   10.3454   -0.0000 </r>
       <r>   17.7731    0.0000 </r>
       <r>   26.1826    0.0000 </r>
       <r>   29.6845    0.0000 </r>
       <r>   30.8934    0.0000 </r>
       <r>   31.4233    0.0000 </r>
       <r>   32.8863    0.0000 </r>
       <r>   35.7786    0.0000 </r>
       <r>   37.5834    0.0000 </r>
       <r>   39.1999    0.0000 </r>
       <r>   40.8700    0.0000 </r>
       <r>   43.6904    0.0000 </r>
       <r>   45.7879    0.0000 </r>
       <r>   47.7087    0.0000 </r>
       <r>   47.9659    0.0000 </r>
       <r>   48.7804    0.0000 </r>
       <r>   51.0883    0.0000 </r>
       <r>   53.0709    0.0000 </r>
       <r>   56.0975    0.0000 </r>
       <r>   57.3075    0.0000 </r>
       <r>   58.2002    0.0000 </r>
       <r>   58.8531    0.0000 </r>
       <r>   59.0588    0.0000 </r>
       <r>   62.1390    0.0000 </r>
       <r>   64.4557    0.0000 </r>
       <r>   65.2947    0.0000 </r>
       <r>   65.8250    0.0000 </r>
       <r>   66.8490    0.0000 </r>
       <r>   69.5618    0.0000 </r>
      </set>
      <set comment="kpoint 8">
       <r>    2.2231    1.0000 </r>
       <r>    2.7301    1.0000 </r>
       <r>    3.4971    1.0000 </r>
       <r>    4.2790    1.0000 </r>
       <r>    5.9038    1.0000 </r>
       <r>    6.1238    1.0000 </r>
       <r>    6.8300    1.0001 </r>
       <r>    8.0204   -0.0002 </r>
       <r>    8.4204   -0.0000 </r>
       <r>    8.6165   -0.0000 </r>
       <r>    8.6823   -0.0000 </r>
       <r>   12.9028    0.0000 </r>
       <r>   18.0324    0.0000 </r>
       <r>   20.1682    0.0000 </r>
       <r>   23.3667    0.0000 </r>
       <r>   27.0847    0.0000 </r>
       <r>   27.6743    0.0000 </r>
       <r>   31.8547    0.0000 </r>
       <r>   34.2220    0.0000 </r>
       <r>   34.3963    0.0000 </r>
       <r>   37.3666    0.0000 </r>
       <r>   41.5268    0.0000 </r>
       <r>   42.2871    0.0000 </r>
       <r>   45.6181    0.0000 </r>
       <r>   49.7349    0.0000 </r>
       <r>   52.4844    0.0000 </r>
       <r>   54.6848    0.0000 </r>
       <r>   56.8842    0.0000 </r>
       <r>   57.1407    0.0000 </r>
       <r>   59.8018    0.0000 </r>
       <r>   60.4016    0.0000 </r>
       <r>   61.4123    0.0000 </r>
       <r>   63.0132    0.0000 </r>
       <r>   64.4087    0.0000 </r>
       <r>   65.5261    0.0000 </r>
       <r>   66.5281    0.0000 </r>
       <r>   67.1476    0.0000 </r>
       <r>   67.8327    0.0000 </r>
       <r>   70.4614    0.0000 </r>
       <r>   70.9318    0.0000 </r>
      </set>
      <set comment="kpoint 9">
       <r>    2.4367    1.0000 </r>
       <r>    3.2971    1.0000 </r>
       <r>    4.0496    1.0000 </r>
       <r>    4.0970    1.0000 </r>
       <r>    5.2897    1.0000 </r>
       <r>    5.4098    1.0000 </r>
       <r>    6.1013    1.0000 </r>
       <r>    6.9168    1.0007 </r>
       <r>    7.6740   -0.0351 </r>
       <r>    8.2894   -0.0000 </r>
       <r>    9.3190   -0.0000 </r>
       <r>   12.8418   -0.0000 </r>
       <r>   19.6219    0.0000 </r>
       <r>   21.8785    0.0000 </r>
       <r>   22.7368    0.0000 </r>
       <r>   26.4599    0.0000 </r>
       <r>   27.5738    0.0000 </r>
       <r>   32.4532    0.0000 </r>
       <r>   33.0523    0.0000 </r>
       <r>   35.8812    0.0000 </r>
       <r>   40.9864    0.0000 </r>
       <r>   43.9118    0.0000 </r>
       <r>   44.5115    0.0000 </r>
       <r>   45.2734    0.0000 </r>
       <r>   47.6707    0.0000 </r>
       <r>   49.6397    0.0000 </r>
       <r>   51.6269    0.0000 </r>
       <r>   53.4938    0.0000 </r>
       <r>   55.4553    0.0000 </r>
       <r>   58.6064    0.0000 </r>
       <r>   60.6235    0.0000 </r>
       <r>   62.5447    0.0000 </r>
       <r>   62.7520    0.0000 </r>
       <r>   63.4701    0.0000 </r>
       <r>   63.6145    0.0000 </r>
       <r>   65.8715    0.0000 </r>
       <r>   67.0459    0.0000 </r>
       <r>   67.5854    0.0000 </r>
       <r>   69.1162    0.0000 </r>
       <r>   69.2096    0.0000 </r>
      </set>
      <set comment="kpoint 10">
       <r>    2.9536    1.0000 </r>
       <r>    3.4233    1.0000 </r>
       <r>    4.0627    1.0000 </r>
       <r>    4.2072    1.0000 </r>
       <r>    5.0708    1.0000 </r>
       <r>    5.8239    1.0000 </r>
       <r>    6.3786    1.0000 </r>
       <r>    7.5023    0.2428 </r>
       <r>    8.0429   -0.0001 </r>
       <r>    8.3546   -0.0000 </r>
       <r>   12.5301   -0.0000 </r>
       <r>   14.1248    0.0000 </r>
       <r>   18.7747    0.0000 </r>
       <r>   19.3489    0.0000 </r>
       <r>   20.7549    0.0000 </r>
       <r>   24.8059    0.0000 </r>
       <r>   25.7565    0.0000 </r>
       <r>   26.6243    0.0000 </r>
       <r>   32.0248    0.0000 </r>
       <r>   38.3405    0.0000 </r>
       <r>   39.9607    0.0000 </r>
       <r>   42.0749    0.0000 </r>
       <r>   46.2266    0.0000 </r>
       <r>   47.6235    0.0000 </r>
       <r>   50.8301    0.0000 </r>
       <r>   50.8866    0.0000 </r>
       <r>   54.5590    0.0000 </r>
       <r>   55.2778    0.0000 </r>
       <r>   57.8639    0.0000 </r>
       <r>   58.3757    0.0000 </r>
       <r>   59.2552    0.0000 </r>
       <r>   59.7262    0.0000 </r>
       <r>   63.6163    0.0000 </r>
       <r>   64.2351    0.0000 </r>
       <r>   66.3120    0.0000 </r>
       <r>   68.4890    0.0000 </r>
       <r>   68.6962    0.0000 </r>
       <r>   70.7408    0.0000 </r>
       <r>   71.0503    0.0000 </r>
       <r>   71.8581    0.0000 </r>
      </set>
      <set comment="kpoint 11">
       <r>   -0.2096    1.0000 </r>
       <r>    1.1607    1.0000 </r>
       <r>    4.6782    1.0000 </r>
       <r>    4.8315    1.0000 </r>
       <r>    5.5365    1.0000 </r>
       <r>    5.5381    1.0000 </r>
       <r>    5.6695    1.0000 </r>
       <r>    5.6712    1.0000 </r>
       <r>    7.6182   -0.0115 </r>
       <r>    7.6187   -0.0120 </r>
       <r>    7.9488   -0.0009 </r>
       <r>    7.9494   -0.0009 </r>
       <r>   20.7044    0.0000 </r>
       <r>   25.0075    0.0000 </r>
       <r>   32.0074    0.0000 </r>
       <r>   32.7157    0.0000 </r>
       <r>   37.9199    0.0000 </r>
       <r>   37.9207    0.0000 </r>
       <r>   38.1999    0.0000 </r>
       <r>   38.2012    0.0000 </r>
       <r>   40.8323    0.0000 </r>
       <r>   40.8350    0.0000 </r>
       <r>   41.8889    0.0000 </r>
       <r>   41.8914    0.0000 </r>
       <r>   43.7111    0.0000 </r>
       <r>   44.8454    0.0000 </r>
       <r>   49.7327    0.0000 </r>
       <r>   50.8502    0.0000 </r>
       <r>   53.1089    0.0000 </r>
       <r>   53.1120    0.0000 </r>
       <r>   54.9378    0.0000 </r>
       <r>   54.9400    0.0000 </r>
       <r>   56.3764    0.0000 </r>
       <r>   58.9839    0.0000 </r>
       <r>   59.6845    0.0000 </r>
       <r>   59.6882    0.0000 </r>
       <r>   60.9859    0.0000 </r>
       <r>   60.9906    0.0000 </r>
       <r>   66.7374    0.0000 </r>
       <r>   68.9417    0.0000 </r>
      </set>
      <set comment="kpoint 12">
       <r>    1.1101    1.0000 </r>
       <r>    2.2759    1.0000 </r>
       <r>    4.1666    1.0000 </r>
       <r>    4.5963    1.0000 </r>
       <r>    5.1398    1.0000 </r>
       <r>    5.4607    1.0000 </r>
       <r>    6.3407    1.0000 </r>
       <r>    6.4795    1.0000 </r>
       <r>    7.3978    0.6664 </r>
       <r>    7.6723   -0.0350 </r>
       <r>    7.8860   -0.0034 </r>
       <r>    8.6495   -0.0000 </r>
       <r>   21.7404    0.0000 </r>
       <r>   26.1746    0.0000 </r>
       <r>   27.0127    0.0000 </r>
       <r>   28.3206    0.0000 </r>
       <r>   32.7744    0.0000 </r>
       <r>   33.4908    0.0000 </r>
       <r>   34.3503    0.0000 </r>
       <r>   34.9281    0.0000 </r>
       <r>   42.2092    0.0000 </r>
       <r>   43.8268    0.0000 </r>
       <r>   45.3095    0.0000 </r>
       <r>   45.9353    0.0000 </r>
       <r>   46.8451    0.0000 </r>
       <r>   47.2846    0.0000 </r>
       <r>   50.8921    0.0000 </r>
       <r>   51.0770    0.0000 </r>
       <r>   53.6705    0.0000 </r>
       <r>   54.0776    0.0000 </r>
       <r>   55.1059    0.0000 </r>
       <r>   55.8255    0.0000 </r>
       <r>   57.7474    0.0000 </r>
       <r>   61.0541    0.0000 </r>
       <r>   61.6162    0.0000 </r>
       <r>   64.2365    0.0000 </r>
       <r>   64.4905    0.0000 </r>
       <r>   65.3474    0.0000 </r>
       <r>   66.6046    0.0000 </r>
       <r>   68.1004    0.0000 </r>
      </set>
      <set comment="kpoint 13">
       <r>    2.2079    1.0000 </r>
       <r>    2.5067    1.0000 </r>
       <r>    3.6983    1.0000 </r>
       <r>    3.8985    1.0000 </r>
       <r>    6.5936    1.0000 </r>
       <r>    6.6454    1.0000 </r>
       <r>    7.3956    0.6748 </r>
       <r>    7.7486   -0.0252 </r>
       <r>    8.5123   -0.0000 </r>
       <r>    8.5988   -0.0000 </r>
       <r>    8.6577   -0.0000 </r>
       <r>   10.4390   -0.0000 </r>
       <r>   18.9428    0.0000 </r>
       <r>   19.9989    0.0000 </r>
       <r>   25.2379    0.0000 </r>
       <r>   28.0316    0.0000 </r>
       <r>   28.8477    0.0000 </r>
       <r>   31.3798    0.0000 </r>
       <r>   31.9976    0.0000 </r>
       <r>   32.7752    0.0000 </r>
       <r>   36.9049    0.0000 </r>
       <r>   39.6601    0.0000 </r>
       <r>   45.1545    0.0000 </r>
       <r>   46.8773    0.0000 </r>
       <r>   48.9430    0.0000 </r>
       <r>   50.4305    0.0000 </r>
       <r>   54.8583    0.0000 </r>
       <r>   57.7230    0.0000 </r>
       <r>   58.7513    0.0000 </r>
       <r>   59.3600    0.0000 </r>
       <r>   60.0872    0.0000 </r>
       <r>   61.6274    0.0000 </r>
       <r>   65.3976    0.0000 </r>
       <r>   65.4480    0.0000 </r>
       <r>   65.8759    0.0000 </r>
       <r>   66.2783    0.0000 </r>
       <r>   66.4343    0.0000 </r>
       <r>   67.4763    0.0000 </r>
       <r>   69.3822    0.0000 </r>
       <r>   71.2364    0.0000 </r>
      </set>
      <set comment="kpoint 14">
       <r>    2.6542    1.0000 </r>
       <r>    2.9880    1.0000 </r>
       <r>    4.3020    1.0000 </r>
       <r>    4.4185    1.0000 </r>
       <r>    5.0601    1.0000 </r>
       <r>    5.0940    1.0000 </r>
       <r>    6.4122    1.0000 </r>
       <r>    6.9425    1.0013 </r>
       <r>    7.9426   -0.0010 </r>
       <r>    8.4287   -0.0000 </r>
       <r>    9.2963   -0.0000 </r>
       <r>   10.4257   -0.0000 </r>
       <r>   22.7708    0.0000 </r>
       <r>   23.2734    0.0000 </r>
       <r>   23.6641    0.0000 </r>
       <r>   25.3955    0.0000 </r>
       <r>   25.5177    0.0000 </r>
       <r>   28.6932    0.0000 </r>
       <r>   36.3607    0.0000 </r>
       <r>   38.1170    0.0000 </r>
       <r>   40.1058    0.0000 </r>
       <r>   41.9033    0.0000 </r>
       <r>   42.5485    0.0000 </r>
       <r>   43.0816    0.0000 </r>
       <r>   49.4942    0.0000 </r>
       <r>   50.3854    0.0000 </r>
       <r>   52.8855    0.0000 </r>
       <r>   55.1510    0.0000 </r>
       <r>   57.4738    0.0000 </r>
       <r>   59.2482    0.0000 </r>
       <r>   59.2632    0.0000 </r>
       <r>   61.0121    0.0000 </r>
       <r>   63.1135    0.0000 </r>
       <r>   63.2756    0.0000 </r>
       <r>   63.3500    0.0000 </r>
       <r>   63.6410    0.0000 </r>
       <r>   66.7196    0.0000 </r>
       <r>   69.2343    0.0000 </r>
       <r>   69.6616    0.0000 </r>
       <r>   70.4385    0.0000 </r>
      </set>
      <set comment="kpoint 15">
       <r>    2.9582    1.0000 </r>
       <r>    3.2641    1.0000 </r>
       <r>    4.0466    1.0000 </r>
       <r>    4.4415    1.0000 </r>
       <r>    5.0189    1.0000 </r>
       <r>    5.7764    1.0000 </r>
       <r>    6.8161    1.0001 </r>
       <r>    7.0630    1.0117 </r>
       <r>    8.0994   -0.0000 </r>
       <r>    8.3168   -0.0000 </r>
       <r>   12.8911   -0.0000 </r>
       <r>   13.5503    0.0000 </r>
       <r>   17.9300    0.0000 </r>
       <r>   18.1270    0.0000 </r>
       <r>   21.9815    0.0000 </r>
       <r>   23.5316    0.0000 </r>
       <r>   28.1895    0.0000 </r>
       <r>   29.3032    0.0000 </r>
       <r>   34.5297    0.0000 </r>
       <r>   34.8770    0.0000 </r>
       <r>   36.7629    0.0000 </r>
       <r>   39.8004    0.0000 </r>
       <r>   44.7126    0.0000 </r>
       <r>   45.8143    0.0000 </r>
       <r>   54.5085    0.0000 </r>
       <r>   54.5841    0.0000 </r>
       <r>   56.2130    0.0000 </r>
       <r>   57.1351    0.0000 </r>
       <r>   57.4242    0.0000 </r>
       <r>   58.2021    0.0000 </r>
       <r>   59.8565    0.0000 </r>
       <r>   61.3651    0.0000 </r>
       <r>   63.4228    0.0000 </r>
       <r>   64.6205    0.0000 </r>
       <r>   65.0328    0.0000 </r>
       <r>   67.1109    0.0000 </r>
       <r>   67.8378    0.0000 </r>
       <r>   69.1976    0.0000 </r>
       <r>   70.0829    0.0000 </r>
       <r>   70.7307    0.0000 </r>
      </set>
     </set>
    </set>
   </array>
  </eigenvalues>
  <separator name="orbital magnetization" >
   <v name="MAGDIPOLOUT">      0.00000000      0.00000000      0.00000000</v>
  </separator>
  <dos>
   <i name="efermi">      7.43798842 </i>
   <total>
    <array>
     <dimension dim="1">gridpoints</dimension>
     <dimension dim="2">spin</dimension>
     <field>energy</field>
     <field>total</field>
     <field>integrated</field>
     <set>
      <set comment="spin 1">
       <r>    -5.3765     0.0000     0.0000 </r>
       <r>    -5.1068     0.0000     0.0000 </r>
       <r>    -4.8371     0.0000     0.0000 </r>
       <r>    -4.5674     0.0000     0.0000 </r>
       <r>    -4.2976     0.0000     0.0000 </r>
       <r>    -4.0279     0.0000     0.0000 </r>
       <r>    -3.7582     0.0000     0.0000 </r>
       <r>    -3.4885    -0.0000    -0.0000 </r>
       <r>    -3.2188    -0.0000    -0.0000 </r>
       <r>    -2.9491    -0.0000    -0.0000 </r>
       <r>    -2.6794    -0.0000    -0.0000 </r>
       <r>    -2.4097    -0.0000    -0.0000 </r>
       <r>    -2.1400    -0.0002    -0.0001 </r>
       <r>    -1.8703    -0.0000    -0.0001 </r>
       <r>    -1.6006     0.0482     0.0129 </r>
       <r>    -1.3309     0.0571     0.0283 </r>
       <r>    -1.0611     0.0771     0.0491 </r>
       <r>    -0.7914    -0.0041     0.0480 </r>
       <r>    -0.5217    -0.0064     0.0463 </r>
       <r>    -0.2520     0.0707     0.0654 </r>
       <r>     0.0177     0.3959     0.1722 </r>
       <r>     0.2874     0.6101     0.3367 </r>
       <r>     0.5571     0.1264     0.3708 </r>
       <r>     0.8268    -0.0349     0.3614 </r>
       <r>     1.0965     0.3685     0.4608 </r>
       <r>     1.3662     0.5147     0.5996 </r>
       <r>     1.6359    -0.0314     0.5911 </r>
       <r>     1.9056     0.0010     0.5914 </r>
       <r>     2.1753     0.7064     0.7819 </r>
       <r>     2.4451     2.7923     1.5350 </r>
       <r>     2.7148     1.7936     2.0188 </r>
       <r>     2.9845     2.6470     2.7327 </r>
       <r>     3.2542     2.8294     3.4958 </r>
       <r>     3.5239     2.6198     4.2024 </r>
       <r>     3.7936     1.3390     4.5635 </r>
       <r>     4.0633     2.8889     5.3427 </r>
       <r>     4.3330     4.6994     6.6102 </r>
       <r>     4.6027     2.4905     7.2819 </r>
       <r>     4.8724     1.4243     7.6660 </r>
       <r>     5.1421     3.9276     8.7253 </r>
       <r>     5.4118     4.0743     9.8242 </r>
       <r>     5.6816     2.5922    10.5234 </r>
       <r>     5.9513     3.3840    11.4361 </r>
       <r>     6.2210     2.7951    12.1899 </r>
       <r>     6.4907     3.8647    13.2323 </r>
       <r>     6.7604     3.8273    14.2645 </r>
       <r>     7.0301     4.3573    15.4397 </r>
       <r>     7.2998     1.2173    15.7680 </r>
       <r>     7.5695     1.9509    16.2942 </r>
       <r>     7.8392     2.8153    17.0535 </r>
       <r>     8.1089     4.2119    18.1895 </r>
       <r>     8.3786     4.5616    19.4198 </r>
       <r>     8.6483     5.0081    20.7705 </r>
       <r>     8.9180     2.0607    21.3263 </r>
       <r>     9.1878     0.2638    21.3975 </r>
       <r>     9.4575     1.4376    21.7852 </r>
       <r>     9.7272     0.0337    21.7943 </r>
       <r>     9.9969    -0.0265    21.7871 </r>
       <r>    10.2666     0.1606    21.8304 </r>
       <r>    10.5363     1.8366    22.3258 </r>
       <r>    10.8060     0.1754    22.3731 </r>
       <r>    11.0757    -0.0189    22.3680 </r>
       <r>    11.3454    -0.0017    22.3676 </r>
       <r>    11.6151     0.0045    22.3688 </r>
       <r>    11.8848     0.3142    22.4535 </r>
       <r>    12.1545     0.0221    22.4594 </r>
       <r>    12.4242     0.3089    22.5428 </r>
       <r>    12.6940     0.7641    22.7488 </r>
       <r>    12.9637     1.7624    23.2242 </r>
       <r>    13.2334     0.4021    23.3326 </r>
       <r>    13.5031     0.2010    23.3868 </r>
       <r>    13.7728     0.5057    23.5232 </r>
       <r>    14.0425     0.1063    23.5519 </r>
       <r>    14.3122     0.8089    23.7701 </r>
       <r>    14.5819     0.1500    23.8105 </r>
       <r>    14.8516     0.0206    23.8161 </r>
       <r>    15.1213     0.3156    23.9012 </r>
       <r>    15.3910     0.2255    23.9620 </r>
       <r>    15.6607     0.4051    24.0713 </r>
       <r>    15.9305     0.1614    24.1148 </r>
       <r>    16.2002    -0.0152    24.1107 </r>
       <r>    16.4699     0.2964    24.1907 </r>
       <r>    16.7396     0.1088    24.2200 </r>
       <r>    17.0093     0.3958    24.3268 </r>
       <r>    17.2790     0.0375    24.3369 </r>
       <r>    17.5487    -0.0360    24.3272 </r>
       <r>    17.8184     0.5522    24.4761 </r>
       <r>    18.0881     1.6710    24.9268 </r>
       <r>    18.3578     0.6965    25.1146 </r>
       <r>    18.6275    -0.0357    25.1050 </r>
       <r>    18.8972     0.8676    25.3390 </r>
       <r>    19.1669     0.6696    25.5196 </r>
       <r>    19.4367     0.8210    25.7410 </r>
       <r>    19.7064     0.9093    25.9863 </r>
       <r>    19.9761     0.5711    26.1403 </r>
       <r>    20.2458     1.2656    26.4817 </r>
       <r>    20.5155     0.2198    26.5409 </r>
       <r>    20.7852     0.6159    26.7070 </r>
       <r>    21.0549     0.6082    26.8711 </r>
       <r>    21.3246    -0.0376    26.8609 </r>
       <r>    21.5943     0.2859    26.9380 </r>
       <r>    21.8640     1.1209    27.2404 </r>
       <r>    22.1337     1.1038    27.5381 </r>
       <r>    22.4034     0.2415    27.6032 </r>
       <r>    22.6732     0.4939    27.7364 </r>
       <r>    22.9429     1.4086    28.1163 </r>
       <r>    23.2126     0.1643    28.1606 </r>
       <r>    23.4823     1.4031    28.5390 </r>
       <r>    23.7520     1.1717    28.8551 </r>
       <r>    24.0217     0.1864    28.9053 </r>
       <r>    24.2914     0.2708    28.9784 </r>
       <r>    24.5611    -0.0341    28.9692 </r>
       <r>    24.8308     0.4375    29.0872 </r>
       <r>    25.1005     0.6728    29.2686 </r>
       <r>    25.3702     1.0768    29.5590 </r>
       <r>    25.6399     1.1983    29.8822 </r>
       <r>    25.9096     0.9163    30.1294 </r>
       <r>    26.1794     1.0468    30.4117 </r>
       <r>    26.4491     1.4059    30.7909 </r>
       <r>    26.7188     1.1169    31.0921 </r>
       <r>    26.9885     0.5800    31.2486 </r>
       <r>    27.2582     1.3184    31.6041 </r>
       <r>    27.5279     0.2326    31.6669 </r>
       <r>    27.7976     1.4320    32.0531 </r>
       <r>    28.0673     0.6010    32.2152 </r>
       <r>    28.3370     1.3152    32.5699 </r>
       <r>    28.6067     0.4396    32.6885 </r>
       <r>    28.8764     1.0264    32.9653 </r>
       <r>    29.1461     0.6673    33.1453 </r>
       <r>    29.4158     0.7125    33.3375 </r>
       <r>    29.6856     0.4407    33.4564 </r>
       <r>    29.9553     0.5023    33.5918 </r>
       <r>    30.2250     0.2209    33.6514 </r>
       <r>    30.4947    -0.0196    33.6461 </r>
       <r>    30.7644     0.0496    33.6595 </r>
       <r>    31.0341     0.9212    33.9080 </r>
       <r>    31.3038     0.5471    34.0555 </r>
       <r>    31.5735     1.7492    34.5273 </r>
       <r>    31.8432     1.1905    34.8484 </r>
       <r>    32.1129     2.1564    35.4300 </r>
       <r>    32.3826     0.3168    35.5155 </r>
       <r>    32.6523     0.6727    35.6969 </r>
       <r>    32.9221     1.8759    36.2029 </r>
       <r>    33.1918     1.1486    36.5127 </r>
       <r>    33.4615     0.4598    36.6367 </r>
       <r>    33.7312     0.4512    36.7583 </r>
       <r>    34.0009     0.0353    36.7679 </r>
       <r>    34.2706     0.7222    36.9626 </r>
       <r>    34.5403     2.1757    37.5494 </r>
       <r>    34.8100     0.6839    37.7339 </r>
       <r>    35.0797     1.1688    38.0491 </r>
       <r>    35.3494    -0.0025    38.0484 </r>
       <r>    35.6191    -0.0186    38.0434 </r>
       <r>    35.8888     1.0330    38.3220 </r>
       <r>    36.1585     0.4197    38.4352 </r>
       <r>    36.4283     0.5198    38.5754 </r>
       <r>    36.6980     0.3323    38.6650 </r>
       <r>    36.9677     1.2629    39.0056 </r>
       <r>    37.2374     0.7668    39.2125 </r>
       <r>    37.5071     1.0258    39.4891 </r>
       <r>    37.7768     0.7273    39.6853 </r>
       <r>    38.0465     0.3360    39.7759 </r>
       <r>    38.3162     1.6100    40.2101 </r>
       <r>    38.5859     1.1231    40.5130 </r>
       <r>    38.8556     0.4327    40.6297 </r>
       <r>    39.1253     0.3070    40.7125 </r>
       <r>    39.3950     0.6601    40.8906 </r>
       <r>    39.6647     0.7094    41.0819 </r>
       <r>    39.9345     1.2819    41.4276 </r>
       <r>    40.2042     1.3101    41.7810 </r>
       <r>    40.4739     0.2032    41.8358 </r>
       <r>    40.7436     0.4664    41.9616 </r>
       <r>    41.0133     2.0891    42.5250 </r>
       <r>    41.2830     0.3122    42.6092 </r>
       <r>    41.5527     0.4017    42.7176 </r>
       <r>    41.8224     0.6120    42.8826 </r>
       <r>    42.0921     1.8225    43.3742 </r>
       <r>    42.3618     1.5801    43.8004 </r>
       <r>    42.6315     0.7900    44.0134 </r>
       <r>    42.9012     0.4518    44.1353 </r>
       <r>    43.1710     0.8209    44.3567 </r>
       <r>    43.4407     0.3346    44.4469 </r>
       <r>    43.7104     0.9319    44.6983 </r>
       <r>    43.9801     2.3524    45.3327 </r>
       <r>    44.2498     0.4120    45.4438 </r>
       <r>    44.5195     0.5981    45.6052 </r>
       <r>    44.7892     0.9499    45.8614 </r>
       <r>    45.0589     0.2826    45.9376 </r>
       <r>    45.3286     1.6462    46.3816 </r>
       <r>    45.5983     1.1739    46.6982 </r>
       <r>    45.8680     1.7719    47.1761 </r>
       <r>    46.1377     1.0218    47.4517 </r>
       <r>    46.4074     0.5256    47.5934 </r>
       <r>    46.6772     0.4457    47.7136 </r>
       <r>    46.9469     1.9155    48.2303 </r>
       <r>    47.2166     0.4541    48.3527 </r>
       <r>    47.4863     0.5405    48.4985 </r>
       <r>    47.7560     2.0167    49.0424 </r>
       <r>    48.0257     1.0667    49.3301 </r>
       <r>    48.2954     0.4757    49.4584 </r>
       <r>    48.5651    -0.0374    49.4483 </r>
       <r>    48.8348     0.6187    49.6152 </r>
       <r>    49.1045     0.8299    49.8390 </r>
       <r>    49.3742     0.1171    49.8706 </r>
       <r>    49.6439     1.7672    50.3472 </r>
       <r>    49.9137     1.3673    50.7160 </r>
       <r>    50.1834     0.2677    50.7882 </r>
       <r>    50.4531     1.6684    51.2382 </r>
       <r>    50.7228     1.0694    51.5266 </r>
       <r>    50.9925     2.3443    52.1589 </r>
       <r>    51.2622     1.3912    52.5341 </r>
       <r>    51.5319     0.1241    52.5676 </r>
       <r>    51.8016     0.9468    52.8229 </r>
       <r>    52.0713     0.3163    52.9082 </r>
       <r>    52.3410     0.0322    52.9169 </r>
       <r>    52.6107     0.7328    53.1146 </r>
       <r>    52.8804     0.6445    53.2884 </r>
       <r>    53.1501     1.1169    53.5896 </r>
       <r>    53.4199     0.4993    53.7243 </r>
       <r>    53.6896     1.5912    54.1535 </r>
       <r>    53.9593     0.4291    54.2692 </r>
       <r>    54.2290     0.9834    54.5344 </r>
       <r>    54.4987     1.2969    54.8842 </r>
       <r>    54.7684     2.2623    55.4944 </r>
       <r>    55.0381     1.1209    55.7967 </r>
       <r>    55.3078     1.7069    56.2570 </r>
       <r>    55.5775     0.8858    56.4959 </r>
       <r>    55.8472     0.5076    56.6329 </r>
       <r>    56.1169     1.1445    56.9415 </r>
       <r>    56.3866     1.2540    57.2797 </r>
       <r>    56.6563     0.1046    57.3080 </r>
       <r>    56.9261     0.4399    57.4266 </r>
       <r>    57.1958     1.8293    57.9200 </r>
       <r>    57.4655     2.4963    58.5933 </r>
       <r>    57.7352     1.8993    59.1055 </r>
       <r>    58.0049     1.6506    59.5507 </r>
       <r>    58.2746     1.9469    60.0758 </r>
       <r>    58.5443     1.3697    60.4452 </r>
       <r>    58.8140     1.3838    60.8184 </r>
       <r>    59.0837     1.5493    61.2363 </r>
       <r>    59.3534     3.0527    62.0596 </r>
       <r>    59.6231     0.9578    62.3179 </r>
       <r>    59.8928     1.8568    62.8187 </r>
       <r>    60.1626     1.5492    63.2365 </r>
       <r>    60.4323     0.8742    63.4723 </r>
       <r>    60.7020     1.1231    63.7752 </r>
       <r>    60.9717     0.8430    64.0026 </r>
       <r>    61.2414     1.2967    64.3523 </r>
       <r>    61.5111     1.5615    64.7735 </r>
       <r>    61.7808     1.5798    65.1995 </r>
       <r>    62.0505     0.1048    65.2278 </r>
       <r>    62.3202     0.9226    65.4767 </r>
       <r>    62.5899     0.9500    65.7329 </r>
       <r>    62.8596     1.5310    66.1458 </r>
       <r>    63.1293     2.0948    66.7108 </r>
       <r>    63.3990     2.6578    67.4276 </r>
       <r>    63.6688     2.9321    68.2184 </r>
       <r>    63.9385     0.6194    68.3855 </r>
       <r>    64.2082     0.7493    68.5876 </r>
       <r>    64.4779     2.5223    69.2679 </r>
       <r>    64.7476     1.7239    69.7328 </r>
       <r>    65.0173     0.5942    69.8931 </r>
       <r>    65.2870     1.2250    70.2235 </r>
       <r>    65.5567     2.9151    71.0097 </r>
       <r>    65.8264     1.3236    71.3667 </r>
       <r>    66.0961     1.6031    71.7990 </r>
       <r>    66.3658     1.2965    72.1487 </r>
       <r>    66.6355     2.4741    72.8160 </r>
       <r>    66.9053     1.8506    73.3151 </r>
       <r>    67.1750     1.9324    73.8363 </r>
       <r>    67.4447     0.8037    74.0531 </r>
       <r>    67.7144     1.1882    74.3735 </r>
       <r>    67.9841     1.6547    74.8198 </r>
       <r>    68.2538     1.5176    75.2291 </r>
       <r>    68.5235     1.2153    75.5569 </r>
       <r>    68.7932     1.8746    76.0625 </r>
       <r>    69.0629     0.6116    76.2274 </r>
       <r>    69.3326     2.6172    76.9333 </r>
       <r>    69.6023     1.7762    77.4124 </r>
       <r>    69.8720     1.1884    77.7329 </r>
       <r>    70.1417     0.7142    77.9255 </r>
       <r>    70.4115     0.7598    78.1304 </r>
       <r>    70.6812     1.9059    78.6445 </r>
       <r>    70.9509     1.6500    79.0895 </r>
       <r>    71.2206     1.8780    79.5960 </r>
       <r>    71.4903     0.8241    79.8183 </r>
       <r>    71.7600     0.0596    79.8343 </r>
       <r>    72.0297     0.6167    80.0007 </r>
       <r>    72.2994     0.0003    80.0007 </r>
       <r>    72.5691    -0.0028    80.0000 </r>
       <r>    72.8388    -0.0000    80.0000 </r>
       <r>    73.1085    -0.0000    80.0000 </r>
       <r>    73.3782     0.0000    80.0000 </r>
       <r>    73.6479     0.0000    80.0000 </r>
       <r>    73.9177     0.0000    80.0000 </r>
       <r>    74.1874     0.0000    80.0000 </r>
       <r>    74.4571     0.0000    80.0000 </r>
       <r>    74.7268     0.0000    80.0000 </r>
       <r>    74.9965     0.0000    80.0000 </r>
       <r>    75.2662     0.0000    80.0000 </r>
       <r>    75.5359     0.0000    80.0000 </r>
      </set>
     </set>
    </array>
   </total>
  </dos>
 </calculation>
 <structure name="finalpos" >
  <crystal>
   <varray name="basis" >
    <v>       2.33000000       0.00000000       0.00000000 </v>
    <v>      -1.16500000       2.01783919       0.00000000 </v>
    <v>       0.00000000       0.00000000       4.10000000 </v>
   </varray>
   <i name="volume">     19.27641779 </i>
   <varray name="rec_basis" >
    <v>       0.42918455       0.24778982       0.00000000 </v>
    <v>       0.00000000       0.49557963       0.00000000 </v>
    <v>       0.00000000       0.00000000       0.24390244 </v>
   </varray>
  </crystal>
  <varray name="positions" >
   <v>       0.00000000       0.00000000       0.00000000 </v>
   <v>       0.33333333       0.66666667       0.50000000 </v>
  </varray>
 </structure>
</modeling>
