unknown system                          
   1.00000000000000     
     3.445083    0.000000    0.000000
     0.000000    3.445083    0.000000
     0.000000    0.000000    3.445083
   Fe
     4
Direct
  0.000000  0.000000  0.000000
  0.500000  0.500000  0.000000
  0.500000  0.000000  0.500000
  0.000000  0.500000  0.500000
 
   32   32   32
  342.73      327.31      285.68      228.92      168.86      114.18      70.204      39.849      23.238      16.680    
  13.864      11.918      10.693      9.9632      9.5226      9.2609      9.1688      9.2609      9.5226      9.9632    
  10.693      11.918      13.864      16.680      23.238      39.849      70.204      114.18      168.86      228.92    
  285.68      327.31      327.31      312.47      272.41      217.88      160.33      108.18      66.507      37.994    
  22.577      16.542      13.830      11.943      10.753      10.041      9.6086      9.3514      9.2609      9.3514    
  9.6086      10.041      10.753      11.943      13.830      16.542      22.577      37.994      66.507      108.18    
  160.33      217.88      272.41      312.47      285.68      272.41      236.67      188.24      137.56      92.273    
  56.818      33.226      20.933      16.198      13.741      12.017      10.924      10.261      9.8531      9.6086    
  9.5226      9.6086      9.8531      10.261      10.924      12.017      13.741      16.198      20.933      33.226    
  56.818      92.273      137.56      188.24      236.67      272.41      228.92      217.88      188.24      148.39    
  107.31      71.517      44.505      27.419      19.068      15.765      13.638      12.156      11.211      10.627    
  10.261      10.041      9.9632      10.041      10.261      10.627      11.211      12.156      13.638      15.765    
  19.068      27.419      44.505      71.517      107.31      148.39      188.24      217.88      168.86      160.33    
  137.56      107.31      76.847      51.283      33.062      22.415      17.618      15.319      13.595      12.417    
  11.670      11.211      10.924      10.753      10.693      10.753      10.924      11.211      11.670      12.417    
  13.595      15.319      17.618      22.415      33.062      51.283      76.847      107.31      137.56      160.33    
  114.18      108.18      92.273      71.517      51.283      35.206      24.661      19.148      16.679      14.963    
  13.706      12.894      12.417      12.156      12.017      11.943      11.918      11.943      12.017      12.156    
  12.417      12.894      13.706      14.963      16.679      19.148      24.661      35.206      51.283      71.517    
  92.273      108.18      70.204      66.507      56.818      44.505      33.062      24.661      19.766      17.428    
  15.947      14.808      14.078      13.706      13.595      13.638      13.741      13.830      13.864      13.830    
  13.741      13.638      13.595      13.706      14.078      14.808      15.947      17.428      19.766      24.661    
  33.062      44.505      56.818      66.507      39.849      37.994      33.226      27.419      22.415      19.148    
  17.428      16.305      15.447      14.947      14.808      14.963      15.319      15.765      16.198      16.542    
  16.680      16.542      16.198      15.765      15.319      14.963      14.808      14.947      15.447      16.305    
  17.428      19.148      22.415      27.419      33.226      37.994      23.238      22.577      20.933      19.068    
  17.618      16.679      15.947      15.447      15.268      15.447      15.947      16.679      17.618      19.068    
  20.933      22.577      23.238      22.577      20.933      19.068      17.618      16.679      15.947      15.447    
  15.268      15.447      15.947      16.679      17.618      19.068      20.933      22.577      16.680      16.542    
  16.198      15.765      15.319      14.963      14.808      14.947      15.447      16.305      17.428      19.148    
  22.415      27.419      33.226      37.994      39.849      37.994      33.226      27.419      22.415      19.148    
  17.428      16.305      15.447      14.947      14.808      14.963      15.319      15.765      16.198      16.542    
  13.864      13.830      13.741      13.638      13.595      13.706      14.078      14.808      15.947      17.428    
  19.766      24.661      33.062      44.505      56.818      66.507      70.204      66.507      56.818      44.505    
  33.062      24.661      19.766      17.428      15.947      14.808      14.078      13.706      13.595      13.638    
  13.741      13.830      11.918      11.943      12.017      12.156      12.417      12.894      13.706      14.963    
  16.679      19.148      24.661      35.206      51.283      71.517      92.273      108.18      114.18      108.18    
  92.273      71.517      51.283      35.206      24.661      19.148      16.679      14.963      13.706      12.894    
  12.417      12.156      12.017      11.943      10.693      10.753      10.924      11.211      11.670      12.417    
  13.595      15.319      17.618      22.415      33.062      51.283      76.847      107.31      137.56      160.33    
  168.86      160.33      137.56      107.31      76.847      51.283      33.062      22.415      17.618      15.319    
  13.595      12.417      11.670      11.211      10.924      10.753      9.9632      10.041      10.261      10.627    
  11.211      12.156      13.638      15.765      19.068      27.419      44.505      71.517      107.31      148.39    
  188.24      217.88      228.92      217.88      188.24      148.39      107.31      71.517      44.505      27.419    
  19.068      15.765      13.638      12.156      11.211      10.627      10.261      10.041      9.5226      9.6086    
  9.8531      10.261      10.924      12.017      13.741      16.198      20.933      33.226      56.818      92.273    
  137.56      188.24      236.67      272.41      285.68      272.41      236.67      188.24      137.56      92.273    
  56.818      33.226      20.933      16.198      13.741      12.017      10.924      10.261      9.8531      9.6086    
  9.2609      9.3514      9.6086      10.041      10.753      11.943      13.830      16.542      22.577      37.994    
  66.507      108.18      160.33      217.88      272.41      312.47      327.31      312.47      272.41      217.88    
  160.33      108.18      66.507      37.994      22.577      16.542      13.830      11.943      10.753      10.041    
  9.6086      9.3514      9.1688      9.2609      9.5226      9.9632      10.693      11.918      13.864      16.680    
  23.238      39.849      70.204      114.18      168.86      228.92      285.68      327.31      342.73      327.31    
  285.68      228.92      168.86      114.18      70.204      39.849      23.238      16.680      13.864      11.918    
  10.693      9.9632      9.5226      9.2609      9.2609      9.3514      9.6086      10.041      10.753      11.943    
  13.830      16.542      22.577      37.994      66.507      108.18      160.33      217.88      272.41      312.47    
  327.31      312.47      272.41      217.88      160.33      108.18      66.507      37.994      22.577      16.542    
  13.830      11.943      10.753      10.041      9.6086      9.3514      9.5226      9.6086      9.8531      10.261    
  10.924      12.017      13.741      16.198      20.933      33.226      56.818      92.273      137.56      188.24    
  236.67      272.41      285.68      272.41      236.67      188.24      137.56      92.273      56.818      33.226    
  20.933      16.198      13.741      12.017      10.924      10.261      9.8531      9.6086      9.9632      10.041    
  10.261      10.627      11.211      12.156      13.638      15.765      19.068      27.419      44.505      71.517    
  107.31      148.39      188.24      217.88      228.92      217.88      188.24      148.39      107.31      71.517    
  44.505      27.419      19.068      15.765      13.638      12.156      11.211      10.627      10.261      10.041    
  10.693      10.753      10.924      11.211      11.670      12.417      13.595      15.319      17.618      22.415    
  33.062      51.283      76.847      107.31      137.56      160.33      168.86      160.33      137.56      107.31    
  76.847      51.283      33.062      22.415      17.618      15.319      13.595      12.417      11.670      11.211    
  10.924      10.753      11.918      11.943      12.017      12.156      12.417      12.894      13.706      14.963    
  16.679      19.148      24.661      35.206      51.283      71.517      92.273      108.18      114.18      108.18    
  92.273      71.517      51.283      35.206      24.661      19.148      16.679      14.963      13.706      12.894    
  12.417      12.156      12.017      11.943      13.864      13.830      13.741      13.638      13.595      13.706    
  14.078      14.808      15.947      17.428      19.766      24.661      33.062      44.505      56.818      66.507    
  70.204      66.507      56.818      44.505      33.062      24.661      19.766      17.428      15.947      14.808    
  14.078      13.706      13.595      13.638      13.741      13.830      16.680      16.542      16.198      15.765    
  15.319      14.963      14.808      14.947      15.447      16.305      17.428      19.148      22.415      27.419    
  33.226      37.994      39.849      37.994      33.226      27.419      22.415      19.148      17.428      16.305    
  15.447      14.947      14.808      14.963      15.319      15.765      16.198      16.542      23.238      22.577    
  20.933      19.068      17.618      16.679      15.947      15.447      15.268      15.447      15.947      16.679    
  17.618      19.068      20.933      22.577      23.238      22.577      20.933      19.068      17.618      16.679    
  15.947      15.447      15.268      15.447      15.947      16.679      17.618      19.068      20.933      22.577    
  39.849      37.994      33.226      27.419      22.415      19.148      17.428      16.305      15.447      14.947    
  14.808      14.963      15.319      15.765      16.198      16.542      16.680      16.542      16.198      15.765    
  15.319      14.963      14.808      14.947      15.447      16.305      17.428      19.148      22.415      27.419    
  33.226      37.994      70.204      66.507      56.818      44.505      33.062      24.661      19.766      17.428    
  15.947      14.808      14.078      13.706      13.595      13.638      13.741      13.830      13.864      13.830    
  13.741      13.638      13.595      13.706      14.078      14.808      15.947      17.428      19.766      24.661    
  33.062      44.505      56.818      66.507      114.18      108.18      92.273      71.517      51.283      35.206    
  24.661      19.148      16.679      14.963      13.706      12.894      12.417      12.156      12.017      11.943    
  11.918      11.943      12.017      12.156      12.417      12.894      13.706      14.963      16.679      19.148    
  24.661      35.206      51.283      71.517      92.273      108.18      168.86      160.33      137.56      107.31    
  76.847      51.283      33.062      22.415      17.618      15.319      13.595      12.417      11.670      11.211    
  10.924      10.753      10.693      10.753      10.924      11.211      11.670      12.417      13.595      15.319    
  17.618      22.415      33.062      51.283      76.847      107.31      137.56      160.33      228.92      217.88    
  188.24      148.39      107.31      71.517      44.505      27.419      19.068      15.765      13.638      12.156    
  11.211      10.627      10.261      10.041      9.9632      10.041      10.261      10.627      11.211      12.156    
  13.638      15.765      19.068      27.419      44.505      71.517      107.31      148.39      188.24      217.88    
  285.68      272.41      236.67      188.24      137.56      92.273      56.818      33.226      20.933      16.198    
  13.741      12.017      10.924      10.261      9.8531      9.6086      9.5226      9.6086      9.8531      10.261    
  10.924      12.017      13.741      16.198      20.933      33.226      56.818      92.273      137.56      188.24    
  236.67      272.41      327.31      312.47      272.41      217.88      160.33      108.18      66.507      37.994    
  22.577      16.542      13.830      11.943      10.753      10.041      9.6086      9.3514      9.2609      9.3514    
  9.6086      10.041      10.753      11.943      13.830      16.542      22.577      37.994      66.507      108.18    
  160.33      217.88      272.41      312.47      327.31      312.47      272.41      217.88      160.33      108.18    
  66.507      37.994      22.577      16.542      13.830      11.943      10.753      10.041      9.6086      9.3514    
  9.2609      9.3514      9.6086      10.041      10.753      11.943      13.830      16.542      22.577      37.994    
  66.507      108.18      160.33      217.88      272.41      312.47      312.47      298.18      259.67      207.32    
  152.21      102.50      63.032      36.269      21.971      16.415      13.797      11.967      10.811      10.117    
  9.6931      9.4404      9.3514      9.4404      9.6931      10.117      10.811      11.967      13.797      16.415    
  21.971      36.269      63.032      102.50      152.21      207.32      259.67      298.18      272.41      259.67    
  225.38      178.97      130.54      87.450      53.937      31.840      20.467      16.092      13.710      12.040    
  10.979      10.333      9.9331      9.6931      9.6086      9.6931      9.9331      10.333      10.979      12.040    
  13.710      16.092      20.467      31.840      53.937      87.450      130.54      178.97      225.38      259.67    
  217.88      207.32      178.97      140.91      101.79      67.846      42.401      26.462      18.765      15.671    
  13.609      12.175      11.259      10.691      10.333      10.117      10.041      10.117      10.333      10.691    
  11.259      12.175      13.609      15.671      18.765      26.462      42.401      67.846      101.79      140.91    
  178.97      207.32      160.33      152.21      130.54      101.79      72.915      48.794      31.722      21.850    
  17.437      15.232      13.565      12.427      11.705      11.259      10.979      10.811      10.753      10.811    
  10.979      11.259      11.705      12.427      13.565      15.232      17.437      21.850      31.722      48.794    
  72.915      101.79      130.54      152.21      108.18      102.50      87.450      67.846      48.794      33.730    
  23.930      18.856      16.543      14.883      13.670      12.888      12.427      12.175      12.040      11.967    
  11.943      11.967      12.040      12.175      12.427      12.888      13.670      14.883      16.543      18.856    
  23.930      33.730      48.794      67.846      87.450      102.50      66.507      63.032      53.937      42.401    
  31.722      23.930      19.427      17.262      15.826      14.727      14.025      13.670      13.565      13.609    
  13.710      13.797      13.830      13.797      13.710      13.609      13.565      13.670      14.025      14.727    
  15.826      17.262      19.427      23.930      31.722      42.401      53.937      63.032      37.994      36.269    
  31.840      26.462      21.850      18.856      17.262      16.169      15.338      14.857      14.727      14.883    
  15.232      15.671      16.092      16.415      16.542      16.415      16.092      15.671      15.232      14.883    
  14.727      14.857      15.338      16.169      17.262      18.856      21.850      26.462      31.840      36.269    
  22.577      21.971      20.467      18.765      17.437      16.543      15.826      15.338      15.164      15.338    
  15.826      16.543      17.437      18.765      20.467      21.971      22.577      21.971      20.467      18.765    
  17.437      16.543      15.826      15.338      15.164      15.338      15.826      16.543      17.437      18.765    
  20.467      21.971      16.542      16.415      16.092      15.671      15.232      14.883      14.727      14.857    
  15.338      16.169      17.262      18.856      21.850      26.462      31.840      36.269      37.994      36.269    
  31.840      26.462      21.850      18.856      17.262      16.169      15.338      14.857      14.727      14.883    
  15.232      15.671      16.092      16.415      13.830      13.797      13.710      13.609      13.565      13.670    
  14.025      14.727      15.826      17.262      19.427      23.930      31.722      42.401      53.937      63.032    
  66.507      63.032      53.937      42.401      31.722      23.930      19.427      17.262      15.826      14.727    
  14.025      13.670      13.565      13.609      13.710      13.797      11.943      11.967      12.040      12.175    
  12.427      12.888      13.670      14.883      16.543      18.856      23.930      33.730      48.794      67.846    
  87.450      102.50      108.18      102.50      87.450      67.846      48.794      33.730      23.930      18.856    
  16.543      14.883      13.670      12.888      12.427      12.175      12.040      11.967      10.753      10.811    
  10.979      11.259      11.705      12.427      13.565      15.232      17.437      21.850      31.722      48.794    
  72.915      101.79      130.54      152.21      160.33      152.21      130.54      101.79      72.915      48.794    
  31.722      21.850      17.437      15.232      13.565      12.427      11.705      11.259      10.979      10.811    
  10.041      10.117      10.333      10.691      11.259      12.175      13.609      15.671      18.765      26.462    
  42.401      67.846      101.79      140.91      178.97      207.32      217.88      207.32      178.97      140.91    
  101.79      67.846      42.401      26.462      18.765      15.671      13.609      12.175      11.259      10.691    
  10.333      10.117      9.6086      9.6931      9.9331      10.333      10.979      12.040      13.710      16.092    
  20.467      31.840      53.937      87.450      130.54      178.97      225.38      259.67      272.41      259.67    
  225.38      178.97      130.54      87.450      53.937      31.840      20.467      16.092      13.710      12.040    
  10.979      10.333      9.9331      9.6931      9.3514      9.4404      9.6931      10.117      10.811      11.967    
  13.797      16.415      21.971      36.269      63.032      102.50      152.21      207.32      259.67      298.18    
  312.47      298.18      259.67      207.32      152.21      102.50      63.032      36.269      21.971      16.415    
  13.797      11.967      10.811      10.117      9.6931      9.4404      9.2609      9.3514      9.6086      10.041    
  10.753      11.943      13.830      16.542      22.577      37.994      66.507      108.18      160.33      217.88    
  272.41      312.47      327.31      312.47      272.41      217.88      160.33      108.18      66.507      37.994    
  22.577      16.542      13.830      11.943      10.753      10.041      9.6086      9.3514      9.3514      9.4404    
  9.6931      10.117      10.811      11.967      13.797      16.415      21.971      36.269      63.032      102.50    
  152.21      207.32      259.67      298.18      312.47      298.18      259.67      207.32      152.21      102.50    
  63.032      36.269      21.971      16.415      13.797      11.967      10.811      10.117      9.6931      9.4404    
  9.6086      9.6931      9.9331      10.333      10.979      12.040      13.710      16.092      20.467      31.840    
  53.937      87.450      130.54      178.97      225.38      259.67      272.41      259.67      225.38      178.97    
  130.54      87.450      53.937      31.840      20.467      16.092      13.710      12.040      10.979      10.333    
  9.9331      9.6931      10.041      10.117      10.333      10.691      11.259      12.175      13.609      15.671    
  18.765      26.462      42.401      67.846      101.79      140.91      178.97      207.32      217.88      207.32    
  178.97      140.91      101.79      67.846      42.401      26.462      18.765      15.671      13.609      12.175    
  11.259      10.691      10.333      10.117      10.753      10.811      10.979      11.259      11.705      12.427    
  13.565      15.232      17.437      21.850      31.722      48.794      72.915      101.79      130.54      152.21    
  160.33      152.21      130.54      101.79      72.915      48.794      31.722      21.850      17.437      15.232    
  13.565      12.427      11.705      11.259      10.979      10.811      11.943      11.967      12.040      12.175    
  12.427      12.888      13.670      14.883      16.543      18.856      23.930      33.730      48.794      67.846    
  87.450      102.50      108.18      102.50      87.450      67.846      48.794      33.730      23.930      18.856    
  16.543      14.883      13.670      12.888      12.427      12.175      12.040      11.967      13.830      13.797    
  13.710      13.609      13.565      13.670      14.025      14.727      15.826      17.262      19.427      23.930    
  31.722      42.401      53.937      63.032      66.507      63.032      53.937      42.401      31.722      23.930    
  19.427      17.262      15.826      14.727      14.025      13.670      13.565      13.609      13.710      13.797    
  16.542      16.415      16.092      15.671      15.232      14.883      14.727      14.857      15.338      16.169    
  17.262      18.856      21.850      26.462      31.840      36.269      37.994      36.269      31.840      26.462    
  21.850      18.856      17.262      16.169      15.338      14.857      14.727      14.883      15.232      15.671    
  16.092      16.415      22.577      21.971      20.467      18.765      17.437      16.543      15.826      15.338    
  15.164      15.338      15.826      16.543      17.437      18.765      20.467      21.971      22.577      21.971    
  20.467      18.765      17.437      16.543      15.826      15.338      15.164      15.338      15.826      16.543    
  17.437      18.765      20.467      21.971      37.994      36.269      31.840      26.462      21.850      18.856    
  17.262      16.169      15.338      14.857      14.727      14.883      15.232      15.671      16.092      16.415    
  16.542      16.415      16.092      15.671      15.232      14.883      14.727      14.857      15.338      16.169    
  17.262      18.856      21.850      26.462      31.840      36.269      66.507      63.032      53.937      42.401    
  31.722      23.930      19.427      17.262      15.826      14.727      14.025      13.670      13.565      13.609    
  13.710      13.797      13.830      13.797      13.710      13.609      13.565      13.670      14.025      14.727    
  15.826      17.262      19.427      23.930      31.722      42.401      53.937      63.032      108.18      102.50    
  87.450      67.846      48.794      33.730      23.930      18.856      16.543      14.883      13.670      12.888    
  12.427      12.175      12.040      11.967      11.943      11.967      12.040      12.175      12.427      12.888    
  13.670      14.883      16.543      18.856      23.930      33.730      48.794      67.846      87.450      102.50    
  160.33      152.21      130.54      101.79      72.915      48.794      31.722      21.850      17.437      15.232    
  13.565      12.427      11.705      11.259      10.979      10.811      10.753      10.811      10.979      11.259    
  11.705      12.427      13.565      15.232      17.437      21.850      31.722      48.794      72.915      101.79    
  130.54      152.21      217.88      207.32      178.97      140.91      101.79      67.846      42.401      26.462    
  18.765      15.671      13.609      12.175      11.259      10.691      10.333      10.117      10.041      10.117    
  10.333      10.691      11.259      12.175      13.609      15.671      18.765      26.462      42.401      67.846    
  101.79      140.91      178.97      207.32      272.41      259.67      225.38      178.97      130.54      87.450    
  53.937      31.840      20.467      16.092      13.710      12.040      10.979      10.333      9.9331      9.6931    
  9.6086      9.6931      9.9331      10.333      10.979      12.040      13.710      16.092      20.467      31.840    
  53.937      87.450      130.54      178.97      225.38      259.67      312.47      298.18      259.67      207.32    
  152.21      102.50      63.032      36.269      21.971      16.415      13.797      11.967      10.811      10.117    
  9.6931      9.4404      9.3514      9.4404      9.6931      10.117      10.811      11.967      13.797      16.415    
  21.971      36.269      63.032      102.50      152.21      207.32      259.67      298.18      285.68      272.41    
  236.67      188.24      137.56      92.273      56.818      33.226      20.933      16.198      13.741      12.017    
  10.924      10.261      9.8531      9.6086      9.5226      9.6086      9.8531      10.261      10.924      12.017    
  13.741      16.198      20.933      33.226      56.818      92.273      137.56      188.24      236.67      272.41    
  272.41      259.67      225.38      178.97      130.54      87.450      53.937      31.840      20.467      16.092    
  13.710      12.040      10.979      10.333      9.9331      9.6931      9.6086      9.6931      9.9331      10.333    
  10.979      12.040      13.710      16.092      20.467      31.840      53.937      87.450      130.54      178.97    
  225.38      259.67      236.67      225.38      195.03      154.14      111.83      74.704      46.416      28.297    
  19.314      15.806      13.629      12.107      11.136      10.536      10.160      9.9331      9.8531      9.9331    
  10.160      10.536      11.136      12.107      13.629      15.806      19.314      28.297      46.416      74.704    
  111.83      154.14      195.03      225.38      188.24      178.97      154.14      120.96      87.138      58.189    
  36.943      24.033      18.013      15.410      13.533      12.233      11.396      10.872      10.536      10.333    
  10.261      10.333      10.536      10.872      11.396      12.233      13.533      15.410      18.013      24.033    
  36.943      58.189      87.138      120.96      154.14      178.97      137.56      130.54      111.83      87.138    
  62.543      42.291      28.276      20.429      16.971      14.995      13.488      12.462      11.806      11.396    
  11.136      10.979      10.924      10.979      11.136      11.396      11.806      12.462      13.488      14.995    
  16.971      20.429      28.276      42.291      62.543      87.138      111.83      130.54      92.273      87.450    
  74.704      58.189      42.291      29.922      22.074      18.119      16.170      14.663      13.575      12.875    
  12.462      12.233      12.107      12.040      12.017      12.040      12.107      12.233      12.462      12.875    
  13.575      14.663      16.170      18.119      22.074      29.922      42.291      58.189      74.704      87.450    
  56.818      53.937      46.416      36.943      28.276      22.074      18.570      16.810      15.497      14.508    
  13.886      13.575      13.488      13.533      13.629      13.710      13.741      13.710      13.629      13.533    
  13.488      13.575      13.886      14.508      15.497      16.810      18.570      22.074      28.276      36.943    
  46.416      53.937      33.226      31.840      28.297      24.033      20.429      18.119      16.810      15.798    
  15.043      14.615      14.508      14.663      14.995      15.410      15.806      16.092      16.198      16.092    
  15.806      15.410      14.995      14.663      14.508      14.615      15.043      15.798      16.810      18.119    
  20.429      24.033      28.297      31.840      20.933      20.467      19.314      18.013      16.971      16.170    
  15.497      15.043      14.882      15.043      15.497      16.170      16.971      18.013      19.314      20.467    
  20.933      20.467      19.314      18.013      16.971      16.170      15.497      15.043      14.882      15.043    
  15.497      16.170      16.971      18.013      19.314      20.467      16.198      16.092      15.806      15.410    
  14.995      14.663      14.508      14.615      15.043      15.798      16.810      18.119      20.429      24.033    
  28.297      31.840      33.226      31.840      28.297      24.033      20.429      18.119      16.810      15.798    
  15.043      14.615      14.508      14.663      14.995      15.410      15.806      16.092      13.741      13.710    
  13.629      13.533      13.488      13.575      13.886      14.508      15.497      16.810      18.570      22.074    
  28.276      36.943      46.416      53.937      56.818      53.937      46.416      36.943      28.276      22.074    
  18.570      16.810      15.497      14.508      13.886      13.575      13.488      13.533      13.629      13.710    
  12.017      12.040      12.107      12.233      12.462      12.875      13.575      14.663      16.170      18.119    
  22.074      29.922      42.291      58.189      74.704      87.450      92.273      87.450      74.704      58.189    
  42.291      29.922      22.074      18.119      16.170      14.663      13.575      12.875      12.462      12.233    
  12.107      12.040      10.924      10.979      11.136      11.396      11.806      12.462      13.488      14.995    
  16.971      20.429      28.276      42.291      62.543      87.138      111.83      130.54      137.56      130.54    