unknown system                          
   1.00000000000000     
     3.445083    0.000000    0.000000
     0.000000    3.445083    0.000000
     0.000000    0.000000    3.445083
   Fe
     4
Direct
  0.000000  0.000000  0.000000
  0.500000  0.500000  0.000000
  0.500000  0.000000  0.500000
  0.000000  0.500000  0.500000
 
   32   32   32
 0.34273409064E+03 0.32731207810E+03 0.28567559937E+03 0.22891937899E+03 0.16885940425E+03
 0.11418107002E+03 0.70204425526E+02 0.39848535401E+02 0.23237691113E+02 0.16679577801E+02
 0.13863990452E+02 0.11917789930E+02 0.10692689397E+02 0.99631512587E+01 0.95225963472E+01
 0.92608894233E+01 0.91687671713E+01 0.92608894233E+01 0.95225963472E+01 0.99631512587E+01
 0.10692689397E+02 0.11917789930E+02 0.13863990452E+02 0.16679577801E+02 0.23237691113E+02
 0.39848535401E+02 0.70204425526E+02 0.11418107002E+03 0.16885940425E+03 0.22891937899E+03
 0.28567559937E+03 0.32731207810E+03 0.32731207810E+03 0.31246629941E+03 0.27240801848E+03
 0.21787952409E+03 0.16033384275E+03 0.10818010662E+03 0.66506811064E+02 0.37994124413E+02
 0.22576740505E+02 0.16541967246E+02 0.13830324936E+02 0.11942662310E+02 0.10752506730E+02
 0.10040649161E+02 0.96086236495E+01 0.93514172281E+01 0.92608894233E+01 0.93514172281E+01
 0.96086236495E+01 0.10040649161E+02 0.10752506730E+02 0.11942662310E+02 0.13830324936E+02
 0.16541967246E+02 0.22576740505E+02 0.37994124413E+02 0.66506811064E+02 0.10818010662E+03
 0.16033384275E+03 0.21787952409E+03 0.27240801848E+03 0.31246629941E+03 0.28567559937E+03
 0.27240801848E+03 0.23667179027E+03 0.18824026922E+03 0.13756176743E+03 0.92273339410E+02
 0.56818425356E+02 0.33226497500E+02 0.20933060318E+02 0.16198067966E+02 0.13741389043E+02
 0.12016901063E+02 0.10923886246E+02 0.10261275026E+02 0.98531478314E+01 0.96086236495E+01
 0.95225963472E+01 0.96086236495E+01 0.98531478314E+01 0.10261275026E+02 0.10923886246E+02
 0.12016901063E+02 0.13741389043E+02 0.16198067966E+02 0.20933060318E+02 0.33226497500E+02
 0.56818425356E+02 0.92273339410E+02 0.13756176743E+03 0.18824026922E+03 0.23667179027E+03
 0.27240801848E+03 0.22891937899E+03 0.21787952409E+03 0.18824026922E+03 0.14838884304E+03
 0.10731499621E+03 0.71517224794E+02 0.44505141560E+02 0.27419240565E+02 0.19068122668E+02
 0.15765440824E+02 0.13638344468E+02 0.12156188495E+02 0.11210511408E+02 0.10627133260E+02
 0.10261275026E+02 0.10040649161E+02 0.99631512587E+01 0.10040649161E+02 0.10261275026E+02
 0.10627133260E+02 0.11210511408E+02 0.12156188495E+02 0.13638344468E+02 0.15765440824E+02
 0.19068122668E+02 0.27419240565E+02 0.44505141560E+02 0.71517224794E+02 0.10731499621E+03
 0.14838884304E+03 0.18824026922E+03 0.21787952409E+03 0.16885940425E+03 0.16033384275E+03
 0.13756176743E+03 0.10731499621E+03 0.76847196029E+02 0.51283229513E+02 0.33061615031E+02
 0.22414511068E+02 0.17618181786E+02 0.15318511558E+02 0.13594734585E+02 0.12416556357E+02
 0.11669876487E+02 0.11210511408E+02 0.10923886246E+02 0.10752506730E+02 0.10692689397E+02
 0.10752506730E+02 0.10923886246E+02 0.11210511408E+02 0.11669876487E+02 0.12416556357E+02
 0.13594734585E+02 0.15318511558E+02 0.17618181786E+02 0.22414511068E+02 0.33061615031E+02
 0.51283229513E+02 0.76847196029E+02 0.10731499621E+03 0.13756176743E+03 0.16033384275E+03
 0.11418107002E+03 0.10818010662E+03 0.92273339410E+02 0.71517224794E+02 0.51283229513E+02
 0.35205553566E+02 0.24661322335E+02 0.19147940633E+02 0.16678572162E+02 0.14963481276E+02
 0.13706357904E+02 0.12893810216E+02 0.12416556357E+02 0.12156188495E+02 0.12016901063E+02
 0.11942662310E+02 0.11917789930E+02 0.11942662310E+02 0.12016901063E+02 0.12156188495E+02
 0.12416556357E+02 0.12893810216E+02 0.13706357904E+02 0.14963481276E+02 0.16678572162E+02
 0.19147940633E+02 0.24661322335E+02 0.35205553566E+02 0.51283229513E+02 0.71517224794E+02
 0.92273339410E+02 0.10818010662E+03 0.70204425526E+02 0.66506811064E+02 0.56818425356E+02
 0.44505141560E+02 0.33061615031E+02 0.24661322335E+02 0.19765995843E+02 0.17428343586E+02
 0.15947203548E+02 0.14807599093E+02 0.14077693079E+02 0.13706357904E+02 0.13594734585E+02
 0.13638344468E+02 0.13741389043E+02 0.13830324936E+02 0.13863990452E+02 0.13830324936E+02
 0.13741389043E+02 0.13638344468E+02 0.13594734585E+02 0.13706357904E+02 0.14077693079E+02
 0.14807599093E+02 0.15947203548E+02 0.17428343586E+02 0.19765995843E+02 0.24661322335E+02
 0.33061615031E+02 0.44505141560E+02 0.56818425356E+02 0.66506811064E+02 0.39848535401E+02
 0.37994124413E+02 0.33226497500E+02 0.27419240565E+02 0.22414511068E+02 0.19147940633E+02
 0.17428343586E+02 0.16304786335E+02 0.15446667364E+02 0.14946781248E+02 0.14807599093E+02
 0.14963481276E+02 0.15318511558E+02 0.15765440824E+02 0.16198067966E+02 0.16541967246E+02
 0.16679577801E+02 0.16541967246E+02 0.16198067966E+02 0.15765440824E+02 0.15318511558E+02
 0.14963481276E+02 0.14807599093E+02 0.14946781248E+02 0.15446667364E+02 0.16304786335E+02
 0.17428343586E+02 0.19147940633E+02 0.22414511068E+02 0.27419240565E+02 0.33226497500E+02
 0.37994124413E+02 0.23237691113E+02 0.22576740505E+02 0.20933060318E+02 0.19068122668E+02
 0.17618181786E+02 0.16678572162E+02 0.15947203548E+02 0.15446667364E+02 0.15268081979E+02
 0.15446667364E+02 0.15947203548E+02 0.16678572162E+02 0.17618181786E+02 0.19068122668E+02
 0.20933060318E+02 0.22576740505E+02 0.23237691113E+02 0.22576740505E+02 0.20933060318E+02
 0.19068122668E+02 0.17618181786E+02 0.16678572162E+02 0.15947203548E+02 0.15446667364E+02
 0.15268081979E+02 0.15446667364E+02 0.15947203548E+02 0.16678572162E+02 0.17618181786E+02
 0.19068122668E+02 0.20933060318E+02 0.22576740505E+02 0.16679577801E+02 0.16541967246E+02
 0.16198067966E+02 0.15765440824E+02 0.15318511558E+02 0.14963481276E+02 0.14807599093E+02
 0.14946781248E+02 0.15446667364E+02 0.16304786335E+02 0.17428343586E+02 0.19147940633E+02
 0.22414511068E+02 0.27419240565E+02 0.33226497500E+02 0.37994124413E+02 0.39848535401E+02
 0.37994124413E+02 0.33226497500E+02 0.27419240565E+02 0.22414511068E+02 0.19147940633E+02
 0.17428343586E+02 0.16304786335E+02 0.15446667364E+02 0.14946781248E+02 0.14807599093E+02
 0.14963481276E+02 0.15318511558E+02 0.15765440824E+02 0.16198067966E+02 0.16541967246E+02
 0.13863990452E+02 0.13830324936E+02 0.13741389043E+02 0.13638344468E+02 0.13594734585E+02
 0.13706357904E+02 0.14077693079E+02 0.14807599093E+02 0.15947203548E+02 0.17428343586E+02
 0.19765995843E+02 0.24661322335E+02 0.33061615031E+02 0.44505141560E+02 0.56818425356E+02
 0.66506811064E+02 0.70204425526E+02 0.66506811064E+02 0.56818425356E+02 0.44505141560E+02
 0.33061615031E+02 0.24661322335E+02 0.19765995843E+02 0.17428343586E+02 0.15947203548E+02
 0.14807599093E+02 0.14077693079E+02 0.13706357904E+02 0.13594734585E+02 0.13638344468E+02
 0.13741389043E+02 0.13830324936E+02 0.11917789930E+02 0.11942662310E+02 0.12016901063E+02
 0.12156188495E+02 0.12416556357E+02 0.12893810216E+02 0.13706357904E+02 0.14963481276E+02
 0.16678572162E+02 0.19147940633E+02 0.24661322335E+02 0.35205553566E+02 0.51283229513E+02
 0.71517224794E+02 0.92273339410E+02 0.10818010662E+03 0.11418107002E+03 0.10818010662E+03
 0.92273339410E+02 0.71517224794E+02 0.51283229513E+02 0.35205553566E+02 0.24661322335E+02
 0.19147940633E+02 0.16678572162E+02 0.14963481276E+02 0.13706357904E+02 0.12893810216E+02
 0.12416556357E+02 0.12156188495E+02 0.12016901063E+02 0.11942662310E+02 0.10692689397E+02
 0.10752506730E+02 0.10923886246E+02 0.11210511408E+02 0.11669876487E+02 0.12416556357E+02
 0.13594734585E+02 0.15318511558E+02 0.17618181786E+02 0.22414511068E+02 0.33061615031E+02
 0.51283229513E+02 0.76847196029E+02 0.10731499621E+03 0.13756176743E+03 0.16033384275E+03
 0.16885940425E+03 0.16033384275E+03 0.13756176743E+03 0.10731499621E+03 0.76847196029E+02
 0.51283229513E+02 0.33061615031E+02 0.22414511068E+02 0.17618181786E+02 0.15318511558E+02
 0.13594734585E+02 0.12416556357E+02 0.11669876487E+02 0.11210511408E+02 0.10923886246E+02
 0.10752506730E+02 0.99631512587E+01 0.10040649161E+02 0.10261275026E+02 0.10627133260E+02
 0.11210511408E+02 0.12156188495E+02 0.13638344468E+02 0.15765440824E+02 0.19068122668E+02
 0.27419240565E+02 0.44505141560E+02 0.71517224794E+02 0.10731499621E+03 0.14838884304E+03
 0.18824026922E+03 0.21787952409E+03 0.22891937899E+03 0.21787952409E+03 0.18824026922E+03
 0.14838884304E+03 0.10731499621E+03 0.71517224794E+02 0.44505141560E+02 0.27419240565E+02
 0.19068122668E+02 0.15765440824E+02 0.13638344468E+02 0.12156188495E+02 0.11210511408E+02
 0.10627133260E+02 0.10261275026E+02 0.10040649161E+02 0.95225963472E+01 0.96086236495E+01
 0.98531478314E+01 0.10261275026E+02 0.10923886246E+02 0.12016901063E+02 0.13741389043E+02
 0.16198067966E+02 0.20933060318E+02 0.33226497500E+02 0.56818425356E+02 0.92273339410E+02
 0.13756176743E+03 0.18824026922E+03 0.23667179027E+03 0.27240801848E+03 0.28567559937E+03
 0.27240801848E+03 0.23667179027E+03 0.18824026922E+03 0.13756176743E+03 0.92273339410E+02
 0.56818425356E+02 0.33226497500E+02 0.20933060318E+02 0.16198067966E+02 0.13741389043E+02
 0.12016901063E+02 0.10923886246E+02 0.10261275026E+02 0.98531478314E+01 0.96086236495E+01
 0.92608894233E+01 0.93514172281E+01 0.96086236495E+01 0.10040649161E+02 0.10752506730E+02
 0.11942662310E+02 0.13830324936E+02 0.16541967246E+02 0.22576740505E+02 0.37994124413E+02
 0.66506811064E+02 0.10818010662E+03 0.16033384275E+03 0.21787952409E+03 0.27240801848E+03
 0.31246629941E+03 0.32731207810E+03 0.31246629941E+03 0.27240801848E+03 0.21787952409E+03
 0.16033384275E+03 0.10818010662E+03 0.66506811064E+02 0.37994124413E+02 0.22576740505E+02
 0.16541967246E+02 0.13830324936E+02 0.11942662310E+02 0.10752506730E+02 0.10040649161E+02
 0.96086236495E+01 0.93514172281E+01 0.91687671713E+01 0.92608894233E+01 0.95225963472E+01
 0.99631512587E+01 0.10692689397E+02 0.11917789930E+02 0.13863990452E+02 0.16679577801E+02
 0.23237691113E+02 0.39848535401E+02 0.70204425526E+02 0.11418107002E+03 0.16885940425E+03
 0.22891937899E+03 0.28567559937E+03 0.32731207810E+03 0.34273409064E+03 0.32731207810E+03
 0.28567559937E+03 0.22891937899E+03 0.16885940425E+03 0.11418107002E+03 0.70204425526E+02
 0.39848535401E+02 0.23237691113E+02 0.16679577801E+02 0.13863990452E+02 0.11917789930E+02
 0.10692689397E+02 0.99631512587E+01 0.95225963472E+01 0.92608894233E+01 0.92608894233E+01
 0.93514172281E+01 0.96086236495E+01 0.10040649161E+02 0.10752506730E+02 0.11942662310E+02
 0.13830324936E+02 0.16541967246E+02 0.22576740505E+02 0.37994124413E+02 0.66506811064E+02
 0.10818010662E+03 0.16033384275E+03 0.21787952409E+03 0.27240801848E+03 0.31246629941E+03
 0.32731207810E+03 0.31246629941E+03 0.27240801848E+03 0.21787952409E+03 0.16033384275E+03
 0.10818010662E+03 0.66506811064E+02 0.37994124413E+02 0.22576740505E+02 0.16541967246E+02
 0.13830324936E+02 0.11942662310E+02 0.10752506730E+02 0.10040649161E+02 0.96086236495E+01
 0.93514172281E+01 0.95225963472E+01 0.96086236495E+01 0.98531478314E+01 0.10261275026E+02
 0.10923886246E+02 0.12016901063E+02 0.13741389043E+02 0.16198067966E+02 0.20933060318E+02
 0.33226497500E+02 0.56818425356E+02 0.92273339410E+02 0.13756176743E+03 0.18824026922E+03
 0.23667179027E+03 0.27240801848E+03 0.28567559937E+03 0.27240801848E+03 0.23667179027E+03
 0.18824026922E+03 0.13756176743E+03 0.92273339410E+02 0.56818425356E+02 0.33226497500E+02
 0.20933060318E+02 0.16198067966E+02 0.13741389043E+02 0.12016901063E+02 0.10923886246E+02
 0.10261275026E+02 0.98531478314E+01 0.96086236495E+01 0.99631512587E+01 0.10040649161E+02
 0.10261275026E+02 0.10627133260E+02 0.11210511408E+02 0.12156188495E+02 0.13638344468E+02
 0.15765440824E+02 0.19068122668E+02 0.27419240565E+02 0.44505141560E+02 0.71517224794E+02
 0.10731499621E+03 0.14838884304E+03 0.18824026922E+03 0.21787952409E+03 0.22891937899E+03
 0.21787952409E+03 0.18824026922E+03 0.14838884304E+03 0.10731499621E+03 0.71517224794E+02
 0.44505141560E+02 0.27419240565E+02 0.19068122668E+02 0.15765440824E+02 0.13638344468E+02
 0.12156188495E+02 0.11210511408E+02 0.10627133260E+02 0.10261275026E+02 0.10040649161E+02
 0.10692689397E+02 0.10752506730E+02 0.10923886246E+02 0.11210511408E+02 0.11669876487E+02
 0.12416556357E+02 0.13594734585E+02 0.15318511558E+02 0.17618181786E+02 0.22414511068E+02
 0.33061615031E+02 0.51283229513E+02 0.76847196029E+02 0.10731499621E+03 0.13756176743E+03
 0.16033384275E+03 0.16885940425E+03 0.16033384275E+03 0.13756176743E+03 0.10731499621E+03
 0.76847196029E+02 0.51283229513E+02 0.33061615031E+02 0.22414511068E+02 0.17618181786E+02
 0.15318511558E+02 0.13594734585E+02 0.12416556357E+02 0.11669876487E+02 0.11210511408E+02
 0.10923886246E+02 0.10752506730E+02 0.11917789930E+02 0.11942662310E+02 0.12016901063E+02
 0.12156188495E+02 0.12416556357E+02 0.12893810216E+02 0.13706357904E+02 0.14963481276E+02
 0.16678572162E+02 0.19147940633E+02 0.24661322335E+02 0.35205553566E+02 0.51283229513E+02
 0.71517224794E+02 0.92273339410E+02 0.10818010662E+03 0.11418107002E+03 0.10818010662E+03
 0.92273339410E+02 0.71517224794E+02 0.51283229513E+02 0.35205553566E+02 0.24661322335E+02
 0.19147940633E+02 0.16678572162E+02 0.14963481276E+02 0.13706357904E+02 0.12893810216E+02
 0.12416556357E+02 0.12156188495E+02 0.12016901063E+02 0.11942662310E+02 0.13863990452E+02
 0.13830324936E+02 0.13741389043E+02 0.13638344468E+02 0.13594734585E+02 0.13706357904E+02
 0.14077693079E+02 0.14807599093E+02 0.15947203548E+02 0.17428343586E+02 0.19765995843E+02
 0.24661322335E+02 0.33061615031E+02 0.44505141560E+02 0.56818425356E+02 0.66506811064E+02
 0.70204425526E+02 0.66506811064E+02 0.56818425356E+02 0.44505141560E+02 0.33061615031E+02
 0.24661322335E+02 0.19765995843E+02 0.17428343586E+02 0.15947203548E+02 0.14807599093E+02
 0.14077693079E+02 0.13706357904E+02 0.13594734585E+02 0.13638344468E+02 0.13741389043E+02
 0.13830324936E+02 0.16679577801E+02 0.16541967246E+02 0.16198067966E+02 0.15765440824E+02
 0.15318511558E+02 0.14963481276E+02 0.14807599093E+02 0.14946781248E+02 0.15446667364E+02
 0.16304786335E+02 0.17428343586E+02 0.19147940633E+02 0.22414511068E+02 0.27419240565E+02
 0.33226497500E+02 0.37994124413E+02 0.39848535401E+02 0.37994124413E+02 0.33226497500E+02
 0.27419240565E+02 0.22414511068E+02 0.19147940633E+02 0.17428343586E+02 0.16304786335E+02
 0.15446667364E+02 0.14946781248E+02 0.14807599093E+02 0.14963481276E+02 0.15318511558E+02
 0.15765440824E+02 0.16198067966E+02 0.16541967246E+02 0.23237691113E+02 0.22576740505E+02
 0.20933060318E+02 0.19068122668E+02 0.17618181786E+02 0.16678572162E+02 0.15947203548E+02
 0.15446667364E+02 0.15268081979E+02 0.15446667364E+02 0.15947203548E+02 0.16678572162E+02
 0.17618181786E+02 0.19068122668E+02 0.20933060318E+02 0.22576740505E+02 0.23237691113E+02
 0.22576740505E+02 0.20933060318E+02 0.19068122668E+02 0.17618181786E+02 0.16678572162E+02
 0.15947203548E+02 0.15446667364E+02 0.15268081979E+02 0.15446667364E+02 0.15947203548E+02
 0.16678572162E+02 0.17618181786E+02 0.19068122668E+02 0.20933060318E+02 0.22576740505E+02
 0.39848535401E+02 0.37994124413E+02 0.33226497500E+02 0.27419240565E+02 0.22414511068E+02
 0.19147940633E+02 0.17428343586E+02 0.16304786335E+02 0.15446667364E+02 0.14946781248E+02
 0.14807599093E+02 0.14963481276E+02 0.15318511558E+02 0.15765440824E+02 0.16198067966E+02
 0.16541967246E+02 0.16679577801E+02 0.16541967246E+02 0.16198067966E+02 0.15765440824E+02
 0.15318511558E+02 0.14963481276E+02 0.14807599093E+02 0.14946781248E+02 0.15446667364E+02
 0.16304786335E+02 0.17428343586E+02 0.19147940633E+02 0.22414511068E+02 0.27419240565E+02
 0.33226497500E+02 0.37994124413E+02 0.70204425526E+02 0.66506811064E+02 0.56818425356E+02
 0.44505141560E+02 0.33061615031E+02 0.24661322335E+02 0.19765995843E+02 0.17428343586E+02
 0.15947203548E+02 0.14807599093E+02 0.14077693079E+02 0.13706357904E+02 0.13594734585E+02
 0.13638344468E+02 0.13741389043E+02 0.13830324936E+02 0.13863990452E+02 0.13830324936E+02
 0.13741389043E+02 0.13638344468E+02 0.13594734585E+02 0.13706357904E+02 0.14077693079E+02
 0.14807599093E+02 0.15947203548E+02 0.17428343586E+02 0.19765995843E+02 0.24661322335E+02
 0.33061615031E+02 0.44505141560E+02 0.56818425356E+02 0.66506811064E+02 0.11418107002E+03
 0.10818010662E+03 0.92273339410E+02 0.71517224794E+02 0.51283229513E+02 0.35205553566E+02
 0.24661322335E+02 0.19147940633E+02 0.16678572162E+02 0.14963481276E+02 0.13706357904E+02
 0.12893810216E+02 0.12416556357E+02 0.12156188495E+02 0.12016901063E+02 0.11942662310E+02
 0.11917789930E+02 0.11942662310E+02 0.12016901063E+02 0.12156188495E+02 0.12416556357E+02
 0.12893810216E+02 0.13706357904E+02 0.14963481276E+02 0.16678572162E+02 0.19147940633E+02
 0.24661322335E+02 0.35205553566E+02 0.51283229513E+02 0.71517224794E+02 0.92273339410E+02
 0.10818010662E+03 0.16885940425E+03 0.16033384275E+03 0.13756176743E+03 0.10731499621E+03
 0.76847196029E+02 0.51283229513E+02 0.33061615031E+02 0.22414511068E+02 0.17618181786E+02
 0.15318511558E+02 0.13594734585E+02 0.12416556357E+02 0.11669876487E+02 0.11210511408E+02
 0.10923886246E+02 0.10752506730E+02 0.10692689397E+02 0.10752506730E+02 0.10923886246E+02
 0.11210511408E+02 0.11669876487E+02 0.12416556357E+02 0.13594734585E+02 0.15318511558E+02
 0.17618181786E+02 0.22414511068E+02 0.33061615031E+02 0.51283229513E+02 0.76847196029E+02
 0.10731499621E+03 0.13756176743E+03 0.16033384275E+03 0.22891937899E+03 0.21787952409E+03
 0.18824026922E+03 0.14838884304E+03 0.10731499621E+03 0.71517224794E+02 0.44505141560E+02
 0.27419240565E+02 0.19068122668E+02 0.15765440824E+02 0.13638344468E+02 0.12156188495E+02
 0.11210511408E+02 0.10627133260E+02 0.10261275026E+02 0.10040649161E+02 0.99631512587E+01
 0.10040649161E+02 0.10261275026E+02 0.10627133260E+02 0.11210511408E+02 0.12156188495E+02
 0.13638344468E+02 0.15765440824E+02 0.19068122668E+02 0.27419240565E+02 0.44505141560E+02
 0.71517224794E+02 0.10731499621E+03 0.14838884304E+03 0.18824026922E+03 0.21787952409E+03
 0.28567559937E+03 0.27240801848E+03 0.23667179027E+03 0.18824026922E+03 0.13756176743E+03
 0.92273339410E+02 0.56818425356E+02 0.33226497500E+02 0.20933060318E+02 0.16198067966E+02
 0.13741389043E+02 0.12016901063E+02 0.10923886246E+02 0.10261275026E+02 0.98531478314E+01
 0.96086236495E+01 0.95225963472E+01 0.96086236495E+01 0.98531478314E+01 0.10261275026E+02
 0.10923886246E+02 0.12016901063E+02 0.13741389043E+02 0.16198067966E+02 0.20933060318E+02
 0.33226497500E+02 0.56818425356E+02 0.92273339410E+02 0.13756176743E+03 0.18824026922E+03
 0.23667179027E+03 0.27240801848E+03 0.32731207810E+03 0.31246629941E+03 0.27240801848E+03
 0.21787952409E+03 0.16033384275E+03 0.10818010662E+03 0.66506811064E+02 0.37994124413E+02
 0.22576740505E+02 0.16541967246E+02 0.13830324936E+02 0.11942662310E+02 0.10752506730E+02
 0.10040649161E+02 0.96086236495E+01 0.93514172281E+01 0.92608894233E+01 0.93514172281E+01
 0.96086236495E+01 0.10040649161E+02 0.10752506730E+02 0.11942662310E+02 0.13830324936E+02
 0.16541967246E+02 0.22576740505E+02 0.37994124413E+02 0.66506811064E+02 0.10818010662E+03
 0.16033384275E+03 0.21787952409E+03 0.27240801848E+03 0.31246629941E+03 0.32731207810E+03
 0.31246629941E+03 0.27240801848E+03 0.21787952409E+03 0.16033384275E+03 0.10818010662E+03
 0.66506811064E+02 0.37994124413E+02 0.22576740505E+02 0.16541967246E+02 0.13830324936E+02
 0.11942662310E+02 0.10752506730E+02 0.10040649161E+02 0.96086236495E+01 0.93514172281E+01
 0.92608894233E+01 0.93514172281E+01 0.96086236495E+01 0.10040649161E+02 0.10752506730E+02
 0.11942662310E+02 0.13830324936E+02 0.16541967246E+02 0.22576740505E+02 0.37994124413E+02
 0.66506811064E+02 0.10818010662E+03 0.16033384275E+03 0.21787952409E+03 0.27240801848E+03
 0.31246629941E+03 0.31246629941E+03 0.29818433688E+03 0.25966927781E+03 0.20731505041E+03
 0.15221358047E+03 0.10249845615E+03 0.63032085642E+02 0.36269132946E+02 0.21971045657E+02
 0.16414566699E+02 0.13797405775E+02 0.11966982996E+02 0.10811035414E+02 0.10116597054E+02
 0.96930586054E+01 0.94403526719E+01 0.93514172281E+01 0.94403526719E+01 0.96930586054E+01
 0.10116597054E+02 0.10811035414E+02 0.11966982996E+02 0.13797405775E+02 0.16414566699E+02
 0.21971045657E+02 0.36269132946E+02 0.63032085642E+02 0.10249845615E+03 0.15221358047E+03
 0.20731505041E+03 0.25966927781E+03 0.29818433688E+03 0.27240801848E+03 0.25966927781E+03
 0.22537759087E+03 0.17896954678E+03 0.13053851478E+03 0.87449597561E+02 0.53936545890E+02
 0.31840360560E+02 0.20467133717E+02 0.16091519795E+02 0.13710455192E+02 0.12039558289E+02
 0.10978706872E+02 0.10332805027E+02 0.99330668517E+01 0.96930586054E+01 0.96086236495E+01
 0.96930586054E+01 0.99330668517E+01 0.10332805027E+02 0.10978706872E+02 0.12039558289E+02
 0.13710455192E+02 0.16091519795E+02 0.20467133717E+02 0.31840360560E+02 0.53936545890E+02
 0.87449597561E+02 0.13053851478E+03 0.17896954678E+03 0.22537759087E+03 0.25966927781E+03
 0.21787952409E+03 0.20731505041E+03 0.17896954678E+03 0.14091248727E+03 0.10179224633E+03
 0.67846234602E+02 0.42401457752E+02 0.26461967050E+02 0.18764582410E+02 0.15670649953E+02
 0.13609439606E+02 0.12175238165E+02 0.11258515397E+02 0.10690598122E+02 0.10332805027E+02
 0.10116597054E+02 0.10040649161E+02 0.10116597054E+02 0.10332805027E+02 0.10690598122E+02
 0.11258515397E+02 0.12175238165E+02 0.13609439606E+02 0.15670649953E+02 0.18764582410E+02
 0.26461967050E+02 0.42401457752E+02 0.67846234602E+02 0.10179224633E+03 0.14091248727E+03
 0.17896954678E+03 0.20731505041E+03 0.16033384275E+03 0.15221358047E+03 0.13053851478E+03
 0.10179224633E+03 0.72914565679E+02 0.48793546802E+02 0.31721586603E+02 0.21849630233E+02
 0.17436720679E+02 0.15231969896E+02 0.13565299150E+02 0.12427369486E+02 0.11704878516E+02
 0.11258515397E+02 0.10978706872E+02 0.10811035414E+02 0.10752506730E+02 0.10811035414E+02
 0.10978706872E+02 0.11258515397E+02 0.11704878516E+02 0.12427369486E+02 0.13565299150E+02
 0.15231969896E+02 0.17436720679E+02 0.21849630233E+02 0.31721586603E+02 0.48793546802E+02
 0.72914565679E+02 0.10179224633E+03 0.13053851478E+03 0.15221358047E+03 0.10818010662E+03
 0.10249845615E+03 0.87449597561E+02 0.67846234602E+02 0.48793546802E+02 0.33730382833E+02
 0.23930056830E+02 0.18855877022E+02 0.16542995289E+02 0.14882570593E+02 0.13670276422E+02
 0.12887639230E+02 0.12427369486E+02 0.12175238165E+02 0.12039558289E+02 0.11966982996E+02
 0.11942662310E+02 0.11966982996E+02 0.12039558289E+02 0.12175238165E+02 0.12427369486E+02
 0.12887639230E+02 0.13670276422E+02 0.14882570593E+02 0.16542995289E+02 0.18855877022E+02
 0.23930056830E+02 0.33730382833E+02 0.48793546802E+02 0.67846234602E+02 0.87449597561E+02
 0.10249845615E+03 0.66506811064E+02 0.63032085642E+02 0.53936545890E+02 0.42401457752E+02
 0.31721586603E+02 0.23930056830E+02 0.19426676530E+02 0.17261939073E+02 0.15826386347E+02
 0.14726540840E+02 0.14025248555E+02 0.13670276422E+02 0.13565299150E+02 0.13609439606E+02
 0.13710455192E+02 0.13797405775E+02 0.13830324936E+02 0.13797405775E+02 0.13710455192E+02
 0.13609439606E+02 0.13565299150E+02 0.13670276422E+02 0.14025248555E+02 0.14726540840E+02
 0.15826386347E+02 0.17261939073E+02 0.19426676530E+02 0.23930056830E+02 0.31721586603E+02
 0.42401457752E+02 0.53936545890E+02 0.63032085642E+02 0.37994124413E+02 0.36269132946E+02
 0.31840360560E+02 0.26461967050E+02 0.21849630233E+02 0.18855877022E+02 0.17261939073E+02
 0.16168867700E+02 0.15337576496E+02 0.14856798916E+02 0.14726540840E+02 0.14882570593E+02
 0.15231969896E+02 0.15670649953E+02 0.16091519795E+02 0.16414566699E+02 0.16541967246E+02
 0.16414566699E+02 0.16091519795E+02 0.15670649953E+02 0.15231969896E+02 0.14882570593E+02
 0.14726540840E+02 0.14856798916E+02 0.15337576496E+02 0.16168867700E+02 0.17261939073E+02
 0.18855877022E+02 0.21849630233E+02 0.26461967050E+02 0.31840360560E+02 0.36269132946E+02
 0.22576740505E+02 0.21971045657E+02 0.20467133717E+02 0.18764582410E+02 0.17436720679E+02
 0.16542995289E+02 0.15826386347E+02 0.15337576496E+02 0.15163500636E+02 0.15337576496E+02
 0.15826386347E+02 0.16542995289E+02 0.17436720679E+02 0.18764582410E+02 0.20467133717E+02
 0.21971045657E+02 0.22576740505E+02 0.21971045657E+02 0.20467133717E+02 0.18764582410E+02
 0.17436720679E+02 0.16542995289E+02 0.15826386347E+02 0.15337576496E+02 0.15163500636E+02
 0.15337576496E+02 0.15826386347E+02 0.16542995289E+02 0.17436720679E+02 0.18764582410E+02
 0.20467133717E+02 0.21971045657E+02 0.16541967246E+02 0.16414566699E+02 0.16091519795E+02
 0.15670649953E+02 0.15231969896E+02 0.14882570593E+02 0.14726540840E+02 0.14856798916E+02
 0.15337576496E+02 0.16168867700E+02 0.17261939073E+02 0.18855877022E+02 0.21849630233E+02
 0.26461967050E+02 0.31840360560E+02 0.36269132946E+02 0.37994124413E+02 0.36269132946E+02
 0.31840360560E+02 0.26461967050E+02 0.21849630233E+02 0.18855877022E+02 0.17261939073E+02
 0.16168867700E+02 0.15337576496E+02 0.14856798916E+02 0.14726540840E+02 0.14882570593E+02
 0.15231969896E+02 0.15670649953E+02 0.16091519795E+02 0.16414566699E+02 0.13830324936E+02
 0.13797405775E+02 0.13710455192E+02 0.13609439606E+02 0.13565299150E+02 0.13670276422E+02
 0.14025248555E+02 0.14726540840E+02 0.15826386347E+02 0.17261939073E+02 0.19426676530E+02
 0.23930056830E+02 0.31721586603E+02 0.42401457752E+02 0.53936545890E+02 0.63032085642E+02
 0.66506811064E+02 0.63032085642E+02 0.53936545890E+02 0.42401457752E+02 0.31721586603E+02
 0.23930056830E+02 0.19426676530E+02 0.17261939073E+02 0.15826386347E+02 0.14726540840E+02
 0.14025248555E+02 0.13670276422E+02 0.13565299150E+02 0.13609439606E+02 0.13710455192E+02
 0.13797405775E+02 0.11942662310E+02 0.11966982996E+02 0.12039558289E+02 0.12175238165E+02
 0.12427369486E+02 0.12887639230E+02 0.13670276422E+02 0.14882570593E+02 0.16542995289E+02
 0.18855877022E+02 0.23930056830E+02 0.33730382833E+02 0.48793546802E+02 0.67846234602E+02
 0.87449597561E+02 0.10249845615E+03 0.10818010662E+03 0.10249845615E+03 0.87449597561E+02
 0.67846234602E+02 0.48793546802E+02 0.33730382833E+02 0.23930056830E+02 0.18855877022E+02
 0.16542995289E+02 0.14882570593E+02 0.13670276422E+02 0.12887639230E+02 0.12427369486E+02
 0.12175238165E+02 0.12039558289E+02 0.11966982996E+02 0.10752506730E+02 0.10811035414E+02
 0.10978706872E+02 0.11258515397E+02 0.11704878516E+02 0.12427369486E+02 0.13565299150E+02
 0.15231969896E+02 0.17436720679E+02 0.21849630233E+02 0.31721586603E+02 0.48793546802E+02
 0.72914565679E+02 0.10179224633E+03 0.13053851478E+03 0.15221358047E+03 0.16033384275E+03
 0.15221358047E+03 0.13053851478E+03 0.10179224633E+03 0.72914565679E+02 0.48793546802E+02
 0.31721586603E+02 0.21849630233E+02 0.17436720679E+02 0.15231969896E+02 0.13565299150E+02
 0.12427369486E+02 0.11704878516E+02 0.11258515397E+02 0.10978706872E+02 0.10811035414E+02
 0.10040649161E+02 0.10116597054E+02 0.10332805027E+02 0.10690598122E+02 0.11258515397E+02
 0.12175238165E+02 0.13609439606E+02 0.15670649953E+02 0.18764582410E+02 0.26461967050E+02
 0.42401457752E+02 0.67846234602E+02 0.10179224633E+03 0.14091248727E+03 0.17896954678E+03
 0.20731505041E+03 0.21787952409E+03 0.20731505041E+03 0.17896954678E+03 0.14091248727E+03
 0.10179224633E+03 0.67846234602E+02 0.42401457752E+02 0.26461967050E+02 0.18764582410E+02
 0.15670649953E+02 0.13609439606E+02 0.12175238165E+02 0.11258515397E+02 0.10690598122E+02
 0.10332805027E+02 0.10116597054E+02 0.96086236495E+01 0.96930586054E+01 0.99330668517E+01
 0.10332805027E+02 0.10978706872E+02 0.12039558289E+02 0.13710455192E+02 0.16091519795E+02
 0.20467133717E+02 0.31840360560E+02 0.53936545890E+02 0.87449597561E+02 0.13053851478E+03
 0.17896954678E+03 0.22537759087E+03 0.25966927781E+03 0.27240801848E+03 0.25966927781E+03
 0.22537759087E+03 0.17896954678E+03 0.13053851478E+03 0.87449597561E+02 0.53936545890E+02
 0.31840360560E+02 0.20467133717E+02 0.16091519795E+02 0.13710455192E+02 0.12039558289E+02
 0.10978706872E+02 0.10332805027E+02 0.99330668517E+01 0.96930586054E+01 0.93514172281E+01
 0.94403526719E+01 0.96930586054E+01 0.10116597054E+02 0.10811035414E+02 0.11966982996E+02
 0.13797405775E+02 0.16414566699E+02 0.21971045657E+02 0.36269132946E+02 0.63032085642E+02
 0.10249845615E+03 0.15221358047E+03 0.20731505041E+03 0.25966927781E+03 0.29818433688E+03
 0.31246629941E+03 0.29818433688E+03 0.25966927781E+03 0.20731505041E+03 0.15221358047E+03
 0.10249845615E+03 0.63032085642E+02 0.36269132946E+02 0.21971045657E+02 0.16414566699E+02
 0.13797405775E+02 0.11966982996E+02 0.10811035414E+02 0.10116597054E+02 0.96930586054E+01
 0.94403526719E+01 0.92608894233E+01 0.93514172281E+01 0.96086236495E+01 0.10040649161E+02
 0.10752506730E+02 0.11942662310E+02 0.13830324936E+02 0.16541967246E+02 0.22576740505E+02
 0.37994124413E+02 0.66506811064E+02 0.10818010662E+03 0.16033384275E+03 0.21787952409E+03
 0.27240801848E+03 0.31246629941E+03 0.32731207810E+03 0.31246629941E+03 0.27240801848E+03
 0.21787952409E+03 0.16033384275E+03 0.10818010662E+03 0.66506811064E+02 0.37994124413E+02
 0.22576740505E+02 0.16541967246E+02 0.13830324936E+02 0.11942662310E+02 0.10752506730E+02
 0.10040649161E+02 0.96086236495E+01 0.93514172281E+01 0.93514172281E+01 0.94403526719E+01
 0.96930586054E+01 0.10116597054E+02 0.10811035414E+02 0.11966982996E+02 0.13797405775E+02
 0.16414566699E+02 0.21971045657E+02 0.36269132946E+02 0.63032085642E+02 0.10249845615E+03
 0.15221358047E+03 0.20731505041E+03 0.25966927781E+03 0.29818433688E+03 0.31246629941E+03
 0.29818433688E+03 0.25966927781E+03 0.20731505041E+03 0.15221358047E+03 0.10249845615E+03
 0.63032085642E+02 0.36269132946E+02 0.21971045657E+02 0.16414566699E+02 0.13797405775E+02
 0.11966982996E+02 0.10811035414E+02 0.10116597054E+02 0.96930586054E+01 0.94403526719E+01
 0.96086236495E+01 0.96930586054E+01 0.99330668517E+01 0.10332805027E+02 0.10978706872E+02
 0.12039558289E+02 0.13710455192E+02 0.16091519795E+02 0.20467133717E+02 0.31840360560E+02
 0.53936545890E+02 0.87449597561E+02 0.13053851478E+03 0.17896954678E+03 0.22537759087E+03
 0.25966927781E+03 0.27240801848E+03 0.25966927781E+03 0.22537759087E+03 0.17896954678E+03
 0.13053851478E+03 0.87449597561E+02 0.53936545890E+02 0.31840360560E+02 0.20467133717E+02