   4   4   0   0
  0.1022208E+02  0.3445083E-09  0.3445083E-09  0.3445083E-09  0.5000000E-15
  1.000000000000000E-004
  CAR 
 unknown system                          
     37.99520266     -4.02718202  301      6.87450543      1.00000000
     -4.027  0.0000E+00  0.0000E+00
     -3.887  0.0000E+00  0.0000E+00
     -3.747 -0.9847E-32 -0.1379E-32
     -3.607 -0.9432E-27 -0.1321E-27
     -3.467 -0.3361E-22 -0.4708E-23
     -3.327 -0.4447E-18 -0.6229E-19
     -3.187 -0.2121E-14 -0.2972E-15
     -3.047 -0.3799E-11 -0.5324E-12
     -2.907 -0.2496E-08 -0.3501E-09
     -2.767 -0.5931E-06 -0.8342E-07
     -2.626 -0.4983E-04 -0.7064E-05
     -2.486 -0.1401E-02 -0.2033E-03
     -2.346 -0.1086E-01 -0.1724E-02
     -2.206  0.6729E-02 -0.7813E-03
     -2.066  0.1846E+00  0.2508E-01
     -1.926  0.2827E+00  0.6468E-01
     -1.786  0.8580E-01  0.7670E-01
     -1.646 -0.1307E-01  0.7487E-01
     -1.506 -0.5279E-02  0.7413E-01
     -1.366 -0.3673E-03  0.7408E-01
     -1.226 -0.2612E-04  0.7407E-01
     -1.086 -0.1061E-02  0.7392E-01
     -0.946 -0.1993E-01  0.7113E-01
     -0.805 -0.8444E-01  0.5930E-01
     -0.665  0.2843E+00  0.9913E-01
     -0.525  0.1526E+01  0.3129E+00
     -0.385  0.1387E+01  0.5072E+00
     -0.245  0.1762E+00  0.5319E+00
     -0.105 -0.7983E-01  0.5207E+00
      0.035 -0.1476E-01  0.5186E+00
      0.175 -0.1649E-02  0.5184E+00
      0.315 -0.2365E-01  0.5151E+00
      0.455 -0.1491E+00  0.4942E+00
      0.595  0.2277E+00  0.5261E+00
      0.735  0.2557E+01  0.8842E+00
      0.875  0.3210E+01  0.1334E+01
      1.016  0.6950E+00  0.1431E+01
      1.156 -0.2655E+00  0.1394E+01
      1.296  0.7341E+00  0.1497E+01
      1.436  0.2277E+01  0.1816E+01
      1.576  0.1253E+01  0.1991E+01
      1.716  0.2386E+00  0.2025E+01
      1.856  0.1904E+01  0.2291E+01
      1.996  0.2330E+01  0.2618E+01
      2.136  0.4143E+00  0.2676E+01
      2.276 -0.5716E+00  0.2596E+01
      2.416  0.9564E+00  0.2730E+01
      2.556  0.7579E+01  0.3791E+01
      2.696  0.1016E+02  0.5215E+01
      2.836  0.7852E+01  0.6315E+01
      2.977  0.6016E+01  0.7158E+01
      3.117  0.3152E+01  0.7599E+01
      3.257  0.6140E+01  0.8459E+01
      3.397  0.6715E+01  0.9400E+01
      3.537  0.6094E+01  0.1025E+02
      3.677  0.9319E+01  0.1156E+02
      3.817  0.4977E+01  0.1226E+02
      3.957 -0.3200E+00  0.1221E+02
      4.097 -0.2669E+00  0.1217E+02
      4.237  0.6118E+01  0.1303E+02
      4.377  0.1123E+02  0.1460E+02
      4.517  0.7785E+01  0.1569E+02
      4.657  0.7132E+01  0.1669E+02
      4.798  0.5550E+01  0.1747E+02
      4.938  0.3679E+01  0.1799E+02
      5.078  0.5407E+01  0.1874E+02
      5.218  0.1319E+02  0.2059E+02
      5.358  0.1457E+02  0.2263E+02
      5.498  0.7156E+01  0.2363E+02
      5.638  0.8123E+01  0.2477E+02
      5.778  0.9542E+01  0.2611E+02
      5.918  0.5466E+01  0.2687E+02
      6.058  0.5468E+01  0.2764E+02
      6.198  0.4739E+01  0.2830E+02
      6.338  0.1115E+01  0.2846E+02
      6.478  0.2471E+01  0.2881E+02
      6.618  0.7464E+01  0.2985E+02
      6.759  0.9259E+01  0.3115E+02
      6.899  0.7416E+01  0.3219E+02
      7.039  0.1118E+02  0.3375E+02
      7.179  0.1430E+02  0.3576E+02
      7.319  0.1012E+02  0.3717E+02
      7.459  0.6616E+01  0.3810E+02
      7.599  0.5541E+01  0.3888E+02
      7.739  0.6641E+01  0.3981E+02
      7.879  0.8359E+01  0.4098E+02
      8.019  0.6846E+01  0.4194E+02
      8.159  0.3628E+01  0.4244E+02
      8.299  0.2834E+00  0.4248E+02
      8.439 -0.2412E+00  0.4245E+02
      8.580 -0.3951E-01  0.4244E+02
      8.720 -0.1701E-02  0.4244E+02
      8.860 -0.2420E-04  0.4244E+02
      9.000 -0.4916E-05  0.4244E+02
      9.140 -0.5053E-03  0.4244E+02
      9.280 -0.1814E-01  0.4244E+02
      9.420 -0.1943E+00  0.4241E+02
      9.560 -0.2145E+00  0.4238E+02
      9.700  0.2915E+01  0.4279E+02
      9.840  0.7571E+01  0.4385E+02
      9.980  0.8810E+01  0.4509E+02
     10.120  0.6977E+01  0.4606E+02
     10.260  0.1609E+01  0.4629E+02
     10.401 -0.3595E+00  0.4624E+02
     10.541 -0.1174E+00  0.4622E+02
     10.681 -0.8113E-02  0.4622E+02
     10.821 -0.1884E-03  0.4622E+02
     10.961 -0.1613E-05  0.4622E+02
     11.101 -0.5236E-08  0.4622E+02
     11.241 -0.6475E-11  0.4622E+02
     11.381 -0.2818E-14  0.4622E+02
     11.521  0.0000E+00  0.4622E+02
     11.661 -0.6205E-30  0.4622E+02
     11.801 -0.5178E-25  0.4622E+02
     11.941 -0.1607E-20  0.4622E+02
     12.081 -0.1852E-16  0.4622E+02
     12.221 -0.7658E-13  0.4622E+02
     12.362 -0.1196E-09  0.4622E+02
     12.502 -0.6827E-07  0.4622E+02
     12.642 -0.1406E-04  0.4622E+02
     12.782 -0.1019E-02  0.4622E+02
     12.922 -0.2436E-01  0.4622E+02
     13.062 -0.1507E+00  0.4620E+02
     13.202  0.2417E+00  0.4623E+02
     13.342  0.2553E+01  0.4659E+02
     13.482  0.3029E+01  0.4701E+02
     13.622  0.1153E+01  0.4717E+02
     13.762  0.2722E+01  0.4756E+02
     13.902  0.2899E+01  0.4796E+02
     14.042  0.4736E+00  0.4803E+02
     14.183 -0.1663E+00  0.4801E+02
     14.323 -0.3539E-01  0.4800E+02
     14.463 -0.1770E-02  0.4800E+02
     14.603 -0.2872E-04  0.4800E+02
     14.743 -0.1629E-06  0.4800E+02
     14.883 -0.3343E-09  0.4800E+02
     15.023 -0.1957E-08  0.4800E+02
     15.163 -0.8127E-06  0.4800E+02
     15.303 -0.1211E-03  0.4800E+02
     15.443 -0.6283E-02  0.4800E+02
     15.583 -0.1042E+00  0.4798E+02
     15.723 -0.3727E+00  0.4793E+02
     15.863  0.1424E+01  0.4813E+02
     16.003  0.7009E+01  0.4911E+02
     16.144  0.7960E+01  0.5023E+02
     16.284  0.3252E+01  0.5068E+02
     16.424  0.1199E+00  0.5070E+02
     16.564 -0.2075E+00  0.5067E+02
     16.704 -0.3405E-01  0.5067E+02
     16.844 -0.1565E-02  0.5067E+02
     16.984 -0.2411E-04  0.5067E+02
     17.124 -0.1310E-06  0.5067E+02
     17.264 -0.2570E-09  0.5067E+02
     17.404 -0.2063E-12  0.5067E+02
     17.544 -0.4059E-10  0.5067E+02
     17.684 -0.2798E-07  0.5067E+02
     17.824 -0.6984E-05  0.5067E+02
     17.965 -0.6175E-03  0.5067E+02
     18.105 -0.1834E-01  0.5066E+02
     18.245 -0.1531E+00  0.5064E+02
     18.385  0.4323E-01  0.5065E+02
     18.525  0.2580E+01  0.5101E+02
     18.665  0.4162E+01  0.5159E+02
     18.805  0.1579E+01  0.5181E+02
     18.945  0.2189E+01  0.5212E+02
     19.085  0.3212E+01  0.5257E+02
     19.225  0.7529E+00  0.5268E+02
     19.365 -0.1073E+00  0.5266E+02
     19.505  0.2123E+01  0.5296E+02
     19.645  0.4836E+01  0.5364E+02
     19.786  0.3447E+01  0.5412E+02
     19.926  0.4495E+00  0.5418E+02
     20.066 -0.1964E+00  0.5415E+02
     20.206 -0.4125E-01  0.5415E+02
     20.346 -0.1074E-01  0.5415E+02
     20.486 -0.1268E+00  0.5413E+02
     20.626 -0.3545E+00  0.5408E+02
     20.766  0.1854E+01  0.5434E+02
     20.906  0.7305E+01  0.5536E+02
     21.046  0.7492E+01  0.5641E+02
     21.186  0.2990E+01  0.5683E+02
     21.326  0.1110E+00  0.5685E+02
     21.466 -0.2792E+00  0.5681E+02
     21.606 -0.3709E+00  0.5676E+02
     21.747  0.1212E+01  0.5693E+02
     21.887  0.6184E+01  0.5779E+02
     22.027  0.5451E+01  0.5855E+02
     22.167  0.6439E+00  0.5864E+02
     22.307 -0.3149E+00  0.5860E+02
     22.447 -0.5619E-01  0.5859E+02
     22.587 -0.6410E-02  0.5859E+02
     22.727 -0.4430E-01  0.5859E+02
     22.867 -0.5178E-01  0.5858E+02
     23.007  0.7450E+00  0.5868E+02
     23.147  0.1757E+01  0.5893E+02
     23.287  0.8577E+00  0.5905E+02
     23.427 -0.3054E-01  0.5904E+02
     23.568 -0.5126E-01  0.5904E+02
     23.708 -0.1823E-01  0.5904E+02
     23.848 -0.7751E-01  0.5902E+02
     23.988  0.1439E+00  0.5904E+02
     24.128  0.1334E+01  0.5923E+02
     24.268  0.1568E+01  0.5945E+02
     24.408  0.3198E+00  0.5950E+02
     24.548 -0.1653E+00  0.5947E+02
     24.688 -0.1469E+00  0.5945E+02
     24.828  0.1344E+01  0.5964E+02
     24.968  0.3489E+01  0.6013E+02
     25.108  0.1784E+01  0.6038E+02
     25.248 -0.3644E+00  0.6033E+02
     25.388  0.9465E+00  0.6046E+02
     25.529  0.5700E+01  0.6126E+02
     25.669  0.7053E+01  0.6225E+02
     25.809  0.7739E+01  0.6333E+02
     25.949  0.9282E+01  0.6463E+02
     26.089  0.6762E+01  0.6558E+02
     26.229  0.1383E+01  0.6577E+02
     26.369 -0.3725E+00  0.6572E+02
     26.509 -0.1074E+00  0.6570E+02
     26.649 -0.6623E-02  0.6570E+02
     26.789 -0.1310E-03  0.6570E+02
     26.929 -0.1132E-03  0.6570E+02
     27.069 -0.4980E-02  0.6570E+02
     27.209 -0.6821E-01  0.6569E+02
     27.350 -0.1496E+00  0.6567E+02
     27.490  0.1121E+01  0.6583E+02
     27.630  0.3431E+01  0.6631E+02
     27.770  0.2112E+01  0.6661E+02
     27.910  0.4463E-01  0.6661E+02
     28.050 -0.1341E+00  0.6659E+02
     28.190 -0.6506E-01  0.6658E+02
     28.330  0.6814E-01  0.6659E+02
     28.470  0.7823E+00  0.6670E+02
     28.610  0.1785E+01  0.6695E+02
     28.750  0.1796E+01  0.6720E+02
     28.890  0.3729E+00  0.6726E+02
     29.030 -0.4634E+00  0.6719E+02
     29.171  0.1898E+01  0.6746E+02
     29.311  0.7649E+01  0.6853E+02
     29.451  0.6216E+01  0.6940E+02
     29.591  0.1650E+01  0.6963E+02
     29.731  0.1966E+01  0.6991E+02
     29.871  0.1256E+01  0.7008E+02
     30.011  0.3190E-01  0.7009E+02
     30.151  0.2135E-01  0.7009E+02
     30.291  0.6434E+00  0.7018E+02
     30.431  0.2892E+01  0.7059E+02
     30.571  0.2663E+01  0.7096E+02
     30.711  0.6760E-01  0.7097E+02
     30.851  0.4246E+01  0.7156E+02
     30.991  0.1181E+02  0.7322E+02
     31.132  0.6940E+01  0.7419E+02
     31.272  0.1640E+00  0.7421E+02
     31.412 -0.4069E+00  0.7416E+02
     31.552 -0.5271E-01  0.7415E+02
     31.692 -0.1970E-02  0.7415E+02
     31.832 -0.2546E-04  0.7415E+02
     31.972 -0.1195E-06  0.7415E+02
     32.112 -0.2073E-09  0.7415E+02
     32.252 -0.1346E-12  0.7415E+02
     32.392 -0.2969E-11  0.7415E+02
     32.532 -0.2362E-08  0.7415E+02
     32.672 -0.6817E-06  0.7415E+02
     32.812 -0.6997E-04  0.7415E+02
     32.953 -0.2439E-02  0.7415E+02
     33.093 -0.2498E-01  0.7414E+02
     33.233 -0.1663E-01  0.7414E+02
     33.373  0.4219E+00  0.7420E+02
     33.513  0.8610E+00  0.7432E+02
     33.653  0.2185E+00  0.7435E+02
     33.793 -0.1503E+00  0.7433E+02
     33.933  0.2469E+01  0.7468E+02
     34.073  0.6795E+01  0.7563E+02
     34.213  0.5294E+01  0.7637E+02
     34.353  0.6633E+00  0.7646E+02
     34.493  0.2562E+00  0.7650E+02
     34.633  0.2792E+01  0.7689E+02
     34.773  0.4856E+01  0.7757E+02
     34.914  0.7124E+01  0.7857E+02
     35.054  0.4086E+01  0.7914E+02
     35.194  0.6980E-01  0.7915E+02
     35.334 -0.2507E+00  0.7912E+02
     35.474 -0.3494E-01  0.7911E+02
     35.614 -0.6439E-01  0.7910E+02
     35.754 -0.1568E+00  0.7908E+02
     35.894  0.1030E+01  0.7922E+02
     36.034  0.3392E+01  0.7970E+02
     36.174  0.2216E+01  0.8001E+02
     36.314  0.8075E-01  0.8002E+02
     36.454 -0.1303E+00  0.8000E+02
     36.594 -0.1681E-01  0.8000E+02
     36.735 -0.5980E-03  0.8000E+02
     36.875 -0.7117E-05  0.8000E+02
     37.015 -0.2995E-07  0.8000E+02
     37.155 -0.4559E-10  0.8000E+02
     37.295 -0.2536E-13  0.8000E+02
     37.435  0.0000E+00  0.8000E+02
     37.575  0.0000E+00  0.8000E+02
     37.715  0.0000E+00  0.8000E+02
     37.855  0.0000E+00  0.8000E+02
     37.995  0.0000E+00  0.8000E+02
