    4    4    1    1
  0.1022208E+02  0.3445083E-09  0.3445083E-09  0.3445083E-09  0.5000000E-15
  1.000000000000000E-004
  CAR 
 unknown system                          
     32      4     40
 
  0.0000000E+00  0.0000000E+00  0.0000000E+00  0.3703704E-01
    1       -2.027182   1.000000
    2        1.851992   1.000000
    3        1.851992   1.000000
    4        1.851992   1.000000
    5        2.558520   1.000000
    6        2.558520   1.000000
    7        2.558520   1.000000
    8        5.117184   1.000000
    9        5.117184   1.000000
   10        5.117184   1.000000
   11        6.700012   1.006335
   12        6.700012   1.006335
   13        7.735443  -0.000000
   14        7.735443  -0.000000
   15        7.735443  -0.000000
   16        8.002684  -0.000000
   17        8.002684  -0.000000
   18        8.002684  -0.000000
   19        8.002684  -0.000000
   20        8.002684  -0.000000
   21        8.002684  -0.000000
   22       10.066665  -0.000000
   23       10.066665  -0.000000
   24       10.066665  -0.000000
   25       18.566737   0.000000
   26       18.566737   0.000000
   27       18.566737   0.000000
   28       23.083053   0.000000
   29       23.083053   0.000000
   30       23.083053   0.000000
   31       23.083053   0.000000
   32       23.083053   0.000000
   33       23.083053   0.000000
   34       28.464322   0.000000
   35       28.464322   0.000000
   36       28.464322   0.000000
   37       30.132452   0.000000
   38       33.438281   0.000000
   39       33.438281   0.000000
   40       33.438281   0.000000
 
  0.3333333E+00  0.0000000E+00  0.0000000E+00  0.2222222E+00
    1       -0.534157   1.000000
    2        1.881148   1.000000
    3        2.652682   1.000000
    4        2.652682   1.000000
    5        3.135310   1.000000
    6        3.274067   1.000000
    7        3.274067   1.000000
    8        4.407267   1.000000
    9        5.387693   1.000000
   10        5.387693   1.000000
   11        5.679372   1.000000
   12        5.679372   1.000000
   13        6.076029   1.000000
   14        6.584593   1.029830
   15        6.922452   0.303444
   16        6.922452   0.303444
   17        6.949696   0.205398
   18        7.079622  -0.027582
   19        7.079622  -0.027582
   20        7.467229  -0.000114
   21        8.004338  -0.000000
   22        8.004338  -0.000000
   23       13.764003   0.000000
   24       13.764003   0.000000
   25       18.571639   0.000000
   26       18.571639   0.000000
   27       18.975869   0.000000
   28       18.975869   0.000000
   29       21.039664   0.000000
   30       21.039664   0.000000
   31       24.142752   0.000000
   32       25.505483   0.000000
   33       25.505483   0.000000
   34       28.652094   0.000000
   35       29.362844   0.000000
   36       30.906709   0.000000
   37       30.979883   0.000000
   38       30.979883   0.000000
   39       33.973125   0.000000
   40       33.973132   0.000000
 
  0.3333333E+00  0.3333333E+00  0.0000000E+00  0.4444444E+00
    1        0.756423   1.000000
    2        2.861159   1.000000
    3        2.861159   1.000000
    4        3.277599   1.000000
    5        3.540699   1.000000
    6        3.642682   1.000000
    7        3.642682   1.000000
    8        4.296505   1.000000
    9        4.597046   1.000000
   10        4.597046   1.000000
   11        4.822211   1.000000
   12        5.280634   1.000000
   13        5.886140   1.000000
   14        6.091662   1.000000
   15        6.498938   1.011624
   16        6.702060   1.004299
   17        6.702060   1.004299
   18        7.081059  -0.028202
   19        7.081059  -0.028202
   20        7.340003  -0.002417
   21        7.540479  -0.000013
   22        9.769164  -0.000000
   23        9.769164  -0.000000
   24       13.361497   0.000000
   25       16.139890   0.000000
   26       19.653804   0.000000
   27       20.868241   0.000000
   28       20.868241   0.000000
   29       21.874968   0.000000
   30       21.874968   0.000000
   31       24.911661   0.000000
   32       25.533191   0.000000
   33       25.776630   0.000000
   34       25.776630   0.000000
   35       27.585455   0.000000
   36       30.432734   0.000000
   37       34.616464   0.000000
   38       34.869725   0.000000
   39       34.869725   0.000000
   40       35.995203   0.000000
 
  0.3333333E+00  0.3333333E+00  0.3333333E+00  0.2962963E+00
    1        1.388442   1.000000
    2        2.549729   1.000000
    3        2.549729   1.000000
    4        2.549729   1.000000
    5        4.275991   1.000000
    6        4.275991   1.000000
    7        4.275991   1.000000
    8        5.001303   1.000000
    9        5.180029   1.000000
   10        5.180029   1.000000
   11        5.180029   1.000000
   12        5.256130   1.000000
   13        5.256130   1.000000
   14        5.636842   1.000000
   15        5.636842   1.000000
   16        5.636842   1.000000
   17        7.222237  -0.016896
   18        7.222237  -0.016896
   19        7.780967  -0.000000
   20        7.780967  -0.000000
   21        7.780967  -0.000000
   22        9.995571  -0.000000
   23        9.995571  -0.000000
   24        9.995571  -0.000000
   25       15.978937   0.000000
   26       15.978937   0.000000
   27       15.978937   0.000000
   28       19.516612   0.000000
   29       25.975603   0.000000
   30       25.975603   0.000000
   31       25.975603   0.000000
   32       29.275253   0.000000
   33       29.275253   0.000000
   34       29.275253   0.000000
   35       29.681911   0.000000
   36       30.930364   0.000000
   37       30.930364   0.000000
   38       30.930364   0.000000
   39       34.094603   0.000000
   40       34.094603   0.000000
