<?xml version="1.0" encoding="ISO-8859-1"?>
<modeling>
 <generator>
  <i name="program" type="string">vasp </i>
  <i name="version" type="string">6.2.0  </i>
  <i name="subversion" type="string">18Jan21 (build Mar 17 2021 09:06:54) complex                          serial </i>
  <i name="platform" type="string">LinuxIFC </i>
  <i name="date" type="string">2021 09 09 </i>
  <i name="time" type="string">09:02:38 </i>
 </generator>
 <incar>
  <i type="string" name="PREC">normal</i>
  <i type="int" name="ICHARG">     1</i>
  <i type="int" name="IBRION">    -1</i>
  <i name="EDIFF">      0.00000100</i>
  <i type="int" name="NSW">     0</i>
  <i name="ENCUT">    300.00000000</i>
  <i type="int" name="NBANDS">    40</i>
  <i type="int" name="ISMEAR">     1</i>
  <i name="SIGMA">      0.20000000</i>
  <i type="logical" name="LCHARG"> T  </i>
  <i type="int" name="KPAR">     1</i>
  <i type="int" name="NCORE">     1</i>
  <i type="string" name="GGA">PE</i>
 </incar>
 <primitive_cell>
  <structure name="primitive_cell" >
   <crystal>
    <varray name="basis" >
     <v>       1.72254150      -1.72254150       0.00000000 </v>
     <v>       1.72254150       0.00000000       1.72254150 </v>
     <v>       0.00000000      -1.72254150       1.72254150 </v>
    </varray>
    <i name="volume">     10.22207533 </i>
    <varray name="rec_basis" >
     <v>       0.29026877      -0.29026877      -0.29026877 </v>
     <v>       0.29026877       0.29026877       0.29026877 </v>
     <v>      -0.29026877      -0.29026877       0.29026877 </v>
    </varray>
   </crystal>
   <varray name="positions" >
    <v>       0.00000000       0.00000000       0.00000000 </v>
   </varray>
  </structure>
  <varray name="primitive_index" >
   <v type="int" >        1 </v>
  </varray>
 </primitive_cell>
 <kpoints>
  <generation param="Monkhorst-Pack">
   <v type="int" name="divisions">       3        3        3 </v>
   <v name="usershift">      0.00000000       0.00000000       0.00000000 </v>
   <v name="genvec1">      0.33333333       0.00000000       0.00000000 </v>
   <v name="genvec2">      0.00000000       0.33333333       0.00000000 </v>
   <v name="genvec3">      0.00000000       0.00000000       0.33333333 </v>
   <v name="shift">      0.00000000       0.00000000       0.00000000 </v>
  </generation>
  <varray name="kpointlist" >
   <v>       0.00000000       0.00000000       0.00000000 </v>
   <v>       0.33333333       0.00000000       0.00000000 </v>
   <v>       0.33333333       0.33333333       0.00000000 </v>
   <v>       0.33333333       0.33333333       0.33333333 </v>
  </varray>
  <varray name="weights" >
   <v>       0.03703704 </v>
   <v>       0.22222222 </v>
   <v>       0.44444444 </v>
   <v>       0.29629630 </v>
  </varray>
 </kpoints>
 <parameters>
  <separator name="general" >
   <i type="string" name="SYSTEM">unknown system</i>
   <i type="logical" name="LCOMPAT"> F  </i>
  </separator>
  <separator name="electronic" >
   <i type="string" name="PREC">normal</i>
   <i name="ENMAX">    300.00000000</i>
   <i name="ENAUG">    511.36800000</i>
   <i name="EDIFF">      0.00000100</i>
   <i type="int" name="IALGO">    38</i>
   <i type="int" name="IWAVPR">     0</i>
   <i type="int" name="NBANDS">    40</i>
   <i type="int" name="NBANDSLOW">    -1</i>
   <i type="int" name="NBANDSHIGH">    -1</i>
   <i name="NELECT">     32.00000000</i>
   <i type="int" name="TURBO">     0</i>
   <i type="int" name="IRESTART">     0</i>
   <i type="int" name="NREBOOT">     0</i>
   <i type="int" name="NMIN">     0</i>
   <i name="EREF">      0.00000000</i>
   <separator name="electronic smearing" >
    <i type="int" name="ISMEAR">     1</i>
    <i name="SIGMA">      0.20000000</i>
    <i name="KSPACING">      0.50000000</i>
    <i type="logical" name="KGAMMA"> T  </i>
    <i type="logical" name="KBLOWUP"> T  </i>
   </separator>
   <separator name="electronic projectors" >
    <i type="logical" name="LREAL"> F  </i>
    <v name="ROPT">      0.00000000</v>
    <i type="int" name="LMAXPAW">  -100</i>
    <i type="int" name="LMAXMIX">     2</i>
    <i type="logical" name="NLSPLINE"> F  </i>
   </separator>
   <separator name="electronic startup" >
    <i type="int" name="ISTART">     0</i>
    <i type="int" name="ICHARG">     1</i>
    <i type="int" name="INIWAV">     1</i>
   </separator>
   <separator name="electronic spin" >
    <i type="int" name="ISPIN">     1</i>
    <i type="logical" name="LNONCOLLINEAR"> F  </i>
    <v name="MAGMOM">      1.00000000      1.00000000      1.00000000      1.00000000</v>
    <i name="NUPDOWN">     -1.00000000</i>
    <i type="logical" name="LSORBIT"> F  </i>
    <v name="SAXIS">      0.00000000      0.00000000      1.00000000</v>
    <i type="logical" name="LSPIRAL"> F  </i>
    <v name="QSPIRAL">      0.00000000      0.00000000      0.00000000</v>
    <i type="logical" name="LZEROZ"> F  </i>
   </separator>
   <separator name="electronic exchange-correlation" >
    <i type="logical" name="LASPH"> F  </i>
    <i type="logical" name="LMETAGGA"> F  </i>
   </separator>
   <separator name="electronic convergence" >
    <i type="int" name="NELM">    60</i>
    <i type="int" name="NELMDL">    -5</i>
    <i type="int" name="NELMIN">     2</i>
    <i name="ENINI">    300.00000000</i>
    <separator name="electronic convergence detail" >
     <i type="logical" name="LDIAG"> T  </i>
     <i type="logical" name="LSUBROT"> F  </i>
     <i name="WEIMIN">      0.00000000</i>
     <i name="EBREAK">      0.00000001</i>
     <i name="DEPER">      0.30000000</i>
     <i type="int" name="NRMM">     4</i>
     <i name="TIME">      0.40000000</i>
    </separator>
   </separator>
   <separator name="electronic mixer" >
    <i name="AMIX">      0.40000000</i>
    <i name="BMIX">      1.00000000</i>
    <i name="AMIN">      0.10000000</i>
    <i name="AMIX_MAG">      1.60000000</i>
    <i name="BMIX_MAG">      1.00000000</i>
    <separator name="electronic mixer details" >
     <i type="int" name="IMIX">     4</i>
     <i type="logical" name="MIXFIRST"> F  </i>
     <i type="int" name="MAXMIX">   -45</i>
     <i name="WC">    100.00000000</i>
     <i type="int" name="INIMIX">     1</i>
     <i type="int" name="MIXPRE">     1</i>
     <i type="int" name="MREMOVE">     5</i>
    </separator>
   </separator>
   <separator name="electronic dipolcorrection" >
    <i type="logical" name="LDIPOL"> F  </i>
    <i type="logical" name="LMONO"> F  </i>
    <i type="int" name="IDIPOL">     0</i>
    <i name="EPSILON">      1.00000000</i>
    <v name="DIPOL">   -100.00000000   -100.00000000   -100.00000000</v>
    <i name="EFIELD">      0.00000000</i>
   </separator>
  </separator>
  <separator name="grids" >
   <i type="int" name="NGX">    16</i>
   <i type="int" name="NGY">    16</i>
   <i type="int" name="NGZ">    16</i>
   <i type="int" name="NGXF">    32</i>
   <i type="int" name="NGYF">    32</i>
   <i type="int" name="NGZF">    32</i>
   <i type="logical" name="ADDGRID"> F  </i>
  </separator>
  <separator name="ionic" >
   <i type="int" name="NSW">     0</i>
   <i type="int" name="IBRION">    -1</i>
   <i type="int" name="MDALGO">     0</i>
   <i type="int" name="ISIF">     2</i>
   <i name="PSTRESS">      0.00000000</i>
   <i name="EDIFFG">      0.00001000</i>
   <i type="int" name="NFREE">     0</i>
   <i name="POTIM">      0.50000000</i>
   <i name="SMASS">     -3.00000000</i>
   <i name="SCALEE">      1.00000000</i>
  </separator>
  <separator name="ionic md" >
   <i name="TEBEG">      0.00010000</i>
   <i name="TEEND">      0.00010000</i>
   <i type="int" name="NBLOCK">     1</i>
   <i type="int" name="KBLOCK">     1</i>
   <i type="int" name="NPACO">   256</i>
   <i name="APACO">     16.00000000</i>
  </separator>
  <separator name="symmetry" >
   <i type="int" name="ISYM">     2</i>
   <i name="SYMPREC">      0.00001000</i>
  </separator>
  <separator name="dos" >
   <i type="int" name="LORBIT">     0</i>
   <v name="RWIGS">     -1.00000000</v>
   <i type="int" name="NEDOS">   301</i>
   <i name="EMIN">     10.00000000</i>
   <i name="EMAX">    -10.00000000</i>
   <i name="EFERMI">      0.00000000</i>
  </separator>
  <separator name="writing" >
   <i type="int" name="NWRITE">     2</i>
   <i type="logical" name="LWAVE"> T  </i>
   <i type="logical" name="LDOWNSAMPLE"> F  </i>
   <i type="logical" name="LCHARG"> T  </i>
   <i type="logical" name="LPARD"> F  </i>
   <i type="logical" name="LVTOT"> F  </i>
   <i type="logical" name="LVHAR"> F  </i>
   <i type="logical" name="LELF"> F  </i>
   <i type="logical" name="LOPTICS"> F  </i>
   <v name="STM">      0.00000000      0.00000000      0.00000000      0.00000000      0.00000000      0.00000000      0.00000000</v>
  </separator>
  <separator name="performance" >
   <i type="int" name="NPAR">     1</i>
   <i type="int" name="NSIM">     4</i>
   <i type="int" name="NBLK">    -1</i>
   <i type="logical" name="LPLANE"> T  </i>
   <i type="logical" name="LSCALAPACK"> F  </i>
   <i type="logical" name="LSCAAWARE"> F  </i>
   <i type="logical" name="LSCALU"> F  </i>
   <i type="logical" name="LASYNC"> F  </i>
   <i type="logical" name="LORBITALREAL"> F  </i>
  </separator>
  <separator name="miscellaneous" >
   <i type="int" name="IDIOT">     3</i>
   <i type="int" name="PHON_NSTRUCT">    -1</i>
   <i type="logical" name="LMUSIC"> F  </i>
   <v name="POMASS">     55.84700000</v>
   <v name="DARWINR">      0.00000000</v>
   <v name="DARWINV">      1.00000000</v>
   <i type="logical" name="LCORR"> T  </i>
  </separator>
  <i type="logical" name="GGA_COMPAT"> T  </i>
  <i type="logical" name="LBERRY"> F  </i>
  <i type="int" name="ICORELEVEL">     0</i>
  <i type="logical" name="LDAU"> F  </i>
  <i type="int" name="I_CONSTRAINED_M">     0</i>
  <separator name="electronic exchange-correlation" >
   <i type="string" name="GGA">PE</i>
   <i type="int" name="VOSKOWN">     0</i>
   <i type="logical" name="LHFCALC"> F  </i>
   <i type="string" name="PRECFOCK"></i>
   <i type="logical" name="LSYMGRAD"> F  </i>
   <i type="logical" name="LHFONE"> F  </i>
   <i type="logical" name="LRHFCALC"> F  </i>
   <i type="logical" name="LTHOMAS"> F  </i>
   <i type="logical" name="LMODELHF"> F  </i>
   <i type="logical" name="LFOCKACE"> F  </i>
   <i name="ENCUT4O">     -1.00000000</i>
   <i type="int" name="EXXOEP">     0</i>
   <i type="int" name="FOURORBIT">     0</i>
   <i name="AEXX">      0.00000000</i>
   <i name="HFALPHA">      0.00000000</i>
   <i name="MCALPHA">      0.00000000</i>
   <i name="ALDAX">      1.00000000</i>
   <i name="AGGAX">      1.00000000</i>
   <i name="ALDAC">      1.00000000</i>
   <i name="AGGAC">      1.00000000</i>
   <i type="int" name="NKREDX">     1</i>
   <i type="int" name="NKREDY">     1</i>
   <i type="int" name="NKREDZ">     1</i>
   <i type="logical" name="SHIFTRED"> F  </i>
   <i type="logical" name="ODDONLY"> F  </i>
   <i type="logical" name="EVENONLY"> F  </i>
   <i type="int" name="LMAXFOCK">     0</i>
   <i type="int" name="NMAXFOCKAE">     0</i>
   <i type="logical" name="LFOCKAEDFT"> F  </i>
   <i name="HFSCREEN">      0.00000000</i>
   <i name="HFSCREENC">      0.00000000</i>
   <i type="int" name="NBANDSGWLOW">     0</i>
  </separator>
  <separator name="vdW DFT" >
   <i type="logical" name="LUSE_VDW"> F  </i>
   <i name="Zab_VDW">     -0.84910000</i>
   <i name="PARAM1">      0.12340000</i>
   <i name="PARAM2">      1.00000000</i>
   <i name="PARAM3">      0.00000000</i>
  </separator>
  <separator name="model GW" >
   <i type="int" name="MODEL_GW">     0</i>
   <i name="MODEL_EPS0">      6.13324520</i>
   <i name="MODEL_ALPHA">      1.00000000</i>
  </separator>
  <separator name="linear response parameters" >
   <i type="logical" name="LEPSILON"> F  </i>
   <i type="logical" name="LRPA"> F  </i>
   <i type="logical" name="LNABLA"> F  </i>
   <i type="logical" name="LVEL"> F  </i>
   <i type="int" name="KINTER">     0</i>
   <i name="CSHIFT">      0.10000000</i>
   <i name="OMEGAMAX">     -1.00000000</i>
   <i name="DEG_THRESHOLD">      0.00200000</i>
   <i name="RTIME">     -0.10000000</i>
   <i name="WPLASMAI">      0.00000000</i>
   <v name="DFIELD">      0.00000000      0.00000000      0.00000000</v>
   <v name="WPLASMA">      0.00000000      0.00000000      0.00000000      0.00000000      0.00000000      0.00000000      0.00000000      0.00000000      0.00000000</v>
  </separator>
  <separator name="orbital magnetization" >
   <i type="logical" name="NUCIND"> F  </i>
   <v name="MAGPOS">      0.00000000      0.00000000      0.00000000</v>
   <i type="logical" name="LNICSALL"> T  </i>
   <i type="logical" name="ORBITALMAG"> F  </i>
   <i type="logical" name="LMAGBLOCH"> F  </i>
   <i type="logical" name="LCHIMAG"> F  </i>
   <i type="logical" name="LGAUGE"> T  </i>
   <i type="int" name="MAGATOM">     0</i>
   <v name="MAGDIPOL">      0.00000000      0.00000000      0.00000000</v>
   <v name="AVECCONST">      0.00000000      0.00000000      0.00000000</v>
  </separator>
  <separator name="response functions" >
   <i type="logical" name="LFINITE_TEMPERATURE"> F  </i>
   <i type="logical" name="LADDER"> F  </i>
   <i type="logical" name="LRPAFORCE"> F  </i>
   <i type="logical" name="LFXC"> F  </i>
   <i type="logical" name="LHARTREE"> T  </i>
   <i type="int" name="IBSE">     0</i>
   <v type="int" name="KPOINT">    -1     0     0     0</v>
   <i type="logical" name="LTCTC"> F  </i>
   <i type="logical" name="LTCTE"> F  </i>
   <i type="logical" name="LTETE"> F  </i>
   <i type="logical" name="LTRIPLET"> F  </i>
   <i type="logical" name="LFXCEPS"> F  </i>
   <i type="logical" name="LFXHEG"> F  </i>
   <i type="int" name="NATURALO">     2</i>
   <i type="logical" name="LHOLEGF"> F  </i>
   <i type="logical" name="L2ORDER"> F  </i>
   <i type="logical" name="LDMP1"> F  </i>
   <i type="logical" name="LMP2LT"> F  </i>
   <i type="logical" name="LSMP2LT"> F  </i>
   <i type="logical" name="LGWLF"> F  </i>
   <i name="ENCUTGW">     -2.00000000</i>
   <i name="ENCUTGWSOFT">     -2.00000000</i>
   <i name="ENCUTLF">     -1.00000000</i>
   <i type="logical" name="LESF_SPLINES"> F  </i>
   <i type="int" name="LMAXMP2">    -1</i>
   <i name="SCISSOR">      0.00000000</i>
   <i type="int" name="NOMEGA">     0</i>
   <i type="int" name="NOMEGAR">     0</i>
   <i type="int" name="NBANDSGW">    -1</i>
   <i type="int" name="NBANDSO">    -1</i>
   <i type="int" name="NBANDSV">    -1</i>
   <i type="int" name="NELM">     1</i>
   <i type="int" name="NELMHF">     1</i>
   <i type="int" name="DIM">     3</i>
   <i type="int" name="IESPILON">     4</i>
   <i type="int" name="ANTIRES">     0</i>
   <i name="OMEGAMAX">    -30.00000000</i>
   <i name="OMEGAMIN">    -30.00000000</i>
   <i name="OMEGATL">   -200.00000000</i>
   <i type="int" name="OMEGAGRID">     0</i>
   <i name="CSHIFT">     -0.10000000</i>
   <i type="logical" name="LSELFENERGY"> F  </i>
   <i type="logical" name="LSPECTRAL"> F  </i>
   <i type="logical" name="LSPECTRALGW"> F  </i>
   <i type="logical" name="LSINGLES"> F  </i>
   <i type="logical" name="LFERMIGW"> F  </i>
   <i type="logical" name="ODDONLYGW"> F  </i>
   <i type="logical" name="EVENONLYGW"> F  </i>
   <i type="int" name="NKREDLFX">     1</i>
   <i type="int" name="NKREDLFY">     1</i>
   <i type="int" name="NKREDLFZ">     1</i>
   <i type="int" name="MAXMEM">  2800</i>
   <i type="int" name="TELESCOPE">     0</i>
   <i type="int" name="NTAUPAR">    -1</i>
   <i type="int" name="NOMEGAPAR">    -1</i>
   <i name="DAMP_NEWTON">      0.80000001</i>
   <i name="LAMBDA">      1.00000000</i>
  </separator>
  <separator name="External order field" >
   <i name="OFIELD_KAPPA">      0.00000000</i>
   <v name="OFIELD_K">      0.00000000      0.00000000      0.00000000</v>
   <i name="OFIELD_Q6_NEAR">      0.00000000</i>
   <i name="OFIELD_Q6_FAR">      0.00000000</i>
   <i name="OFIELD_A">      0.00000000</i>
  </separator>
 </parameters>
 <atominfo>
  <atoms>       4 </atoms>
  <types>       1 </types>
  <array name="atoms" >
   <dimension dim="1">ion</dimension>
   <field type="string">element</field>
   <field type="int">atomtype</field>
   <set>
    <rc><c>Fe</c><c>   1</c></rc>
    <rc><c>Fe</c><c>   1</c></rc>
    <rc><c>Fe</c><c>   1</c></rc>
    <rc><c>Fe</c><c>   1</c></rc>
   </set>
  </array>
  <array name="atomtypes" >
   <dimension dim="1">type</dimension>
   <field type="int">atomspertype</field>
   <field type="string">element</field>
   <field>mass</field>
   <field>valence</field>
   <field type="string">pseudopotential</field>
   <set>
    <rc><c>   4</c><c>Fe</c><c>     55.84700000</c><c>      8.00000000</c><c>  PAW_PBE Fe 06Sep2000                  </c></rc>
   </set>
  </array>
 </atominfo>
 <structure name="initialpos" >
  <crystal>
   <varray name="basis" >
    <v>       3.44508300       0.00000000       0.00000000 </v>
    <v>       0.00000000       3.44508300       0.00000000 </v>
    <v>       0.00000000       0.00000000       3.44508300 </v>
   </varray>
   <i name="volume">     40.88830133 </i>
   <varray name="rec_basis" >
    <v>       0.29026877       0.00000000       0.00000000 </v>
    <v>       0.00000000       0.29026877       0.00000000 </v>
    <v>       0.00000000       0.00000000       0.29026877 </v>
   </varray>
  </crystal>
  <varray name="positions" >
   <v>       0.00000000       0.00000000       0.00000000 </v>
   <v>       0.50000000       0.50000000       0.00000000 </v>
   <v>       0.50000000       0.00000000       0.50000000 </v>
   <v>       0.00000000       0.50000000       0.50000000 </v>
  </varray>
 </structure>
 <calculation>
  <scstep>
   <time name="dav">    0.09    0.12</time>
   <time name="total">    0.11    0.13</time>
   <energy>
    <i name="alphaZ">    270.44909666 </i>
    <i name="ewald">  -2452.97223925 </i>
    <i name="hartreedc">   -414.53988425 </i>
    <i name="XCdc">     16.92999131 </i>
    <i name="pawpsdc">   2219.38341365 </i>
    <i name="pawaedc">  -2250.19294531 </i>
    <i name="eentropy">      0.01201863 </i>
    <i name="bandstr">    398.87830291 </i>
    <i name="atom">   2377.15350596 </i>
    <i name="e_fr_energy">    165.10126033 </i>
    <i name="e_wo_entrp">    165.08924170 </i>
    <i name="e_0_energy">    165.09725412 </i>
   </energy>
  </scstep>
  <scstep>
   <time name="dav">    0.08    0.08</time>
   <time name="total">    0.08    0.08</time>
   <energy>
    <i name="e_fr_energy">    -24.76657311 </i>
    <i name="e_wo_entrp">    -24.76590809 </i>
    <i name="e_0_energy">    -24.76635144 </i>
   </energy>
  </scstep>
  <scstep>
   <time name="dav">    0.07    0.07</time>
   <time name="total">    0.07    0.07</time>
   <energy>
    <i name="e_fr_energy">    -38.31529147 </i>
    <i name="e_wo_entrp">    -38.33479514 </i>
    <i name="e_0_energy">    -38.32179270 </i>
   </energy>
  </scstep>
  <scstep>
   <time name="dav">    0.06    0.06</time>
   <time name="total">    0.07    0.07</time>
   <energy>
    <i name="e_fr_energy">    -38.48991317 </i>
    <i name="e_wo_entrp">    -38.50986479 </i>
    <i name="e_0_energy">    -38.49656371 </i>
   </energy>
  </scstep>
  <scstep>
   <time name="dav">    0.06    0.06</time>
   <time name="total">    0.07    0.07</time>
   <energy>
    <i name="e_fr_energy">    -38.49144985 </i>
    <i name="e_wo_entrp">    -38.51140353 </i>
    <i name="e_0_energy">    -38.49810108 </i>
   </energy>
  </scstep>
  <scstep>
   <time name="dav">    0.07    0.07</time>
   <time name="total">    0.08    0.08</time>
   <energy>
    <i name="e_fr_energy">    -32.51775297 </i>
    <i name="e_wo_entrp">    -32.52446658 </i>
    <i name="e_0_energy">    -32.51999084 </i>
   </energy>
  </scstep>
  <scstep>
   <time name="dav">    0.07    0.07</time>
   <time name="total">    0.08    0.08</time>
   <energy>
    <i name="e_fr_energy">    -32.27137277 </i>
    <i name="e_wo_entrp">    -32.30190168 </i>
    <i name="e_0_energy">    -32.28154908 </i>
   </energy>
  </scstep>
  <scstep>
   <time name="dav">    0.08    0.08</time>
   <time name="total">    0.09    0.09</time>
   <energy>
    <i name="e_fr_energy">    -32.21645676 </i>
    <i name="e_wo_entrp">    -32.24704444 </i>
    <i name="e_0_energy">    -32.22665266 </i>
   </energy>
  </scstep>
  <scstep>
   <time name="dav">    0.07    0.07</time>
   <time name="total">    0.09    0.09</time>
   <energy>
    <i name="e_fr_energy">    -32.19659335 </i>
    <i name="e_wo_entrp">    -32.22838940 </i>
    <i name="e_0_energy">    -32.20719203 </i>
   </energy>
  </scstep>
  <scstep>
   <time name="dav">    0.06    0.06</time>
   <time name="total">    0.08    0.08</time>
   <energy>
    <i name="e_fr_energy">    -32.19669576 </i>
    <i name="e_wo_entrp">    -32.22846751 </i>
    <i name="e_0_energy">    -32.20728634 </i>
   </energy>
  </scstep>
  <scstep>
   <time name="dav">    0.07    0.07</time>
   <time name="total">    0.08    0.08</time>
   <energy>
    <i name="e_fr_energy">    -32.19667334 </i>
    <i name="e_wo_entrp">    -32.22846629 </i>
    <i name="e_0_energy">    -32.20727099 </i>
   </energy>
  </scstep>
  <scstep>
   <time name="dav">    0.06    0.06</time>
   <time name="total">    0.08    0.08</time>
   <energy>
    <i name="e_fr_energy">    -32.19667179 </i>
    <i name="e_wo_entrp">    -32.22848571 </i>
    <i name="e_0_energy">    -32.20727643 </i>
   </energy>
  </scstep>
  <scstep>
   <time name="dav">    0.04    0.04</time>
   <time name="total">    0.06    0.06</time>
   <energy>
    <i name="alphaZ">    270.44909666 </i>
    <i name="ewald">  -2452.97223925 </i>
    <i name="hartreedc">   -343.74006787 </i>
    <i name="XCdc">     13.65284132 </i>
    <i name="pawpsdc">   2938.51151989 </i>
    <i name="pawaedc">  -2973.93697917 </i>
    <i name="eentropy">      0.03181264 </i>
    <i name="bandstr">    138.65383708 </i>
    <i name="atom">   2377.15350596 </i>
    <i name="e_fr_energy">    -32.19667273 </i>
    <i name="e_wo_entrp">    -32.22848537 </i>
    <i name="e_0_energy">    -32.20727694 </i>
   </energy>
  </scstep>
  <structure>
   <crystal>
    <varray name="basis" >
     <v>       3.44508300       0.00000000       0.00000000 </v>
     <v>       0.00000000       3.44508300       0.00000000 </v>
     <v>       0.00000000       0.00000000       3.44508300 </v>
    </varray>
    <i name="volume">     40.88830133 </i>
    <varray name="rec_basis" >
     <v>       0.29026877       0.00000000       0.00000000 </v>
     <v>       0.00000000       0.29026877       0.00000000 </v>
     <v>       0.00000000       0.00000000       0.29026877 </v>
    </varray>
   </crystal>
   <varray name="positions" >
    <v>       0.00000000       0.00000000       0.00000000 </v>
    <v>       0.50000000       0.50000000       0.00000000 </v>
    <v>       0.50000000       0.00000000       0.50000000 </v>
    <v>       0.00000000       0.50000000       0.50000000 </v>
   </varray>
  </structure>
  <varray name="forces" >
   <v>      -0.00000000      -0.00000000      -0.00000000 </v>
   <v>       0.00000000       0.00000000       0.00000000 </v>
   <v>      -0.00000000      -0.00000000      -0.00000000 </v>
   <v>       0.00000000       0.00000000       0.00000000 </v>
  </varray>
  <varray name="stress" >
   <v>      11.08170398      -0.00000000       0.00000000 </v>
   <v>       0.00000000      11.08170398       0.00000000 </v>
   <v>      -0.00000000       0.00000000      11.08170398 </v>
  </varray>
  <energy>
   <i name="e_fr_energy">    -32.19667273 </i>
   <i name="e_wo_entrp">    -32.22848537 </i>
   <i name="e_0_energy">    -32.20727694 </i>
  </energy>
  <time name="totalsc">    1.14    1.16</time>
  <eigenvalues>
   <array>
    <dimension dim="1">band</dimension>
    <dimension dim="2">kpoint</dimension>
    <dimension dim="3">spin</dimension>
    <field>eigene</field>
    <field>occ</field>
    <set>
     <set comment="spin 1">
      <set comment="kpoint 1">
       <r>   -2.0272    1.0000 </r>
       <r>    1.8520    1.0000 </r>
       <r>    1.8520    1.0000 </r>
       <r>    1.8520    1.0000 </r>
       <r>    2.5585    1.0000 </r>
       <r>    2.5585    1.0000 </r>
       <r>    2.5585    1.0000 </r>
       <r>    5.1172    1.0000 </r>
       <r>    5.1172    1.0000 </r>
       <r>    5.1172    1.0000 </r>
       <r>    6.7000    1.0063 </r>
       <r>    6.7000    1.0063 </r>
       <r>    7.7354   -0.0000 </r>
       <r>    7.7354   -0.0000 </r>
       <r>    7.7354   -0.0000 </r>
       <r>    8.0027   -0.0000 </r>
       <r>    8.0027   -0.0000 </r>
       <r>    8.0027   -0.0000 </r>
       <r>    8.0027   -0.0000 </r>
       <r>    8.0027   -0.0000 </r>
       <r>    8.0027   -0.0000 </r>
       <r>   10.0667   -0.0000 </r>
       <r>   10.0667   -0.0000 </r>
       <r>   10.0667   -0.0000 </r>
       <r>   18.5667    0.0000 </r>
       <r>   18.5667    0.0000 </r>
       <r>   18.5667    0.0000 </r>
       <r>   23.0831    0.0000 </r>
       <r>   23.0831    0.0000 </r>
       <r>   23.0831    0.0000 </r>
       <r>   23.0831    0.0000 </r>
       <r>   23.0831    0.0000 </r>
       <r>   23.0831    0.0000 </r>
       <r>   28.4643    0.0000 </r>
       <r>   28.4643    0.0000 </r>
       <r>   28.4643    0.0000 </r>
       <r>   30.1325    0.0000 </r>
       <r>   33.4383    0.0000 </r>
       <r>   33.4383    0.0000 </r>
       <r>   33.4383    0.0000 </r>
      </set>
      <set comment="kpoint 2">
       <r>   -0.5342    1.0000 </r>
       <r>    1.8811    1.0000 </r>
       <r>    2.6527    1.0000 </r>
       <r>    2.6527    1.0000 </r>
       <r>    3.1353    1.0000 </r>
       <r>    3.2741    1.0000 </r>
       <r>    3.2741    1.0000 </r>
       <r>    4.4073    1.0000 </r>
       <r>    5.3877    1.0000 </r>
       <r>    5.3877    1.0000 </r>
       <r>    5.6794    1.0000 </r>
       <r>    5.6794    1.0000 </r>
       <r>    6.0760    1.0000 </r>
       <r>    6.5846    1.0298 </r>
       <r>    6.9225    0.3034 </r>
       <r>    6.9225    0.3034 </r>
       <r>    6.9497    0.2054 </r>
       <r>    7.0796   -0.0276 </r>
       <r>    7.0796   -0.0276 </r>
       <r>    7.4672   -0.0001 </r>
       <r>    8.0043   -0.0000 </r>
       <r>    8.0043   -0.0000 </r>
       <r>   13.7640    0.0000 </r>
       <r>   13.7640    0.0000 </r>
       <r>   18.5716    0.0000 </r>
       <r>   18.5716    0.0000 </r>
       <r>   18.9759    0.0000 </r>
       <r>   18.9759    0.0000 </r>
       <r>   21.0397    0.0000 </r>
       <r>   21.0397    0.0000 </r>
       <r>   24.1428    0.0000 </r>
       <r>   25.5055    0.0000 </r>
       <r>   25.5055    0.0000 </r>
       <r>   28.6521    0.0000 </r>
       <r>   29.3628    0.0000 </r>
       <r>   30.9067    0.0000 </r>
       <r>   30.9799    0.0000 </r>
       <r>   30.9799    0.0000 </r>
       <r>   33.9731    0.0000 </r>
       <r>   33.9731    0.0000 </r>
      </set>
      <set comment="kpoint 3">
       <r>    0.7564    1.0000 </r>
       <r>    2.8612    1.0000 </r>
       <r>    2.8612    1.0000 </r>
       <r>    3.2776    1.0000 </r>
       <r>    3.5407    1.0000 </r>
       <r>    3.6427    1.0000 </r>
       <r>    3.6427    1.0000 </r>
       <r>    4.2965    1.0000 </r>
       <r>    4.5970    1.0000 </r>
       <r>    4.5970    1.0000 </r>
       <r>    4.8222    1.0000 </r>
       <r>    5.2806    1.0000 </r>
       <r>    5.8861    1.0000 </r>
       <r>    6.0917    1.0000 </r>
       <r>    6.4989    1.0116 </r>
       <r>    6.7021    1.0043 </r>
       <r>    6.7021    1.0043 </r>
       <r>    7.0811   -0.0282 </r>
       <r>    7.0811   -0.0282 </r>
       <r>    7.3400   -0.0024 </r>
       <r>    7.5405   -0.0000 </r>
       <r>    9.7692   -0.0000 </r>
       <r>    9.7692   -0.0000 </r>
       <r>   13.3615    0.0000 </r>
       <r>   16.1399    0.0000 </r>
       <r>   19.6538    0.0000 </r>
       <r>   20.8682    0.0000 </r>
       <r>   20.8682    0.0000 </r>
       <r>   21.8750    0.0000 </r>
       <r>   21.8750    0.0000 </r>
       <r>   24.9117    0.0000 </r>
       <r>   25.5332    0.0000 </r>
       <r>   25.7766    0.0000 </r>
       <r>   25.7766    0.0000 </r>
       <r>   27.5855    0.0000 </r>
       <r>   30.4327    0.0000 </r>
       <r>   34.6165    0.0000 </r>
       <r>   34.8697    0.0000 </r>
       <r>   34.8697    0.0000 </r>
       <r>   35.9952    0.0000 </r>
      </set>
      <set comment="kpoint 4">
       <r>    1.3884    1.0000 </r>
       <r>    2.5497    1.0000 </r>
       <r>    2.5497    1.0000 </r>
       <r>    2.5497    1.0000 </r>
       <r>    4.2760    1.0000 </r>
       <r>    4.2760    1.0000 </r>
       <r>    4.2760    1.0000 </r>
       <r>    5.0013    1.0000 </r>
       <r>    5.1800    1.0000 </r>
       <r>    5.1800    1.0000 </r>
       <r>    5.1800    1.0000 </r>
       <r>    5.2561    1.0000 </r>
       <r>    5.2561    1.0000 </r>
       <r>    5.6368    1.0000 </r>
       <r>    5.6368    1.0000 </r>
       <r>    5.6368    1.0000 </r>
       <r>    7.2222   -0.0169 </r>
       <r>    7.2222   -0.0169 </r>
       <r>    7.7810   -0.0000 </r>
       <r>    7.7810   -0.0000 </r>
       <r>    7.7810   -0.0000 </r>
       <r>    9.9956   -0.0000 </r>
       <r>    9.9956   -0.0000 </r>
       <r>    9.9956   -0.0000 </r>
       <r>   15.9789    0.0000 </r>
       <r>   15.9789    0.0000 </r>
       <r>   15.9789    0.0000 </r>
       <r>   19.5166    0.0000 </r>
       <r>   25.9756    0.0000 </r>
       <r>   25.9756    0.0000 </r>
       <r>   25.9756    0.0000 </r>
       <r>   29.2753    0.0000 </r>
       <r>   29.2753    0.0000 </r>
       <r>   29.2753    0.0000 </r>
       <r>   29.6819    0.0000 </r>
       <r>   30.9304    0.0000 </r>
       <r>   30.9304    0.0000 </r>
       <r>   30.9304    0.0000 </r>
       <r>   34.0946    0.0000 </r>
       <r>   34.0946    0.0000 </r>
      </set>
     </set>
    </set>
   </array>
  </eigenvalues>
  <separator name="orbital magnetization" >
   <v name="MAGDIPOLOUT">      0.00000000      0.00000000      0.00000000</v>
  </separator>
  <dos>
   <i name="efermi">      6.87450543 </i>
   <total>
    <array>
     <dimension dim="1">gridpoints</dimension>
     <dimension dim="2">spin</dimension>
     <field>energy</field>
     <field>total</field>
     <field>integrated</field>
     <set>
      <set comment="spin 1">
       <r>    -4.0272     0.0000     0.0000 </r>
       <r>    -3.8871     0.0000     0.0000 </r>
       <r>    -3.7470    -0.0000    -0.0000 </r>
       <r>    -3.6070    -0.0000    -0.0000 </r>
       <r>    -3.4669    -0.0000    -0.0000 </r>
       <r>    -3.3268    -0.0000    -0.0000 </r>
       <r>    -3.1867    -0.0000    -0.0000 </r>
       <r>    -3.0467    -0.0000    -0.0000 </r>
       <r>    -2.9066    -0.0000    -0.0000 </r>
       <r>    -2.7665    -0.0000    -0.0000 </r>
       <r>    -2.6264    -0.0000    -0.0000 </r>
       <r>    -2.4864    -0.0014    -0.0002 </r>
       <r>    -2.3463    -0.0109    -0.0017 </r>
       <r>    -2.2062     0.0067    -0.0008 </r>
       <r>    -2.0661     0.1846     0.0251 </r>
       <r>    -1.9261     0.2827     0.0647 </r>
       <r>    -1.7860     0.0858     0.0767 </r>
       <r>    -1.6459    -0.0131     0.0749 </r>
       <r>    -1.5058    -0.0053     0.0741 </r>
       <r>    -1.3658    -0.0004     0.0741 </r>
       <r>    -1.2257    -0.0000     0.0741 </r>
       <r>    -1.0856    -0.0011     0.0739 </r>
       <r>    -0.9455    -0.0199     0.0711 </r>
       <r>    -0.8055    -0.0844     0.0593 </r>
       <r>    -0.6654     0.2843     0.0991 </r>
       <r>    -0.5253     1.5262     0.3129 </r>
       <r>    -0.3852     1.3869     0.5072 </r>
       <r>    -0.2452     0.1762     0.5319 </r>
       <r>    -0.1051    -0.0798     0.5207 </r>
       <r>     0.0350    -0.0148     0.5186 </r>
       <r>     0.1751    -0.0016     0.5184 </r>
       <r>     0.3151    -0.0236     0.5151 </r>
       <r>     0.4552    -0.1491     0.4942 </r>
       <r>     0.5953     0.2277     0.5261 </r>
       <r>     0.7354     2.5566     0.8842 </r>
       <r>     0.8754     3.2098     1.3338 </r>
       <r>     1.0155     0.6950     1.4312 </r>
       <r>     1.1556    -0.2655     1.3940 </r>
       <r>     1.2957     0.7341     1.4968 </r>
       <r>     1.4357     2.2770     1.8157 </r>
       <r>     1.5758     1.2531     1.9913 </r>
       <r>     1.7159     0.2386     2.0247 </r>
       <r>     1.8560     1.9045     2.2915 </r>
       <r>     1.9960     2.3303     2.6179 </r>
       <r>     2.1361     0.4143     2.6759 </r>
       <r>     2.2762    -0.5716     2.5958 </r>
       <r>     2.4163     0.9564     2.7298 </r>
       <r>     2.5563     7.5789     3.7914 </r>
       <r>     2.6964    10.1641     5.2151 </r>
       <r>     2.8365     7.8520     6.3150 </r>
       <r>     2.9765     6.0164     7.1577 </r>
       <r>     3.1166     3.1524     7.5993 </r>
       <r>     3.2567     6.1399     8.4594 </r>
       <r>     3.3968     6.7150     9.4000 </r>
       <r>     3.5368     6.0944    10.2536 </r>
       <r>     3.6769     9.3192    11.5590 </r>
       <r>     3.8170     4.9774    12.2562 </r>
       <r>     3.9571    -0.3200    12.2114 </r>
       <r>     4.0971    -0.2669    12.1740 </r>
       <r>     4.2372     6.1178    13.0310 </r>
       <r>     4.3773    11.2254    14.6034 </r>
       <r>     4.5174     7.7853    15.6939 </r>
       <r>     4.6574     7.1321    16.6929 </r>
       <r>     4.7975     5.5498    17.4703 </r>
       <r>     4.9376     3.6794    17.9857 </r>
       <r>     5.0777     5.4072    18.7431 </r>
       <r>     5.2177    13.1853    20.5900 </r>
       <r>     5.3578    14.5736    22.6314 </r>
       <r>     5.4979     7.1565    23.6338 </r>
       <r>     5.6380     8.1230    24.7717 </r>
       <r>     5.7780     9.5425    26.1083 </r>
       <r>     5.9181     5.4656    26.8739 </r>
       <r>     6.0582     5.4679    27.6398 </r>
       <r>     6.1983     4.7387    28.3036 </r>
       <r>     6.3383     1.1152    28.4598 </r>
       <r>     6.4784     2.4713    28.8060 </r>
       <r>     6.6185     7.4637    29.8515 </r>
       <r>     6.7586     9.2587    31.1484 </r>
       <r>     6.8986     7.4158    32.1871 </r>
       <r>     7.0387    11.1793    33.7531 </r>
       <r>     7.1788    14.2974    35.7558 </r>
       <r>     7.3189    10.1174    37.1730 </r>
       <r>     7.4589     6.6164    38.0998 </r>
       <r>     7.5990     5.5407    38.8759 </r>
       <r>     7.7391     6.6408    39.8061 </r>
       <r>     7.8792     8.3594    40.9770 </r>
       <r>     8.0192     6.8465    41.9361 </r>
       <r>     8.1593     3.6285    42.4443 </r>
       <r>     8.2994     0.2834    42.4840 </r>
       <r>     8.4395    -0.2412    42.4502 </r>
       <r>     8.5795    -0.0395    42.4447 </r>
       <r>     8.7196    -0.0017    42.4444 </r>
       <r>     8.8597    -0.0000    42.4444 </r>
       <r>     8.9998    -0.0000    42.4444 </r>
       <r>     9.1398    -0.0005    42.4444 </r>
       <r>     9.2799    -0.0181    42.4418 </r>
       <r>     9.4200    -0.1943    42.4146 </r>
       <r>     9.5601    -0.2145    42.3846 </r>
       <r>     9.7001     2.9148    42.7929 </r>
       <r>     9.8402     7.5705    43.8533 </r>
       <r>     9.9803     8.8104    45.0874 </r>
       <r>    10.1204     6.9774    46.0648 </r>
       <r>    10.2604     1.6093    46.2902 </r>
       <r>    10.4005    -0.3595    46.2398 </r>
       <r>    10.5406    -0.1174    46.2234 </r>
       <r>    10.6807    -0.0081    46.2222 </r>
       <r>    10.8207    -0.0002    46.2222 </r>
       <r>    10.9608    -0.0000    46.2222 </r>
       <r>    11.1009    -0.0000    46.2222 </r>
       <r>    11.2410    -0.0000    46.2222 </r>
       <r>    11.3810    -0.0000    46.2222 </r>
       <r>    11.5211     0.0000    46.2222 </r>
       <r>    11.6612    -0.0000    46.2222 </r>
       <r>    11.8012    -0.0000    46.2222 </r>
       <r>    11.9413    -0.0000    46.2222 </r>
       <r>    12.0814    -0.0000    46.2222 </r>
       <r>    12.2215    -0.0000    46.2222 </r>
       <r>    12.3615    -0.0000    46.2222 </r>
       <r>    12.5016    -0.0000    46.2222 </r>
       <r>    12.6417    -0.0000    46.2222 </r>
       <r>    12.7818    -0.0010    46.2221 </r>
       <r>    12.9218    -0.0244    46.2187 </r>
       <r>    13.0619    -0.1507    46.1976 </r>
       <r>    13.2020     0.2417    46.2314 </r>
       <r>    13.3421     2.5534    46.5891 </r>
       <r>    13.4821     3.0290    47.0134 </r>
       <r>    13.6222     1.1525    47.1748 </r>
       <r>    13.7623     2.7224    47.5561 </r>
       <r>    13.9024     2.8986    47.9622 </r>
       <r>    14.0424     0.4736    48.0285 </r>
       <r>    14.1825    -0.1663    48.0052 </r>
       <r>    14.3226    -0.0354    48.0003 </r>
       <r>    14.4627    -0.0018    48.0000 </r>
       <r>    14.6027    -0.0000    48.0000 </r>
       <r>    14.7428    -0.0000    48.0000 </r>
       <r>    14.8829    -0.0000    48.0000 </r>
       <r>    15.0230    -0.0000    48.0000 </r>
       <r>    15.1630    -0.0000    48.0000 </r>
       <r>    15.3031    -0.0001    48.0000 </r>
       <r>    15.4432    -0.0063    47.9991 </r>
       <r>    15.5833    -0.1042    47.9845 </r>
       <r>    15.7233    -0.3727    47.9323 </r>
       <r>    15.8634     1.4236    48.1317 </r>
       <r>    16.0035     7.0086    49.1134 </r>
       <r>    16.1436     7.9601    50.2284 </r>
       <r>    16.2836     3.2518    50.6839 </r>
       <r>    16.4237     0.1199    50.7007 </r>
       <r>    16.5638    -0.2075    50.6717 </r>
       <r>    16.7039    -0.0340    50.6669 </r>
       <r>    16.8439    -0.0016    50.6667 </r>
       <r>    16.9840    -0.0000    50.6667 </r>
       <r>    17.1241    -0.0000    50.6667 </r>
       <r>    17.2642    -0.0000    50.6667 </r>
       <r>    17.4042    -0.0000    50.6667 </r>
       <r>    17.5443    -0.0000    50.6667 </r>
       <r>    17.6844    -0.0000    50.6667 </r>
       <r>    17.8245    -0.0000    50.6667 </r>
       <r>    17.9645    -0.0006    50.6666 </r>
       <r>    18.1046    -0.0183    50.6640 </r>
       <r>    18.2447    -0.1531    50.6426 </r>
       <r>    18.3848     0.0432    50.6486 </r>
       <r>    18.5248     2.5805    51.0101 </r>
       <r>    18.6649     4.1617    51.5930 </r>
       <r>    18.8050     1.5793    51.8142 </r>
       <r>    18.9451     2.1889    52.1209 </r>
       <r>    19.0851     3.2124    52.5708 </r>
       <r>    19.2252     0.7529    52.6763 </r>
       <r>    19.3653    -0.1073    52.6613 </r>
       <r>    19.5054     2.1228    52.9586 </r>
       <r>    19.6454     4.8357    53.6360 </r>
       <r>    19.7855     3.4465    54.1188 </r>
       <r>    19.9256     0.4495    54.1817 </r>
       <r>    20.0657    -0.1964    54.1542 </r>
       <r>    20.2057    -0.0413    54.1484 </r>
       <r>    20.3458    -0.0107    54.1469 </r>
       <r>    20.4859    -0.1268    54.1292 </r>
       <r>    20.6260    -0.3545    54.0795 </r>
       <r>    20.7660     1.8537    54.3392 </r>
       <r>    20.9061     7.3046    55.3623 </r>
       <r>    21.0462     7.4925    56.4119 </r>
       <r>    21.1862     2.9903    56.8307 </r>
       <r>    21.3263     0.1110    56.8463 </r>
       <r>    21.4664    -0.2792    56.8072 </r>
       <r>    21.6065    -0.3709    56.7552 </r>
       <r>    21.7465     1.2123    56.9250 </r>
       <r>    21.8866     6.1838    57.7912 </r>
       <r>    22.0267     5.4508    58.5547 </r>
       <r>    22.1668     0.6439    58.6449 </r>
       <r>    22.3068    -0.3149    58.6008 </r>
       <r>    22.4469    -0.0562    58.5929 </r>
       <r>    22.5870    -0.0064    58.5920 </r>
       <r>    22.7271    -0.0443    58.5858 </r>
       <r>    22.8671    -0.0518    58.5786 </r>
       <r>    23.0072     0.7450    58.6829 </r>
       <r>    23.1473     1.7567    58.9290 </r>
       <r>    23.2874     0.8577    59.0491 </r>
       <r>    23.4274    -0.0305    59.0449 </r>
       <r>    23.5675    -0.0513    59.0377 </r>
       <r>    23.7076    -0.0182    59.0351 </r>
       <r>    23.8477    -0.0775    59.0243 </r>
       <r>    23.9877     0.1439    59.0444 </r>
       <r>    24.1278     1.3338    59.2313 </r>
       <r>    24.2679     1.5679    59.4509 </r>
       <r>    24.4080     0.3198    59.4957 </r>
       <r>    24.5480    -0.1653    59.4725 </r>
       <r>    24.6881    -0.1469    59.4519 </r>
       <r>    24.8282     1.3442    59.6402 </r>
       <r>    24.9683     3.4895    60.1290 </r>
       <r>    25.1083     1.7845    60.3790 </r>
       <r>    25.2484    -0.3644    60.3279 </r>
       <r>    25.3885     0.9465    60.4605 </r>
       <r>    25.5286     5.6999    61.2589 </r>
       <r>    25.6686     7.0525    62.2468 </r>
       <r>    25.8087     7.7385    63.3308 </r>
       <r>    25.9488     9.2824    64.6310 </r>
       <r>    26.0889     6.7621    65.5782 </r>
       <r>    26.2289     1.3827    65.7719 </r>
       <r>    26.3690    -0.3725    65.7197 </r>
       <r>    26.5091    -0.1074    65.7046 </r>
       <r>    26.6492    -0.0066    65.7037 </r>
       <r>    26.7892    -0.0001    65.7037 </r>
       <r>    26.9293    -0.0001    65.7037 </r>
       <r>    27.0694    -0.0050    65.7030 </r>
       <r>    27.2095    -0.0682    65.6934 </r>
       <r>    27.3495    -0.1496    65.6725 </r>
       <r>    27.4896     1.1209    65.8295 </r>
       <r>    27.6297     3.4308    66.3101 </r>
       <r>    27.7698     2.1118    66.6059 </r>
       <r>    27.9098     0.0446    66.6121 </r>
       <r>    28.0499    -0.1341    66.5934 </r>
       <r>    28.1900    -0.0651    66.5842 </r>
       <r>    28.3301     0.0681    66.5938 </r>
       <r>    28.4701     0.7823    66.7034 </r>
       <r>    28.6102     1.7850    66.9534 </r>
       <r>    28.7503     1.7956    67.2049 </r>
       <r>    28.8904     0.3729    67.2571 </r>
       <r>    29.0304    -0.4634    67.1922 </r>
       <r>    29.1705     1.8981    67.4581 </r>
       <r>    29.3106     7.6491    68.5296 </r>
       <r>    29.4507     6.2164    69.4003 </r>
       <r>    29.5907     1.6497    69.6314 </r>
       <r>    29.7308     1.9662    69.9068 </r>
       <r>    29.8709     1.2565    70.0828 </r>
       <r>    30.0109     0.0319    70.0873 </r>
       <r>    30.1510     0.0214    70.0903 </r>
       <r>    30.2911     0.6434    70.1804 </r>
       <r>    30.4312     2.8920    70.5855 </r>
       <r>    30.5712     2.6631    70.9585 </r>
       <r>    30.7113     0.0676    70.9680 </r>
       <r>    30.8514     4.2463    71.5628 </r>
       <r>    30.9915    11.8148    73.2177 </r>
       <r>    31.1315     6.9399    74.1898 </r>
       <r>    31.2716     0.1640    74.2128 </r>
       <r>    31.4117    -0.4069    74.1558 </r>
       <r>    31.5518    -0.0527    74.1484 </r>
       <r>    31.6918    -0.0020    74.1482 </r>
       <r>    31.8319    -0.0000    74.1481 </r>
       <r>    31.9720    -0.0000    74.1481 </r>
       <r>    32.1121    -0.0000    74.1481 </r>
       <r>    32.2521    -0.0000    74.1481 </r>
       <r>    32.3922    -0.0000    74.1481 </r>
       <r>    32.5323    -0.0000    74.1481 </r>
       <r>    32.6724    -0.0000    74.1481 </r>
       <r>    32.8124    -0.0001    74.1481 </r>
       <r>    32.9525    -0.0024    74.1478 </r>
       <r>    33.0926    -0.0250    74.1443 </r>
       <r>    33.2327    -0.0166    74.1420 </r>
       <r>    33.3727     0.4219    74.2011 </r>
       <r>    33.5128     0.8610    74.3217 </r>
       <r>    33.6529     0.2185    74.3523 </r>
       <r>    33.7930    -0.1503    74.3312 </r>
       <r>    33.9330     2.4691    74.6771 </r>
       <r>    34.0731     6.7951    75.6289 </r>
       <r>    34.2132     5.2944    76.3705 </r>
       <r>    34.3533     0.6633    76.4634 </r>
       <r>    34.4933     0.2562    76.4993 </r>
       <r>    34.6334     2.7924    76.8905 </r>
       <r>    34.7735     4.8559    77.5706 </r>
       <r>    34.9136     7.1238    78.5685 </r>
       <r>    35.0536     4.0861    79.1409 </r>
       <r>    35.1937     0.0698    79.1506 </r>
       <r>    35.3338    -0.2507    79.1155 </r>
       <r>    35.4739    -0.0349    79.1106 </r>
       <r>    35.6139    -0.0644    79.1016 </r>
       <r>    35.7540    -0.1568    79.0796 </r>
       <r>    35.8941     1.0296    79.2239 </r>
       <r>    36.0342     3.3923    79.6990 </r>
       <r>    36.1742     2.2155    80.0094 </r>
       <r>    36.3143     0.0807    80.0207 </r>
       <r>    36.4544    -0.1303    80.0024 </r>
       <r>    36.5945    -0.0168    80.0001 </r>
       <r>    36.7345    -0.0006    80.0000 </r>
       <r>    36.8746    -0.0000    80.0000 </r>
       <r>    37.0147    -0.0000    80.0000 </r>
       <r>    37.1548    -0.0000    80.0000 </r>
       <r>    37.2948    -0.0000    80.0000 </r>
       <r>    37.4349     0.0000    80.0000 </r>
       <r>    37.5750     0.0000    80.0000 </r>
       <r>    37.7151     0.0000    80.0000 </r>
       <r>    37.8551     0.0000    80.0000 </r>
       <r>    37.9952     0.0000    80.0000 </r>
      </set>
     </set>
    </array>
   </total>
  </dos>
 </calculation>
 <structure name="finalpos" >
  <crystal>
   <varray name="basis" >
    <v>       3.44508300       0.00000000       0.00000000 </v>
    <v>       0.00000000       3.44508300       0.00000000 </v>
    <v>       0.00000000       0.00000000       3.44508300 </v>
   </varray>
   <i name="volume">     40.88830133 </i>
   <varray name="rec_basis" >
    <v>       0.29026877       0.00000000       0.00000000 </v>
    <v>       0.00000000       0.29026877       0.00000000 </v>
    <v>       0.00000000       0.00000000       0.29026877 </v>
   </varray>
  </crystal>
  <varray name="positions" >
   <v>       0.00000000       0.00000000       0.00000000 </v>
   <v>       0.50000000       0.50000000       0.00000000 </v>
   <v>       0.50000000       0.00000000       0.50000000 </v>
   <v>       0.00000000       0.50000000       0.50000000 </v>
  </varray>
 </structure>
</modeling>
