 vasp.6.2.0 18Jan21 (build Mar 17 2021 09:06:54) complex                        
  
 POSCAR found type information on POSCAR Fe
 POSCAR found :  1 types and       4 ions
 LDA part: xc-table for Pade appr. of Perdew
 POSCAR, INCAR and KPOINTS ok, starting setup
 FFT: planning ...
 WAVECAR not read
 WARNING: chargedensity file is incomplete
 entering main loop
       N       E                     dE             d eps       ncg     rms          rms(c)
DAV:   1     0.165101260330E+03    0.16510E+03   -0.83583E+03   344   0.702E+02
DAV:   2    -0.247665731132E+02   -0.18987E+03   -0.16596E+03   320   0.188E+02
DAV:   3    -0.383152914743E+02   -0.13549E+02   -0.11844E+02   368   0.592E+01
DAV:   4    -0.384899131727E+02   -0.17462E+00   -0.17436E+00   352   0.794E+00
DAV:   5    -0.384914498531E+02   -0.15367E-02   -0.15366E-02   344   0.571E-01    0.238E+01
DAV:   6    -0.325177529693E+02    0.59737E+01   -0.11321E+01   384   0.516E+01    0.309E+00
DAV:   7    -0.322713727742E+02    0.24638E+00   -0.10052E+00   376   0.114E+01    0.147E+00
DAV:   8    -0.322164567628E+02    0.54916E-01   -0.96744E-03   456   0.868E-01    0.661E-01
DAV:   9    -0.321965933476E+02    0.19863E-01   -0.33507E-03   416   0.384E-01    0.106E-01
DAV:  10    -0.321966957579E+02   -0.10241E-03   -0.78168E-04   360   0.181E-01    0.364E-02
DAV:  11    -0.321966733404E+02    0.22417E-04   -0.25762E-05   368   0.534E-02    0.242E-02
DAV:  12    -0.321966717872E+02    0.15531E-05   -0.99326E-06   368   0.318E-02    0.347E-03
DAV:  13    -0.321966727276E+02   -0.94031E-06   -0.83376E-08   208   0.171E-03
   1 F= -.32196673E+02 E0= -.32207277E+02  d E =0.318126E-01
 writing wavefunctions
