unknown system                          
   1.00000000000000     
     2.236800    0.000000    0.000000
    -1.118400    1.937126    0.000000
     0.000000    0.000000    3.975360
   Fe
     2
Direct
  0.000000  0.000000  0.000000
  0.333333  0.666667  0.500000
 
   20   20   32
  144.50      137.50      118.54      92.697      65.798      42.472      25.345      15.047      10.462      9.2057    
  8.9258      9.2057      10.462      15.047      25.345      42.472      65.798      92.697      118.54      137.50    
  137.51      137.50      124.55      102.29      76.229      51.580      31.904      18.776      11.912      9.4927    
  8.9157      8.9157      9.4926      11.912      18.775      31.903      51.579      76.230      102.30      124.56    
  118.55      124.53      118.54      102.29      80.061      56.859      36.763      22.149      13.568      9.9144    
  8.9163      8.6449      8.9162      9.9145      13.568      22.148      36.762      56.858      80.063      102.29    
  92.695      102.23      102.23      92.697      76.229      56.859      38.557      24.154      14.892      10.388    
  8.9249      8.4341      8.4340      8.9249      10.388      14.893      24.154      38.556      56.857      76.226    
  65.792      76.141      79.940      76.145      65.798      51.580      36.763      24.154      15.398      10.705    
  8.9471      8.2998      8.0670      8.2997      8.9471      10.706      15.399      24.155      36.763      51.576    
  42.471      51.504      56.727      56.728      51.507      42.472      31.904      22.149      14.892      10.705    
  8.9609      8.2373      7.8483      7.8483      8.2370      8.9602      10.705      14.894      22.152      31.906    
  25.349      31.870      36.679      38.450      36.677      31.867      25.345      18.776      13.568      10.388    
  8.9471      8.2373      7.7771      7.6197      7.7772      8.2367      8.9453      10.386      13.568      18.778    
  15.047      18.780      22.135      24.120      24.118      22.132      18.777      15.047      11.912      9.9144    
  8.9249      8.2998      7.8483      7.6197      7.6201      7.8490      8.2997      8.9231      9.9113      11.909    
  10.458      11.934      13.604      14.930      15.435      14.929      13.604      11.937      10.462      9.4927    
  8.9163      8.4341      8.0670      7.8483      7.7772      7.8490      8.0686      8.4358      8.9163      9.4900    
  9.2056      9.5216      9.9706      10.464      10.792      10.793      10.466      9.9738      9.5242      9.2057    
  8.9157      8.6449      8.4340      8.2997      8.2370      8.2367      8.2997      8.4358      8.6482      8.9184    
  8.9296      8.9504      8.9796      9.0139      9.0553      9.0771      9.0571      9.0157      8.9794      8.9477    
  8.9258      8.9157      8.9162      8.9249      8.9471      8.9602      8.9453      8.9231      8.9163      8.9184    
  9.2056      8.9504      8.7121      8.5301      8.4190      8.3705      8.3708      8.4190      8.5283      8.7088    
  8.9478      9.2057      9.4926      9.9145      10.388      10.706      10.705      10.386      9.9113      9.4900    
  10.458      9.5216      8.9796      8.5301      8.1915      7.9928      7.9289      7.9921      8.1899      8.5284    
  8.9796      9.5243      10.462      11.912      13.568      14.893      15.399      14.894      13.568      11.909    
  15.047      11.934      9.9706      9.0139      8.4190      7.9928      7.7785      7.7781      7.9921      8.4191    
  9.0156      9.9737      11.937      15.047      18.775      22.148      24.154      24.155      22.152      18.778    
  25.349      18.780      13.604      10.464      9.0553      8.3705      7.9289      7.7781      7.9287      8.3711    
  9.0571      10.466      13.604      18.778      25.345      31.903      36.762      38.556      36.763      31.906    
  42.471      31.870      22.135      14.930      10.792      9.0771      8.3708      7.9921      7.9921      8.3711    
  9.0778      10.792      14.929      22.132      31.868      42.472      51.579      56.858      56.857      51.576    
  65.792      51.504      36.679      24.120      15.435      10.793      9.0571      8.4190      8.1899      8.4191    
  9.0571      10.792      15.433      24.118      36.679      51.507      65.798      76.230      80.063      76.226    
  92.695      76.141      56.727      38.450      24.118      14.929      10.466      9.0157      8.5283      8.5284    
  9.0156      10.466      14.929      24.118      38.451      56.729      76.143      92.697      102.30      102.29    
  118.55      102.23      79.940      56.728      36.677      22.132      13.604      9.9738      8.9794      8.7088    
  8.9796      9.9737      13.604      22.132      36.679      56.729      79.938      102.22      118.54      124.56    
  137.51      124.53      102.23      76.145      51.507      31.867      18.777      11.937      9.5242      8.9477    
  8.9478      9.5243      11.937      18.778      31.868      51.507      76.143      102.22      124.52      137.50    
  135.91      129.33      111.50      87.169      61.841      39.908      23.880      14.342      10.175      9.0418    
  8.7667      9.0418      10.175      14.342      23.880      39.908      61.841      87.169      111.50      129.33    
  129.33      129.33      117.15      96.194      71.651      48.450      29.988      17.763      11.465      9.2927    
  8.7460      8.7459      9.2926      11.465      17.763      29.987      48.449      71.652      96.199      117.15    
  111.50      117.13      111.50      96.194      75.256      53.407      34.526      20.877      12.957      9.6524    
  8.7407      8.4758      8.7406      9.6524      12.957      20.876      34.524      53.406      75.257      96.199    
  87.167      96.149      96.149      87.169      71.651      53.407      36.203      22.733      14.159      10.062    
  8.7456      8.2690      8.2689      8.7456      10.062      14.159      22.733      36.202      53.404      71.648    
  61.835      71.590      75.171      71.594      61.841      48.450      34.526      22.733      14.620      10.340    
  8.7599      8.1388      7.9145      8.1387      8.7599      10.340      14.621      22.735      34.526      48.447    
  39.907      48.407      53.327      53.328      48.409      39.908      29.988      20.877      14.159      10.340    
  8.7697      8.0787      7.7049      7.7049      8.0785      8.7690      10.340      14.160      20.880      29.990    
  23.884      29.988      34.501      36.165      34.500      29.985      23.880      17.763      12.957      10.062    
  8.7599      8.0787      7.6369      7.4866      7.6370      8.0782      8.7583      10.060      12.957      17.765    
  14.342      17.799      20.922      22.775      22.773      20.919      17.796      14.342      11.465      9.6524    
  8.7456      8.1388      7.7049      7.4866      7.4870      7.7055      8.1387      8.7439      9.6494      11.462    
  10.171      11.516      13.049      14.272      14.739      14.271      13.049      11.518      10.175      9.2927    
  8.7407      8.2690      7.9145      7.7049      7.6370      7.7055      7.9160      8.2706      8.7407      9.2902    
  9.0417      9.3486      9.7607      10.211      10.511      10.511      10.213      9.7637      9.3510      9.0418    
  8.7460      8.4758      8.2689      8.1387      8.0785      8.0782      8.1387      8.2706      8.4790      8.7484    
  8.7703      8.8067      8.8545      8.9054      8.9526      8.9750      8.9542      8.9071      8.8544      8.8042    
  8.7667      8.7459      8.7406      8.7456      8.7599      8.7690      8.7583      8.7439      8.7407      8.7484    
  9.0417      8.8067      8.5931      8.4354      8.3434      8.3052      8.3055      8.3434      8.4337      8.5900    
  8.8043      9.0418      9.2926      9.6525      10.062      10.340      10.340      10.060      9.6494      9.2902    
  10.171      9.3486      8.8545      8.4354      8.1245      7.9447      7.8873      7.9440      8.1230      8.4338    
  8.8545      9.3511      10.175      11.465      12.957      14.159      14.621      14.160      12.957      11.462    
  14.342      11.516      9.7607      8.9054      8.3434      7.9447      7.7458      7.7454      7.9440      8.3435    
  8.9070      9.7636      11.518      14.342      17.763      20.876      22.733      22.735      20.880      17.765    
  23.884      17.799      13.049      10.211      8.9526      8.3052      7.8873      7.7454      7.8871      8.3058    
  8.9542      10.212      13.048      17.796      23.880      29.987      34.524      36.202      34.526      29.990    
  39.907      29.988      20.922      14.272      10.511      8.9750      8.3055      7.9440      7.9440      8.3058    
  8.9757      10.511      14.271      20.919      29.986      39.908      48.449      53.406      53.404      48.447    
  61.835      48.407      34.501      22.775      14.739      10.511      8.9542      8.3434      8.1230      8.3435    
  8.9542      10.511      14.737      22.773      34.501      48.410      61.841      71.652      75.257      71.648    
  87.167      71.590      53.327      36.165      22.773      14.271      10.213      8.9071      8.4337      8.4338    
  8.9070      10.212      14.271      22.773      36.166      53.329      71.592      87.169      96.199      96.199    
  111.50      96.149      75.171      53.328      34.500      20.919      13.049      9.7637      8.8544      8.5900    
  8.8545      9.7636      13.048      20.919      34.501      53.329      75.170      96.145      111.50      117.15    
  129.33      117.13      96.149      71.594      48.409      29.985      17.796      11.518      9.3510      8.8042    
  8.8043      9.3511      11.518      17.796      29.986      48.410      71.592      96.145      117.13      129.33    
  113.10      107.63      92.777      72.473      51.338      33.147      20.074      12.554      9.4566      8.5952    
  8.3367      8.5952      9.4566      12.554      20.074      33.147      51.338      72.473      92.777      107.63    
  107.63      107.63      97.482      79.990      59.487      40.168      24.973      15.165      10.346      8.7763    
  8.2892      8.2891      8.7762      10.346      15.165      24.972      40.168      59.488      79.994      97.486    
  92.780      97.482      92.777      79.990      62.483      44.257      28.646      17.588      11.415      8.9934    
  8.2666      8.0224      8.2664      8.9935      11.416      17.587      28.645      44.256      62.485      79.994    
  72.472      79.990      79.990      72.473      59.486      44.257      30.009      19.047      12.298      9.2475    
  8.2615      7.8250      7.8249      8.2614      9.2478      12.299      19.047      30.008      44.255      59.485    
  51.334      59.497      62.498      59.500      51.338      40.168      28.646      19.047      12.640      9.4257    
  8.2640      7.7036      7.5035      7.7035      8.2640      9.4261      12.641      19.048      28.646      40.166    
  33.146      40.211      44.317      44.318      40.213      33.147      24.973      17.588      12.298      9.4257    
  8.2663      7.6483      7.3171      7.3171      7.6482      8.2658      9.4256      12.299      17.590      24.975    
  20.077      25.059      28.777      30.153      28.776      25.056      20.074      15.165      11.415      9.2475    
  8.2640      7.6483      7.2572      7.1261      7.2574      7.6479      8.2627      9.2462      11.416      15.167    
  12.554      15.279      17.784      19.283      19.282      17.781      15.277      12.554      10.346      8.9934    
  8.2615      7.7036      7.3171      7.1261      7.1264      7.3176      7.7035      8.2601      8.9911      10.344    
  9.4535      10.468      11.645      12.598      12.964      12.597      11.645      10.470      9.4566      8.7763    
  8.2666      7.8250      7.5035      7.3171      7.2574      7.3176      7.5046      7.8263      8.2666      8.7743    
  8.5951      8.8973      9.2278      9.5711      9.7985      9.7990      9.5726      9.2301      8.8992      8.5952    
  8.2892      8.0224      7.8249      7.7035      7.6482      7.6479      7.7035      7.8263      8.0250      8.2912    
  8.3396      8.4118      8.4999      8.5880      8.6543      8.6800      8.6556      8.5893      8.4998      8.4098    
  8.3367      8.2891      8.2664      8.2614      8.2640      8.2658      8.2627      8.2601      8.2666      8.2912    
  8.5951      8.4118      8.2568      8.1538      8.1029      8.0864      8.0866      8.1030      8.1525      8.2544    
  8.4099      8.5952      8.7762      8.9935      9.2478      9.4261      9.4256      9.2462      8.9911      8.7743    
  9.4535      8.8973      8.5000      8.1538      7.9066      7.7686      7.7257      7.7682      7.9055      8.1526    
  8.5000      8.8993      9.4566      10.346      11.416      12.299      12.641      12.299      11.416      10.344    
  12.554      10.468      9.2278      8.5880      8.1029      7.7686      7.6051      7.6048      7.7681      8.1030    
  8.5893      9.2301      10.470      12.554      15.165      17.587      19.047      19.048      17.590      15.167    
  20.077      15.279      11.645      9.5711      8.6543      8.0864      7.7257      7.6048      7.7255      8.0868    
  8.6556      9.5723      11.645      15.277      20.074      24.972      28.645      30.008      28.646      24.975    
  33.146      25.059      17.784      12.598      9.7985      8.6800      8.0866      7.7682      7.7681      8.0868    
  8.6805      9.7986      12.597      17.781      25.057      33.147      40.168      44.256      44.255      40.166    
  51.334      40.211      28.777      19.283      12.964      9.7990      8.6556      8.1030      7.9055      8.1030    
  8.6556      9.7986      12.963      19.282      28.777      40.214      51.338      59.488      62.485      59.485    
  72.472      59.497      44.317      30.153      19.282      12.597      9.5726      8.5893      8.1525      8.1526    
  8.5893      9.5723      12.597      19.282      30.154      44.319      59.499      72.473      79.994      79.994    
  92.780      79.990      62.498      44.318      28.776      17.781      11.645      9.2301      8.4998      8.2544    
  8.4999      9.2301      11.645      17.781      28.777      44.319      62.496      79.986      92.777      97.486    
  107.63      97.482      79.990      59.500      40.213      25.056      15.277      10.470      8.8992      8.4098    
  8.4099      8.8993      10.470      15.277      25.057      40.214      59.499      79.986      97.477      107.63    
  83.335      79.287      68.288      53.256      37.691      24.511      15.376      10.462      8.6206      7.9840    
  7.7570      7.9840      8.6207      10.462      15.376      24.511      37.691      53.256      68.288      79.287    
  79.288      79.287      71.761      58.789      43.626      29.497      18.676      12.046      9.0648      8.1037    
  7.6760      7.6759      8.1037      9.0649      12.046      18.675      29.496      43.626      58.792      71.764    
  68.290      71.784      68.288      58.789      45.815      32.425      21.197      13.574      9.6274      8.2034    
  7.6255      7.4168      7.6253      8.2034      9.6276      13.573      21.196      32.424      45.815      58.791    
  53.255      58.847      58.847      53.256      43.626      32.425      22.140      14.513      10.114      8.2985    
  7.5994      7.2288      7.2287      7.5993      8.2987      10.115      14.513      22.139      32.423      43.624    
  37.688      43.728      45.956      43.730      37.691      29.497      21.197      14.513      10.307      8.3676    
  7.5888      7.1140      6.9498      7.1140      7.5888      8.3679      10.308      14.514      21.197      29.495    
  24.511      29.648      32.661      32.662      29.650      24.511      18.676      13.574      10.114      8.3676    
  7.5862      7.0615      6.7914      6.7915      7.0615      7.5859      8.3676      10.115      13.575      18.677    
  15.378      18.868      21.520      22.510      21.520      18.866      15.376      12.046      9.6274      8.2985    
  7.5888      7.0615      6.7410      6.6358      6.7412      7.0613      7.5880      8.2977      9.6276      12.047    
  10.462      12.255      13.952      14.985      14.984      13.950      12.254      10.462      9.0648      8.2034    
  7.5994      7.1140      6.7914      6.6358      6.6360      6.7917      7.1139      7.5985      8.2019      9.0635    
  8.6185      9.2698      10.019      10.635      10.874      10.634      10.019      9.2712      8.6207      8.1037    
  7.6255      7.2288      6.9498      6.7915      6.7412      6.7917      6.9505      7.2296      7.6255      8.1023    
  7.9839      8.2993      8.5824      8.8224      8.9719      8.9722      8.8233      8.5840      8.3007      7.9840    
  7.6760      7.4167      7.2287      7.1140      7.0616      7.0613      7.1139      7.2296      7.4185      7.6774    
  7.7591      7.8682      7.9929      8.1117      8.1984      8.2306      8.1992      8.1125      7.9927      7.8668    
  7.7570      7.6759      7.6253      7.5993      7.5888      7.5859      7.5880      7.5985      7.6255      7.6774    
  7.9839      7.8682      7.7808      7.7344      7.7222      7.7246      7.7248      7.7223      7.7335      7.7791    
  7.8668      7.9840      8.1037      8.2034      8.2987      8.3679      8.3676      8.2977      8.2019      8.1023    
  8.6185      8.2993      7.9929      7.7344      7.5573      7.4623      7.4336      7.4621      7.5567      7.7336    
  7.9929      8.3008      8.6207      9.0649      9.6276      10.115      10.308      10.115      9.6276      9.0635    
  10.462      9.2698      8.5824      8.1117      7.7222      7.4623      7.3378      7.3376      7.4620      7.7223    
  8.1126      8.5840      9.2712      10.462      12.046      13.573      14.513      14.514      13.575      12.047    
  15.378      12.255      10.019      8.8224      8.1984      7.7246      7.4336      7.3376      7.4334      7.7248    
  8.1992      8.8232      10.018      12.254      15.376      18.675      21.196      22.139      21.197      18.677    
  24.511      18.868      13.952      10.635      8.9719      8.2306      7.7248      7.4621      7.4620      7.7248    
  8.2309      8.9720      10.634      13.950      18.867      24.511      29.496      32.424      32.423      29.495    
  37.688      29.648      21.520      14.985      10.874      8.9722      8.1992      7.7223      7.5567      7.7223    
  8.1992      8.9720      10.873      14.984      21.520      29.650      37.691      43.626      45.815      43.624    
  53.255      43.728      32.661      22.510      14.984      10.634      8.8233      8.1125      7.7335      7.7336    
  8.1126      8.8232      10.634      14.984      22.511      32.663      43.730      53.256      58.792      58.791    
  68.290      58.847      45.956      32.662      21.520      13.950      10.019      8.5840      7.9927      7.7791    
  7.9929      8.5840      10.018      13.950      21.520      32.663      45.955      58.845      68.288      71.764    
  79.288      71.784      58.847      43.730      29.650      18.866      12.254      9.2712      8.3007      7.8668    
  7.8668      8.3008      9.2712      12.254      18.867      29.650      43.730      58.845      71.781      79.287    
  54.322      51.665      44.460      34.681      24.727      16.601      11.340      8.8067      7.8694      7.3526    
  7.1708      7.3527      7.8694      8.8067      11.340      16.601      24.727      34.681      44.460      51.665    
  51.666      51.665      46.719      38.232      28.432      19.548      13.093      9.4884      8.0394      7.3997    
  7.0541      7.0541      7.3997      8.0395      9.4886      13.093      19.547      28.433      38.233      46.721    
  44.461      46.761      44.460      38.232      29.809      21.308      14.482      10.193      8.2161      7.4379    
  6.9679      6.8050      6.9677      7.4378      8.2163      10.193      14.482      21.308      29.809      38.233    
  34.680      38.341      38.341      34.681      28.432      21.308      15.011      10.644      8.3770      7.4598    
  6.9107      6.6227      6.6226      6.9106      7.4599      8.3771      10.644      15.010      21.307      28.432    
  24.725      28.616      30.062      28.617      24.727      19.548      14.482      10.644      8.4437      7.4683    
  6.8787      6.5084      6.3848      6.5084      6.8787      7.4684      8.4440      10.644      14.482      19.547    
  16.601      19.794      21.699      21.699      19.795      16.601      13.093      10.193      8.3770      7.4683    
  6.8684      6.4546      6.2507      6.2508      6.4547      6.8683      7.4683      8.3775      10.194      13.094    
  11.341      13.378      14.973      15.577      14.973      13.377      11.340      9.4884      8.2161      7.4598    
  6.8787      6.4546      6.2081      6.1289      6.2082      6.4545      6.8783      7.4594      8.2163      9.4893    
  8.8066      9.7811      10.731      11.321      11.321      10.730      9.7804      8.8067      8.0394      7.4379    
  6.9107      6.5084      6.2507      6.1289      6.1289      6.2509      6.5083      6.9102      7.4370      8.0386    
  7.8681      8.3202      8.7533      9.0949      9.2266      9.0946      8.7533      8.3211      7.8694      7.3997    
  6.9679      6.6227      6.3848      6.2508      6.2082      6.2509      6.3851      6.6231      6.9679      7.3989    
  7.3526      7.6663      7.9533      8.1715      8.2888      8.2889      8.1719      7.9541      7.6670      7.3526    
  7.0541      6.8050      6.6226      6.5084      6.4547      6.4545      6.5083      6.6231      6.8060      7.0549    
  7.1719      7.3135      7.4651      7.6036      7.7020      7.7379      7.7024      7.6040      7.4649      7.3126    
  7.1708      7.0541      6.9677      6.9106      6.8787      6.8683      6.8783      6.9102      6.9679      7.0549    
  7.3526      7.3135      7.2958      7.3033      7.3254      7.3438      7.3439      7.3255      7.3028      7.2949    
  7.3127      7.3527      7.3997      7.4378      7.4599      7.4684      7.4683      7.4594      7.4370      7.3989    
  7.8681      7.6663      7.4651      7.3033      7.1987      7.1464      7.1315      7.1464      7.1985      7.3029    
  7.4651      7.6671      7.8694      8.0395      8.2163      8.3771      8.4440      8.3775      8.2163      8.0386    
  8.8066      8.3202      7.9533      7.6036      7.3254      7.1464      7.0627      7.0626      7.1463      7.3255    
  7.6041      7.9541      8.3210      8.8067      9.4886      10.193      10.644      10.644      10.194      9.4893    
  11.341      9.7811      8.7533      8.1715      7.7020      7.3438      7.1315      7.0626      7.1313      7.3438    
  7.7024      8.1719      8.7532      9.7803      11.340      13.093      14.482      15.010      14.482      13.094    
  16.601      13.378      10.731      9.0949      8.2888      7.7379      7.3439      7.1464      7.1463      7.3438    
  7.7380      8.2889      9.0945      10.730      13.377      16.601      19.547      21.308      21.307      19.547    
  24.725      19.794      14.973      11.321      9.2266      8.2889      7.7024      7.3255      7.1985      7.3255    
  7.7024      8.2889      9.2264      11.321      14.973      19.795      24.727      28.433      29.809      28.432    
  34.680      28.616      21.699      15.577      11.321      9.0946      8.1719      7.6040      7.3028      7.3029    
  7.6041      8.1719      9.0945      11.321      15.578      21.699      28.616      34.681      38.233      38.233    
  44.461      38.341      30.062      21.699      14.973      10.730      8.7533      7.9541      7.4649      7.2949    
  7.4651      7.9541      8.7532      10.730      14.973      21.699      30.061      38.340      44.460      46.721    
  51.666      46.761      38.341      28.617      19.795      13.377      9.7804      8.3211      7.6670      7.3126    
  7.3127      7.6671      8.3210      9.7803      13.377      19.795      28.616      38.340      46.759      51.665    
  31.434      29.927      25.872      20.477      15.197      11.178      8.8523      7.8181      7.2082      6.8188    
  6.6879      6.8188      7.2082      7.8181      8.8523      11.178      15.197      20.477      25.872      29.927    
  29.927      29.927      27.123      22.379      17.063      12.500      9.4803      7.9886      7.2781      6.7854    
  6.5337      6.5336      6.7854      7.2782      7.9888      9.4804      12.500      17.063      22.380      27.123    
  25.872      27.175      25.872      22.379      17.767      13.319      10.014      8.1643      7.3180      6.7570    
  6.4089      6.2933      6.4087      6.7570      7.3181      8.1644      10.014      13.318      17.768      22.379    
  20.477      22.517      22.517      20.477      17.063      13.319      10.223      8.2847      7.3328      6.7331    
  6.3174      6.1120      6.1120      6.3174      6.7330      7.3328      8.2846      10.223      13.318      17.062    
  15.196      17.291      18.082      17.292      15.197      12.500      10.014      8.2847      7.3366      6.7185    
  6.2616      5.9934      5.9068      5.9935      6.2616      6.7185      7.3365      8.2847      10.014      12.500    
  11.178      12.801      13.797      13.798      12.802      11.178      9.4803      8.1643      7.3328      6.7185    
  6.2427      5.9354      5.7895      5.7895      5.9355      6.2427      6.7185      7.3330      8.1647      9.4807    
  8.8527      9.8228      10.608      10.910      10.607      9.8226      8.8523      7.9886      7.3180      6.7331    
  6.2616      5.9354      5.7517      5.6934      5.7518      5.9354      6.2615      6.7330      7.3181      7.9890    
  7.8180      8.3419      8.8128      9.1023      9.1022      8.8125      8.3417      7.8181      7.2781      6.7570    
  6.3174      5.9934      5.7895      5.6934      5.6934      5.7895      5.9934      6.3173      6.7567      7.2778    
  7.2076      7.6242      7.9751      8.2084      8.2910      8.2083      7.9751      7.6246      7.2082      6.7854    
  6.4089      6.1120      5.9068      5.7895      5.7518      5.7895      5.9068      6.1121      6.4089      6.7851    
  6.8188      7.1211      7.4026      7.6212      7.7407      7.7407      7.6212      7.4028      7.1214      6.8188    
  6.5337      6.2933      6.1120      5.9935      5.9355      5.9354      5.9934      6.1121      6.2936      6.5340    
  6.6883      6.8631      7.0419      7.2004      7.3109      7.3508      7.3110      7.2005      7.0418      6.8628    
  6.6879      6.5336      6.4087      6.3174      6.2616      6.2427      6.2615      6.3173      6.4089      6.5340    
  6.8188      6.8631      6.9215      6.9892      7.0516      7.0896      7.0897      7.0517      6.9891      6.9211    
  6.8628      6.8188      6.7854      6.7570      6.7330      6.7185      6.7185      6.7330      6.7567      6.7851    
  7.2076      7.1211      7.0419      6.9892      6.9668      6.9639      6.9654      6.9640      6.9669      6.9891    
  7.0419      7.1214      7.2082      7.2782      7.3181      7.3328      7.3365      7.3330      7.3181      7.2778    
  7.8180      7.6242      7.4026      7.2004      7.0516      6.9639      6.9264      6.9264      6.9640      7.0517    
  7.2006      7.4029      7.6245      7.8181      7.9888      8.1644      8.2846      8.2847      8.1647      7.9890    
  8.8527      8.3419      7.9751      7.6212      7.3109      7.0896      6.9654      6.9264      6.9652      7.0896    
  7.3110      7.6213      7.9750      8.3415      8.8523      9.4804      10.014      10.223      10.014      9.4807    
  11.178      9.8228      8.8128      8.2084      7.7407      7.3508      7.0897      6.9640      6.9640      7.0896    
  7.3507      7.7407      8.2083      8.8124      9.8225      11.178      12.500      13.318      13.318      12.500    
  15.196      12.801      10.608      9.1023      8.2910      7.7407      7.3110      7.0517      6.9669      7.0517    
  7.3110      7.7407      8.2910      9.1023      10.608      12.802      15.197      17.063      17.768      17.062    
  20.477      17.291      13.797      10.910      9.1022      8.2083      7.6212      7.2005      6.9891      6.9891    
  7.2006      7.6213      8.2083      9.1023      10.910      13.798      17.292      20.477      22.380      22.379    
  25.872      22.517      18.082      13.798      10.607      8.8125      7.9751      7.4028      7.0418      6.9211    
  7.0419      7.4029      7.9750      8.8124      10.608      13.798      18.082      22.516      25.872      27.123    
  29.927      27.175      22.517      17.292      12.802      9.8226      8.3417      7.6246      7.1214      6.8628    
  6.8628      7.1214      7.6245      8.3415      9.8225      12.802      17.292      22.516      27.175      29.927    
  16.868      16.184      14.378      12.074      9.9769      8.5400      7.7346      7.1524      6.7121      6.4508    
  6.3659      6.4508      6.7121      7.1524      7.7346      8.5400      9.9769      12.074      14.378      16.184    
  16.184      16.184      14.915      12.830      10.622      8.8890      7.8418      7.1956      6.6821      6.3379    
  6.1709      6.1709      6.3379      6.6822      7.1958      7.8419      8.8891      10.622      12.830      14.915    
  14.378      14.967      14.378      12.830      10.874      9.1211      7.9310      7.2154      6.6545      6.2458    