unknown system                          
   1.00000000000000     
     2.236800    0.000000    0.000000
    -1.118400    1.937126    0.000000
     0.000000    0.000000    3.975360
   Fe
     2
Direct
  0.000000  0.000000  0.000000
  0.333333  0.666667  0.500000
 
   20   20   32
 0.14450490454E+03 0.13750469048E+03 0.11854261906E+03 0.92697089317E+02 0.65797524595E+02
 0.42471950095E+02 0.25345121733E+02 0.15046871617E+02 0.10462345827E+02 0.92057019657E+01
 0.89257788684E+01 0.92057262725E+01 0.10462367343E+02 0.15046873205E+02 0.25345119079E+02
 0.42471968712E+02 0.65797562721E+02 0.92697118039E+02 0.11854261969E+03 0.13750467786E+03
 0.13750729753E+03 0.13750468935E+03 0.12455421493E+03 0.10229052836E+03 0.76228524008E+02
 0.51579519758E+02 0.31904052457E+02 0.18775608191E+02 0.11911822410E+02 0.94926683401E+01
 0.89157417263E+01 0.89156548712E+01 0.94925857173E+01 0.11911812925E+02 0.18775174884E+02
 0.31902909107E+02 0.51578803480E+02 0.76230342774E+02 0.10229557056E+03 0.12456005403E+03
 0.11854647970E+03 0.12453079998E+03 0.11854261960E+03 0.10229052967E+03 0.80061217414E+02
 0.56859344407E+02 0.36763300926E+02 0.22148861396E+02 0.13567630646E+02 0.99144453351E+01
 0.89163331982E+01 0.86448673639E+01 0.89161664119E+01 0.99145347967E+01 0.13567775693E+02
 0.22148116643E+02 0.36761508227E+02 0.56858239269E+02 0.80062972981E+02 0.10229494113E+03
 0.92695298260E+02 0.10222834643E+03 0.10222895754E+03 0.92697091836E+02 0.76228523028E+02
 0.56859342973E+02 0.38557385623E+02 0.24153575998E+02 0.14891839584E+02 0.10387525863E+02
 0.89249270916E+01 0.84340835496E+01 0.84339803602E+01 0.89249207271E+01 0.10388030188E+02
 0.14892574132E+02 0.24153587611E+02 0.38555974405E+02 0.56856809955E+02 0.76225903329E+02
 0.65791908083E+02 0.76140620477E+02 0.79940089284E+02 0.76145020367E+02 0.65797524334E+02
 0.51579516958E+02 0.36763302362E+02 0.24153577456E+02 0.15397745714E+02 0.10704859491E+02
 0.89470753680E+01 0.82997728577E+01 0.80669978416E+01 0.82996623987E+01 0.89470782375E+01
 0.10705512219E+02 0.15399392988E+02 0.24155407390E+02 0.36763302855E+02 0.51576183814E+02
 0.42471233285E+02 0.51503930677E+02 0.56726924128E+02 0.56728349000E+02 0.51506537552E+02
 0.42471948753E+02 0.31904053251E+02 0.22148864249E+02 0.14891837663E+02 0.10704858100E+02
 0.89608882654E+01 0.82373455432E+01 0.78482719096E+01 0.78482611888E+01 0.82370258416E+01
 0.89601696552E+01 0.10704776792E+02 0.14893658483E+02 0.22152101163E+02 0.31906264201E+02
 0.25348979090E+02 0.31870187221E+02 0.36678962089E+02 0.38449522420E+02 0.36677204855E+02
 0.31866865609E+02 0.25345120678E+02 0.18775609572E+02 0.13567629285E+02 0.10387523159E+02
 0.89470777760E+01 0.82373468087E+01 0.77770550556E+01 0.76197354572E+01 0.77772156575E+01
 0.82367124415E+01 0.89452836099E+01 0.10385788382E+02 0.13567775693E+02 0.18778216578E+02
 0.15046883137E+02 0.18780109682E+02 0.22135463954E+02 0.24119797593E+02 0.24118005126E+02
 0.22131531012E+02 0.18777093864E+02 0.15046870389E+02 0.11911823284E+02 0.99144440656E+01
 0.89249290318E+01 0.82997752935E+01 0.78482691360E+01 0.76197343988E+01 0.76201475532E+01
 0.78490065474E+01 0.82996723300E+01 0.89230910175E+01 0.99112757728E+01 0.11909203190E+02
 0.10458343702E+02 0.11934098638E+02 0.13604153395E+02 0.14930426809E+02 0.15434599525E+02
 0.14929349773E+02 0.13604153047E+02 0.11936692471E+02 0.10462347656E+02 0.94926695511E+01
 0.89163325248E+01 0.84340846394E+01 0.80669954809E+01 0.78482592047E+01 0.77772186853E+01
 0.78490073369E+01 0.80686288394E+01 0.84358001385E+01 0.89163300417E+01 0.94899660507E+01
 0.92056225531E+01 0.95215757338E+01 0.99705584655E+01 0.10464146956E+02 0.10792175702E+02
 0.10792890900E+02 0.10466347946E+02 0.99737893683E+01 0.95241837028E+01 0.92057041328E+01
 0.89157395486E+01 0.86448662188E+01 0.84339809200E+01 0.82996616428E+01 0.82370285009E+01
 0.82367138354E+01 0.82996691383E+01 0.84357996085E+01 0.86482201759E+01 0.89183782573E+01
 0.89296388793E+01 0.89504239757E+01 0.89795577918E+01 0.90138680297E+01 0.90553123466E+01
 0.90770870203E+01 0.90570686015E+01 0.90156725461E+01 0.89794143777E+01 0.89477353333E+01
 0.89257778692E+01 0.89156529630E+01 0.89161688951E+01 0.89249218293E+01 0.89470777760E+01
 0.89601699719E+01 0.89452807405E+01 0.89230901794E+01 0.89163331982E+01 0.89183785267E+01
 0.92056196168E+01 0.89504239729E+01 0.87121440553E+01 0.85300996185E+01 0.84190202161E+01
 0.83705051517E+01 0.83708121111E+01 0.84190072312E+01 0.85283056779E+01 0.87088432036E+01
 0.89478348159E+01 0.92057255033E+01 0.94925872022E+01 0.99145363458E+01 0.10388027535E+02
 0.10705511179E+02 0.10704777142E+02 0.10385788433E+02 0.99112785913E+01 0.94899663246E+01
 0.10458341163E+02 0.95215760543E+01 0.89795604549E+01 0.85300994375E+01 0.81914991572E+01
 0.79928452411E+01 0.79288607386E+01 0.79921193428E+01 0.81898872586E+01 0.85283880268E+01
 0.89795590308E+01 0.95242874222E+01 0.10462366632E+02 0.11911813352E+02 0.13567773938E+02
 0.14892573090E+02 0.15399395689E+02 0.14893659363E+02 0.13567775299E+02 0.11909202743E+02
 0.15046883673E+02 0.11934099556E+02 0.99705607051E+01 0.90138673118E+01 0.84190179308E+01
 0.79928455034E+01 0.77785138897E+01 0.77781183994E+01 0.79921313984E+01 0.84191016356E+01
 0.90156433568E+01 0.99736735933E+01 0.11936704526E+02 0.15046872513E+02 0.18775175489E+02
 0.22148116766E+02 0.24153589512E+02 0.24155407832E+02 0.22152098433E+02 0.18778215802E+02
 0.25348981744E+02 0.18780110471E+02 0.13604152819E+02 0.10464145761E+02 0.90553105343E+01
 0.83705060301E+01 0.79288624894E+01 0.77781180939E+01 0.79287160855E+01 0.83711376136E+01
 0.90570686015E+01 0.10465836375E+02 0.13603989418E+02 0.18777511647E+02 0.25345120678E+02
 0.31902909972E+02 0.36761507734E+02 0.38555973696E+02 0.36763300926E+02 0.31906264272E+02
 0.42471235010E+02 0.31870186750E+02 0.22135461602E+02 0.14930426103E+02 0.10792176374E+02
 0.90770882785E+01 0.83708132643E+01 0.79921183624E+01 0.79921301556E+01 0.83711378883E+01
 0.90778192396E+01 0.10792279533E+02 0.14928634688E+02 0.22132256028E+02 0.31868002721E+02
 0.42471969095E+02 0.51578801872E+02 0.56858238280E+02 0.56856810400E+02 0.51576185006E+02
 0.65791907484E+02 0.51503929048E+02 0.36678960808E+02 0.24119798457E+02 0.15434601532E+02
 0.10792891459E+02 0.90570676348E+01 0.84190058752E+01 0.81898867098E+01 0.84191025650E+01
 0.90570694471E+01 0.10792279421E+02 0.15433006054E+02 0.24117995195E+02 0.36678961956E+02
 0.51507272979E+02 0.65797561861E+02 0.76230342807E+02 0.80062974515E+02 0.76225904341E+02
 0.92695296742E+02 0.76140619380E+02 0.56726924992E+02 0.38449524449E+02 0.24118005881E+02
 0.14929348613E+02 0.10466346188E+02 0.90156719428E+01 0.85283068620E+01 0.85283893919E+01
 0.90156434714E+01 0.10465835812E+02 0.14928634234E+02 0.24117995086E+02 0.38450892968E+02
 0.56729406148E+02 0.76143227792E+02 0.92697119039E+02 0.10229557134E+03 0.10229494061E+03
 0.11854647907E+03 0.10222834731E+03 0.79940090703E+02 0.56728350200E+02 0.36677203708E+02
 0.22131528733E+02 0.13604152819E+02 0.99737905435E+01 0.89794158018E+01 0.87088439235E+01
 0.89795577918E+01 0.99736725290E+01 0.13603989765E+02 0.22132256102E+02 0.36678962089E+02
 0.56729406483E+02 0.79938294656E+02 0.10222391998E+03 0.11854261960E+03 0.12456005238E+03
 0.13750729776E+03 0.12453080212E+03 0.10222895781E+03 0.76145019237E+02 0.51506536330E+02
 0.31866864383E+02 0.18777095338E+02 0.11936694782E+02 0.95241833356E+01 0.89477343427E+01
 0.89478338281E+01 0.95242867346E+01 0.11936705920E+02 0.18777512332E+02 0.31868001967E+02
 0.51507273386E+02 0.76143227758E+02 0.10222391937E+03 0.12452494361E+03 0.13750467696E+03
 0.13590512351E+03 0.12932658750E+03 0.11149537198E+03 0.87169013908E+02 0.61840642047E+02
 0.39907744200E+02 0.23880213076E+02 0.14341789758E+02 0.10174731303E+02 0.90417503012E+01
 0.87667119582E+01 0.90417749559E+01 0.10174753831E+02 0.14341792576E+02 0.23880210435E+02
 0.39907760695E+02 0.61840676952E+02 0.87169040512E+02 0.11149537260E+03 0.12932657577E+03
 0.12932901986E+03 0.12932658637E+03 0.11714773990E+03 0.96194426507E+02 0.71650638779E+02
 0.48449757843E+02 0.29988266950E+02 0.17762975572E+02 0.11464536100E+02 0.92926763882E+01
 0.87459883359E+01 0.87459016232E+01 0.92925941103E+01 0.11464542237E+02 0.17762607080E+02
 0.29987234952E+02 0.48449102820E+02 0.71652328835E+02 0.96199120381E+02 0.11715318400E+03
 0.11149897537E+03 0.11713056294E+03 0.11149537253E+03 0.96194427818E+02 0.75255601076E+02
 0.53406679413E+02 0.34525930620E+02 0.20876742970E+02 0.12956622616E+02 0.96523756962E+01
 0.87407232494E+01 0.84758382675E+01 0.87405506000E+01 0.96524492349E+01 0.12956772545E+02
 0.20876075999E+02 0.34524273518E+02 0.53405641690E+02 0.75257224237E+02 0.96198537108E+02
 0.87167349429E+02 0.96148874081E+02 0.96149440463E+02 0.87169016439E+02 0.71650637802E+02
 0.53406677978E+02 0.36203224241E+02 0.22732939548E+02 0.14158744232E+02 0.10061944106E+02
 0.87455998259E+01 0.82690418129E+01 0.82689386146E+01 0.87455777119E+01 0.10062397688E+02
 0.14159415385E+02 0.22732936762E+02 0.36201893746E+02 0.53404305404E+02 0.71648193656E+02
 0.61835415162E+02 0.71589520857E+02 0.75171269811E+02 0.71593619486E+02 0.61840641789E+02
 0.48449755038E+02 0.34525932052E+02 0.22732941004E+02 0.14619532411E+02 0.10339610214E+02
 0.87599193928E+01 0.81388104758E+01 0.79144848593E+01 0.81387156055E+01 0.87599222521E+01
 0.10340199871E+02 0.14621039196E+02 0.22734627845E+02 0.34525932540E+02 0.48446658724E+02
 0.39907088659E+02 0.48406769234E+02 0.53326895491E+02 0.53328227522E+02 0.48409201414E+02
 0.39907742850E+02 0.29988267735E+02 0.20876745820E+02 0.14158742310E+02 0.10339608824E+02
 0.87696781211E+01 0.80787286319E+01 0.77048676973E+01 0.77048725758E+01 0.80784593398E+01
 0.87690230330E+01 0.10339527834E+02 0.14160434431E+02 0.20879775404E+02 0.29990351085E+02
 0.23883813203E+02 0.29987672125E+02 0.34501199179E+02 0.36165032633E+02 0.34499574313E+02
 0.29984586434E+02 0.23880212011E+02 0.17762976948E+02 0.12956621254E+02 0.10061941403E+02
 0.87599217986E+01 0.80787298954E+01 0.76368750703E+01 0.74866333011E+01 0.76370415363E+01
 0.80781589183E+01 0.87582632299E+01 0.10060334990E+02 0.12956772545E+02 0.17765422791E+02
 0.14341786904E+02 0.17798617844E+02 0.20922368087E+02 0.22774965521E+02 0.22773299628E+02
 0.20918715806E+02 0.17795824647E+02 0.14341788526E+02 0.11464536976E+02 0.96523744290E+01
 0.87456017636E+01 0.81388129064E+01 0.77048649210E+01 0.74866322436E+01 0.74870105890E+01
 0.77055389396E+01 0.81387099327E+01 0.87438923016E+01 0.96494275386E+01 0.11462092469E+02
 0.10170981563E+02 0.11515527463E+02 0.13048520121E+02 0.14272236315E+02 0.14738555354E+02
 0.14271224596E+02 0.13048519768E+02 0.11517960995E+02 0.10174733137E+02 0.92926776050E+01
 0.87407225752E+01 0.82690428964E+01 0.79144824935E+01 0.77048705938E+01 0.76370445710E+01
 0.77055397339E+01 0.79159743808E+01 0.82706296977E+01 0.87407201007E+01 0.92901500147E+01
 0.90416712269E+01 0.93485512844E+01 0.97606613287E+01 0.10210861900E+02 0.10510530322E+02
 0.10511184262E+02 0.10212888360E+02 0.97636584346E+01 0.93509845775E+01 0.90417524785E+01
 0.87459861622E+01 0.84758371178E+01 0.82689391674E+01 0.81387148502E+01 0.80784620092E+01
 0.80781603243E+01 0.81387067468E+01 0.82706291669E+01 0.84789693655E+01 0.87484494478E+01
 0.87703147258E+01 0.88067384805E+01 0.88545163378E+01 0.89053914318E+01 0.89525749402E+01
 0.89750397815E+01 0.89541988225E+01 0.89070549939E+01 0.88543680675E+01 0.88042248652E+01
 0.87667109690E+01 0.87458997135E+01 0.87405530745E+01 0.87455788105E+01 0.87599217986E+01
 0.87690233648E+01 0.87582603706E+01 0.87438914625E+01 0.87407232494E+01 0.87484497119E+01
 0.90416682829E+01 0.88067384770E+01 0.85931300862E+01 0.84353970680E+01 0.83433945691E+01
 0.83052293442E+01 0.83055230046E+01 0.83433959850E+01 0.84337297227E+01 0.85900489980E+01
 0.88043241638E+01 0.90417741892E+01 0.92925955868E+01 0.96524507744E+01 0.10062395036E+02
 0.10340198842E+02 0.10339528196E+02 0.10060335042E+02 0.96494303454E+01 0.92901502743E+01
 0.10170979011E+02 0.93485516026E+01 0.88545190055E+01 0.84353968912E+01 0.81244886310E+01
 0.79446575368E+01 0.78872870325E+01 0.79440072941E+01 0.81230139947E+01 0.84338117409E+01
 0.88545175923E+01 0.93510883065E+01 0.10174753113E+02 0.11464542649E+02 0.12956770779E+02
 0.14159414347E+02 0.14621041908E+02 0.14160435315E+02 0.12956772141E+02 0.11462092005E+02
 0.14341787425E+02 0.11515528376E+02 0.97606635749E+01 0.89053907248E+01 0.83433922915E+01
 0.79446578017E+01 0.77457511841E+01 0.77453892632E+01 0.79440049605E+01 0.83434756696E+01
 0.89070400472E+01 0.97635570392E+01 0.11517958662E+02 0.14341791865E+02 0.17762607666E+02
 0.20876076117E+02 0.22732938671E+02 0.22734628297E+02 0.20879772673E+02 0.17765422001E+02
 0.23883815844E+02 0.17798618625E+02 0.13048519550E+02 0.10210860719E+02 0.89525731411E+01
 0.83052302300E+01 0.78872887847E+01 0.77453889565E+01 0.78871375077E+01 0.83058008804E+01
 0.89541988225E+01 0.10212424737E+02 0.13048350268E+02 0.17796178869E+02 0.23880212011E+02
 0.29987235805E+02 0.34524273030E+02 0.36201893052E+02 0.34525930620E+02 0.29990351151E+02
 0.39907090375E+02 0.29987671643E+02 0.20922365733E+02 0.14272235620E+02 0.10510531009E+02
 0.89750410506E+01 0.83055241609E+01 0.79440063103E+01 0.79440037119E+01 0.83058011509E+01
 0.89757108868E+01 0.10510634166E+02 0.14270570771E+02 0.20919363959E+02 0.29985611874E+02
 0.39907761062E+02 0.48449101213E+02 0.53405640720E+02 0.53404305869E+02 0.48446659922E+02
 0.61835414559E+02 0.48406767591E+02 0.34501197889E+02 0.22774966388E+02 0.14738557374E+02
 0.10511184834E+02 0.89541978610E+01 0.83433946251E+01 0.81230134359E+01 0.83434765873E+01
 0.89541996601E+01 0.10510634051E+02 0.14737100134E+02 0.22773305300E+02 0.34501199033E+02
 0.48409873450E+02 0.61840676091E+02 0.71652328885E+02 0.75257225796E+02 0.71648194683E+02
 0.87167347912E+02 0.71589519746E+02 0.53326896339E+02 0.36165034657E+02 0.22773300391E+02
 0.14271223449E+02 0.10212886609E+02 0.89070543876E+01 0.84337308948E+01 0.84338130897E+01
 0.89070401479E+01 0.10212424168E+02 0.14270570319E+02 0.22773305197E+02 0.36166327015E+02
 0.53329221482E+02 0.71591953489E+02 0.87169041525E+02 0.96199121183E+02 0.96198536599E+02
 0.11149897475E+03 0.96148874945E+02 0.75171271210E+02 0.53328228710E+02 0.34499573169E+02
 0.20918713540E+02 0.13048519550E+02 0.97636596089E+01 0.88543694807E+01 0.85900497003E+01
 0.88545163378E+01 0.97635559673E+01 0.13048350620E+02 0.20919364046E+02 0.34501199179E+02
 0.53329221822E+02 0.75169610788E+02 0.96144751012E+02 0.11149537253E+03 0.11715318237E+03
 0.12932902010E+03 0.11713056507E+03 0.96149440713E+02 0.71593618341E+02 0.48409200191E+02
 0.29984585219E+02 0.17795826132E+02 0.11517963309E+02 0.93509842016E+01 0.88042238597E+01
 0.88043231618E+01 0.93510876125E+01 0.11517960062E+02 0.17796179572E+02 0.29985611141E+02
 0.48409873870E+02 0.71591953456E+02 0.96144750399E+02 0.11712510297E+03 0.12932657488E+03
 0.11310454677E+03 0.10763205300E+03 0.92776694489E+02 0.72472971407E+02 0.51338088874E+02
 0.33146782523E+02 0.20073915112E+02 0.12554201752E+02 0.94565886500E+01 0.85951585973E+01
 0.83367143504E+01 0.85951830299E+01 0.94566123256E+01 0.12554206835E+02 0.20073912502E+02
 0.33146794128E+02 0.51338116072E+02 0.72472992839E+02 0.92776695106E+02 0.10763204348E+03
 0.10763401800E+03 0.10763205189E+03 0.97481883417E+02 0.79990306765E+02 0.59486500394E+02
 0.40168019863E+02 0.24973053293E+02 0.15164710271E+02 0.10346033517E+02 0.87763185081E+01
 0.82891912523E+01 0.82891060949E+01 0.87762379994E+01 0.10346077576E+02 0.15164506649E+02
 0.24972311174E+02 0.40167525870E+02 0.59487847951E+02 0.79994071333E+02 0.97486271641E+02
 0.92779609408E+02 0.97481665196E+02 0.92776695061E+02 0.79990308084E+02 0.62483296219E+02
 0.44257330679E+02 0.28646105566E+02 0.17587778126E+02 0.11415389371E+02 0.89934191613E+01
 0.82665687845E+01 0.80224238324E+01 0.82663849133E+01 0.89934531088E+01 0.11415549444E+02
 0.17587312765E+02 0.28644807214E+02 0.44256474337E+02 0.62484568269E+02 0.79993610453E+02
 0.72471644222E+02 0.79989659741E+02 0.79990107237E+02 0.72472973962E+02 0.59486499422E+02
 0.44257329241E+02 0.30009148197E+02 0.19046914755E+02 0.12298014371E+02 0.92474586073E+01
 0.82614737618E+01 0.78250400215E+01 0.78249388002E+01 0.82614142009E+01 0.92477812657E+01
 0.12298519559E+02 0.19046876296E+02 0.30008036222E+02 0.44255387552E+02 0.59484524813E+02
 0.51333901518E+02 0.59497038794E+02 0.62497556790E+02 0.59500332760E+02 0.51338088622E+02
 0.40168017049E+02 0.28646106988E+02 0.19046916209E+02 0.12640086805E+02 0.94256556220E+01
 0.82640014463E+01 0.77035867836E+01 0.75034691853E+01 0.77035317570E+01 0.82640042809E+01
 0.94260810317E+01 0.12641224672E+02 0.19048224912E+02 0.28646107465E+02 0.40165551349E+02
 0.33146288045E+02 0.40211125331E+02 0.44316992862E+02 0.44318075918E+02 0.40213090118E+02
 0.33146781158E+02 0.24973054062E+02 0.17587780969E+02 0.12298012450E+02 0.94256542310E+01
 0.82662615271E+01 0.76483043543E+01 0.73170760601E+01 0.73171188092E+01 0.76481622429E+01
 0.82657719239E+01 0.94255749490E+01 0.12299362093E+02 0.17590254250E+02 0.24974791778E+02
 0.20076826804E+02 0.25058755958E+02 0.28776782331E+02 0.30152901348E+02 0.28775508493E+02
 0.25056298627E+02 0.20073914026E+02 0.15164711639E+02 0.11415388011E+02 0.92474559044E+01
 0.82640038468E+01 0.76483056124E+01 0.72571909901E+01 0.71261108972E+01 0.72573686796E+01
 0.76478985899E+01 0.82627040291E+01 0.92461902192E+01 0.11415549444E+02 0.15166723600E+02
 0.12554163280E+02 0.15279260668E+02 0.17783949291E+02 0.19282899319E+02 0.19281570712E+02
 0.17781044286E+02 0.15277058707E+02 0.12554200513E+02 0.10346034398E+02 0.89934178997E+01
 0.82614756927E+01 0.77035892003E+01 0.73170732764E+01 0.71261098411E+01 0.71263968814E+01
 0.73175813373E+01 0.77034882024E+01 0.82601091386E+01 0.89910612617E+01 0.10344059501E+02
 0.94535172833E+01 0.10467930410E+02 0.11644769450E+02 0.12598061923E+02 0.12963972392E+02
 0.12597226452E+02 0.11644769087E+02 0.10469932216E+02 0.94565904969E+01 0.87763197389E+01
 0.82665681069E+01 0.78250410879E+01 0.75034668056E+01 0.73171168310E+01 0.72573717301E+01
 0.73175821427E+01 0.75045886971E+01 0.78262874171E+01 0.82665656533E+01 0.87742634783E+01
 0.85950812769E+01 0.88972544510E+01 0.92277531535E+01 0.95710579802E+01 0.97985325076E+01
 0.97990254088E+01 0.95726232452E+01 0.92301283646E+01 0.88992203951E+01 0.85951607970E+01
 0.82891890859E+01 0.80224226698E+01 0.78249393348E+01 0.77035310018E+01 0.76481649358E+01
 0.76479000246E+01 0.77034850305E+01 0.78262868853E+01 0.80249609871E+01 0.82911823691E+01
 0.83396286527E+01 0.84118003402E+01 0.84999487113E+01 0.85879640911E+01 0.86543403858E+01
 0.86800249322E+01 0.86556132295E+01 0.85892547352E+01 0.84997903531E+01 0.84097558554E+01
 0.83367133822E+01 0.82891041799E+01 0.82663873669E+01 0.82614152910E+01 0.82640038468E+01
 0.82657722915E+01 0.82627011945E+01 0.82601082978E+01 0.82665687845E+01 0.82911826205E+01
 0.85950783152E+01 0.84118003350E+01 0.82568457996E+01 0.81538356657E+01 0.81029324735E+01
 0.80863891574E+01 0.80866456953E+01 0.81029695660E+01 0.81525056517E+01 0.82543527460E+01
 0.84098529845E+01 0.85951822680E+01 0.87762394568E+01 0.89934546272E+01 0.92477786161E+01
 0.94260800316E+01 0.94255753399E+01 0.92461902725E+01 0.89910640417E+01 0.87742637050E+01
 0.94535147008E+01 0.88972547635E+01 0.84999513896E+01 0.81538354982E+01 0.79066245572E+01
 0.77686189916E+01 0.77256625957E+01 0.77681654563E+01 0.79055111203E+01 0.81525859338E+01
 0.84999500000E+01 0.88993221481E+01 0.94566115900E+01 0.10346077953E+02 0.11415547658E+02
 0.12298518532E+02 0.12641227410E+02 0.12299362988E+02 0.11415549018E+02 0.10344058996E+02
 0.12554163766E+02 0.10467931312E+02 0.92277554149E+01 0.85879634083E+01 0.81029302129E+01
 0.77686192619E+01 0.76050933054E+01 0.76048196463E+01 0.77681274707E+01 0.81030118625E+01
 0.85892758737E+01 0.92300645972E+01 0.10469894230E+02 0.12554206082E+02 0.15164507195E+02
 0.17587312872E+02 0.19046878224E+02 0.19048225387E+02 0.17590251513E+02 0.15166722777E+02
 0.20076829415E+02 0.15279261432E+02 0.11644768889E+02 0.95710568289E+01 0.86543386156E+01
 0.80863900590E+01 0.77256643509E+01 0.76048193376E+01 0.77255029488E+01 0.80868013953E+01
 0.86556132295E+01 0.95722855100E+01 0.11644588347E+02 0.15277251135E+02 0.20073914026E+02
 0.24972311997E+02 0.28644806736E+02 0.30008035562E+02 0.28646105566E+02 0.24974791832E+02
 0.33146289741E+02 0.25058755451E+02 0.17783946934E+02 0.12598061252E+02 0.97985332279E+01
 0.86800262246E+01 0.80866468585E+01 0.77681644660E+01 0.77681262101E+01 0.80868016569E+01
 0.86805345608E+01 0.97986343803E+01 0.12596733671E+02 0.17781493513E+02 0.25057033838E+02
 0.33146794459E+02 0.40167524267E+02 0.44256473406E+02 0.44255388059E+02 0.40165552560E+02
 0.51333900908E+02 0.40211123658E+02 0.28776781021E+02 0.19282900195E+02 0.12963974442E+02
 0.97990260094E+01 0.86556122791E+01 0.81029681985E+01 0.79055105406E+01 0.81030127556E+01
 0.86556140493E+01 0.97986342606E+01 0.12962879469E+02 0.19281614266E+02 0.28776782157E+02
 0.40213596200E+02 0.51338115210E+02 0.59487848039E+02 0.62484569882E+02 0.59484525873E+02
 0.72471642708E+02 0.59497037650E+02 0.44316993674E+02 0.30152903362E+02 0.19281571496E+02
 0.12597225334E+02 0.95726215107E+01 0.85892541223E+01 0.81525067985E+01 0.81525872481E+01
 0.85892759437E+01 0.95722849269E+01 0.12596733223E+02 0.19281614174E+02 0.30153987618E+02
 0.44318898535E+02 0.59499004060E+02 0.72472993879E+02 0.79994072186E+02 0.79993609985E+02
 0.92779608792E+02 0.79989660576E+02 0.62497558147E+02 0.44318077081E+02 0.28775507357E+02
 0.17781042046E+02 0.11644768889E+02 0.92301295363E+01 0.84997917427E+01 0.82543534105E+01
 0.84999487113E+01 0.92300635075E+01 0.11644588710E+02 0.17781493629E+02 0.28776782331E+02
 0.44318898886E+02 0.62496256538E+02 0.79986346513E+02 0.92776695061E+02 0.97486270045E+02
 0.10763401824E+03 0.97481667307E+02 0.79990107448E+02 0.59500331585E+02 0.40213088893E+02
 0.25056297434E+02 0.15277060214E+02 0.10469934532E+02 0.88992199986E+01 0.84097548178E+01
 0.84098519521E+01 0.88993214393E+01 0.10469895645E+02 0.15277251878E+02 0.25057033153E+02
 0.40213596648E+02 0.59499004029E+02 0.79986345889E+02 0.97477264559E+02 0.10763204260E+03
 0.83334519572E+02 0.79286598087E+02 0.68287794969E+02 0.53256280195E+02 0.37690553203E+02
 0.24511389966E+02 0.15375736641E+02 0.10462175549E+02 0.86206483059E+01 0.79840133791E+01
 0.77570469574E+01 0.79840340127E+01 0.86206687531E+01 0.10462180507E+02 0.15375734057E+02
 0.24511397493E+02 0.37690572985E+02 0.53256296285E+02 0.68287795578E+02 0.79286590975E+02
 0.79287946723E+02 0.79286596972E+02 0.71761470649E+02 0.58789068260E+02 0.43625532045E+02
 0.29496650096E+02 0.18675632880E+02 0.12045571772E+02 0.90648265103E+01 0.81037313162E+01
 0.76760223836E+01 0.76759426920E+01 0.81036555589E+01 0.90649091745E+01 0.12045560524E+02
 0.18675249481E+02 0.29496360128E+02 0.43626433407E+02 0.58791614985E+02 0.71764469214E+02
 0.68289801330E+02 0.71783554639E+02 0.68287795557E+02 0.58789069586E+02 0.45814544829E+02
 0.32424604573E+02 0.21196682501E+02 0.13573564807E+02 0.96274137798E+01 0.82034360683E+01
 0.76254929192E+01 0.74167503614E+01 0.76253074242E+01 0.82034267470E+01 0.96275787662E+01
 0.13573346305E+02 0.21195845390E+02 0.32423990341E+02 0.45815363010E+02 0.58791312312E+02
 0.53255393840E+02 0.58846939386E+02 0.58847232385E+02 0.53256282765E+02 0.43625531074E+02
 0.32424603133E+02 0.22139992228E+02 0.14512841620E+02 0.10114313347E+02 0.82985355123E+01
 0.75994237268E+01 0.72288267199E+01 0.72287340364E+01 0.75993286783E+01 0.82986998265E+01
 0.10114610398E+02 0.14512764419E+02 0.22139175821E+02 0.32423234365E+02 0.43624175214E+02
 0.37687728234E+02 0.43728222477E+02 0.45955858564E+02 0.43730459249E+02 0.37690552952E+02
 0.29496647275E+02 0.21196683918E+02 0.14512843075E+02 0.10307415394E+02 0.83676491889E+01
 0.75888167996E+01 0.71139678664E+01 0.69498321784E+01 0.71139599314E+01 0.75888196087E+01
 0.83678711647E+01 0.10308087088E+02 0.14513666864E+02 0.21196684389E+02 0.29495004381E+02
 0.24511099537E+02 0.29648499343E+02 0.32661162790E+02 0.32661915810E+02 0.29649847749E+02
 0.24511388588E+02 0.18675633639E+02 0.13573567651E+02 0.10114311430E+02 0.83676477988E+01
 0.75862277799E+01 0.70615462966E+01 0.67914458419E+01 0.67915271488E+01 0.70615492370E+01
 0.75859431857E+01 0.83675732093E+01 0.10115214888E+02 0.13575302681E+02 0.18676903185E+02
 0.15377739809E+02 0.18867828655E+02 0.21520435695E+02 0.22510292143E+02 0.21519615666E+02
 0.18866191676E+02 0.15375735544E+02 0.12045573143E+02 0.96274124271E+01 0.82985328117E+01
 0.75888191929E+01 0.70615475481E+01 0.67410295842E+01 0.66358078350E+01 0.67412088983E+01
 0.70613400939E+01 0.75879806095E+01 0.82977085687E+01 0.96275787662E+01 0.12047005084E+02
 0.10462098383E+02 0.12254947640E+02 0.13952020539E+02 0.14984588946E+02 0.14983701166E+02
 0.13950090408E+02 0.12253512589E+02 0.10462174311E+02 0.90648274031E+01 0.82034348134E+01
 0.75994256475E+01 0.71139702663E+01 0.67914430479E+01 0.66358067795E+01 0.66359787707E+01
 0.67917429808E+01 0.71138778080E+01 0.75985083562E+01 0.82018504495E+01 0.90634713033E+01
 0.86184806232E+01 0.92698133521E+01 0.10018667052E+02 0.10634709070E+02 0.10873556095E+02
 0.10634110399E+02 0.10018666686E+02 0.92712375187E+01 0.86206501697E+01 0.81037325582E+01
 0.76254922337E+01 0.72288277645E+01 0.69498297794E+01 0.67915251713E+01 0.67412119625E+01
 0.67917437974E+01 0.69504887992E+01 0.72296364818E+01 0.76254898025E+01 0.81022998111E+01
 0.79839407971E+01 0.82993278377E+01 0.85824062900E+01 0.88223750737E+01 0.89718648582E+01
 0.89721537337E+01 0.88233489403E+01 0.85839719337E+01 0.83006774370E+01 0.79840155950E+01
 0.76760202182E+01 0.74167491799E+01 0.72287345490E+01 0.71139591742E+01 0.70615519513E+01
 0.70613415567E+01 0.71138746508E+01 0.72296359499E+01 0.74185019978E+01 0.76773916553E+01
 0.77590527089E+01 0.78681838328E+01 0.79928780687E+01 0.81117167098E+01 0.81983967507E+01
 0.82306015781E+01 0.81992157777E+01 0.81125278197E+01 0.79927148422E+01 0.78667604492E+01
 0.77570460021E+01 0.76759407673E+01 0.76253098554E+01 0.75993297595E+01 0.75888191929E+01
 0.75859435891E+01 0.75879778004E+01 0.75985075167E+01 0.76254929192E+01 0.76773918960E+01
 0.79839378197E+01 0.78681838257E+01 0.77808300098E+01 0.77344228031E+01 0.77221852894E+01
 0.77245647161E+01 0.77247678079E+01 0.77222611239E+01 0.77335336463E+01 0.77791125654E+01
 0.78668497732E+01 0.79840332512E+01 0.81036569988E+01 0.82034282494E+01 0.82986971834E+01
 0.83678701948E+01 0.83675736295E+01 0.82977086263E+01 0.82018532069E+01 0.81023000090E+01
 0.86184780135E+01 0.82993281447E+01 0.79928807550E+01 0.77344226430E+01 0.75573209763E+01
 0.74623048445E+01 0.74335816843E+01 0.74620940720E+01 0.75566662753E+01 0.77336092057E+01
 0.79928793830E+01 0.83007706525E+01 0.86206680072E+01 0.90649095265E+01 0.96275769679E+01
 0.10114609385E+02 0.10308089853E+02 0.10115215793E+02 0.96275783206E+01 0.90634707625E+01
 0.10462098839E+02 0.92698142440E+01 0.85824085636E+01 0.81117160458E+01 0.77221830416E+01
 0.74623051184E+01 0.73377821664E+01 0.73376203635E+01 0.74620173619E+01 0.77222599733E+01
 0.81125907652E+01 0.85839554282E+01 0.92711608086E+01 0.10462179724E+02 0.12045561041E+02
 0.13573346406E+02 0.14512766365E+02 0.14513667356E+02 0.13575299938E+02 0.12047004230E+02
 0.15377742393E+02 0.12254948389E+02 0.10018666501E+02 0.88223739466E+01 0.81983950028E+01
 0.77245656294E+01 0.74335834426E+01 0.73376200537E+01 0.74334171435E+01 0.77247776511E+01
 0.81992157777E+01 0.88231703221E+01 0.10018484308E+02 0.12253515869E+02 0.15375735544E+02
 0.18675250281E+02 0.21195844919E+02 0.22139175185E+02 0.21196682501E+02 0.18676903225E+02
 0.24511101216E+02 0.18867828128E+02 0.13952018184E+02 0.10634708420E+02 0.89718656048E+01
 0.82306028876E+01 0.77247689768E+01 0.74620930785E+01 0.74620160944E+01 0.77247779067E+01
 0.82309040927E+01 0.89719581992E+01 0.10633821649E+02 0.13950297034E+02 0.18866569238E+02
 0.24511397793E+02 0.29496358525E+02 0.32423989438E+02 0.32423234902E+02 0.29495005598E+02
 0.37687727618E+02 0.29648497648E+02 0.21520434373E+02 0.14984589833E+02 0.10873558169E+02
 0.89721543548E+01 0.81992148360E+01 0.77222597517E+01 0.75566656839E+01 0.77222608488E+01
 0.81992165839E+01 0.89719580737E+01 0.10872918640E+02 0.14983783289E+02 0.21520435499E+02
 0.29650145704E+02 0.37690572118E+02 0.43626433520E+02 0.45815364663E+02 0.43624176297E+02
 0.53255392328E+02 0.43728221311E+02 0.32661163579E+02 0.22510294155E+02 0.14983701967E+02
 0.10634109303E+02 0.88233472160E+01 0.81125272025E+01 0.77335347762E+01 0.77336104957E+01
 0.81125908120E+01 0.88231697250E+01 0.10633821203E+02 0.14983783203E+02 0.22511091197E+02
 0.32662505721E+02 0.43729571382E+02 0.53256297343E+02 0.58791615873E+02 0.58791311875E+02
 0.68289800720E+02 0.58846940202E+02 0.45955859892E+02 0.32661916959E+02 0.21519614540E+02
 0.13950088187E+02 0.10018666501E+02 0.85839731001E+01 0.79927162142E+01 0.77791132037E+01
 0.79928780687E+01 0.85839543211E+01 0.10018484673E+02 0.13950297169E+02 0.21520435695E+02
 0.32662506081E+02 0.45955019565E+02 0.58844688693E+02 0.68287795557E+02 0.71764467643E+02
 0.79287946965E+02 0.71783556737E+02 0.58847232570E+02 0.43730458056E+02 0.29649846526E+02
 0.18866190500E+02 0.12253514108E+02 0.92712398323E+01 0.83006770230E+01 0.78667593879E+01
 0.78668487191E+01 0.83007699315E+01 0.92711622304E+01 0.12253516638E+02 0.18866568589E+02
 0.29650146176E+02 0.43729571355E+02 0.58844688063E+02 0.71780547340E+02 0.79286590103E+02
 0.54321862380E+02 0.51665013675E+02 0.44460297391E+02 0.34680643847E+02 0.24726928625E+02
 0.16601252649E+02 0.11339558942E+02 0.88067315742E+01 0.78693664429E+01 0.73526412568E+01
 0.71708103267E+01 0.73526527468E+01 0.78693764043E+01 0.88067316163E+01 0.11339556368E+02
 0.16601259818E+02 0.24726945342E+02 0.34680656961E+02 0.44460297999E+02 0.51665008171E+02
 0.51665763995E+02 0.51665012558E+02 0.46719042184E+02 0.38231590188E+02 0.28432283466E+02
 0.19547569260E+02 0.13093327362E+02 0.94884343149E+01 0.80393918792E+01 0.73997210414E+01