    2    2    1    1
  0.8612543E+01  0.2236800E-09  0.2236800E-09  0.3975360E-09  0.5000000E-15
  1.000000000000000E-004
  CAR 
 unknown system                          
     16     96     40
 
  0.0000000E+00  0.0000000E+00  0.0000000E+00  0.7513148E-03
    1       -0.890855   1.000000
    2        2.970951   1.000000
    3        6.114609   1.000000
    4        6.972007   1.000000
    5        6.972023   1.000000
    6        7.358343   1.000000
    7        7.358360   1.000000
    8        8.054351   1.000000
    9        8.630509   1.016069
   10        8.630519   1.016071
   11        9.942511  -0.000000
   12        9.942522  -0.000000
   13       17.897448   0.000000
   14       33.991526   0.000000
   15       34.013812   0.000000
   16       37.388515   0.000000
   17       41.366510   0.000000
   18       41.366533   0.000000
   19       42.045237   0.000000
   20       42.045262   0.000000
   21       42.524202   0.000000
   22       44.070567   0.000000
   23       44.070576   0.000000
   24       45.152405   0.000000
   25       48.594986   0.000000
   26       48.594994   0.000000
   27       49.837354   0.000000
   28       53.818003   0.000000
   29       53.818063   0.000000
   30       55.301683   0.000000
   31       55.301735   0.000000
   32       58.399254   0.000000
   33       64.995377   0.000000
   34       65.895929   0.000000
   35       65.900410   0.000000
   36       65.900435   0.000000
   37       67.006932   0.000000
   38       69.986915   0.000000
   39       69.986953   0.000000
   40       72.635190   0.000000
 
  0.9090909E-01  0.1628592E-16  0.0000000E+00  0.4507889E-02
    1       -0.509974   1.000000
    2        3.264814   1.000000
    3        6.147426   1.000000
    4        6.874515   1.000000
    5        7.059773   1.000000
    6        7.207963   1.000000
    7        7.214589   1.000000
    8        7.584930   1.000000
    9        8.428129   1.000318
   10        8.486016   1.001259
   11        9.985431  -0.000000
   12       11.222033  -0.000000
   13       17.907887   0.000000
   14       33.110848   0.000000
   15       34.400943   0.000000
   16       36.134697   0.000000
   17       38.174605   0.000000
   18       39.653528   0.000000
   19       40.059506   0.000000
   20       42.370185   0.000000
   21       43.590813   0.000000
   22       45.147026   0.000000
   23       45.215429   0.000000
   24       45.852578   0.000000
   25       49.794308   0.000000
   26       49.942885   0.000000
   27       50.924025   0.000000
   28       51.165102   0.000000
   29       54.188805   0.000000
   30       57.026432   0.000000
   31       57.632896   0.000000
   32       59.809596   0.000000
   33       64.137035   0.000000
   34       64.772574   0.000000
   35       65.058350   0.000000
   36       66.026841   0.000000
   37       66.440598   0.000000
   38       70.230183   0.000000
   39       72.199334   0.000000
   40       72.623270   0.000000
 
  0.1818182E+00  0.1862744E-16  0.0000000E+00  0.4507889E-02
    1        0.550851   1.000000
    2        3.933869   1.000000
    3        5.747045   1.000000
    4        5.960124   1.000000
    5        6.631791   1.000000
    6        7.358505   1.000000
    7        7.903570   1.000000
    8        7.945076   1.000000
    9        8.143872   1.000000
   10        8.222347   1.000001
   11       10.052808  -0.000000
   12       13.326140  -0.000000
   13       17.981834   0.000000
   14       29.652246   0.000000
   15       34.815251   0.000000
   16       34.865872   0.000000
   17       35.026926   0.000000
   18       35.599777   0.000000
   19       40.915831   0.000000
   20       41.756062   0.000000
   21       42.491710   0.000000
   22       42.817586   0.000000
   23       46.473581   0.000000
   24       47.718741   0.000000
   25       50.597505   0.000000
   26       51.203593   0.000000
   27       52.550225   0.000000
   28       54.981124   0.000000
   29       57.950681   0.000000
   30       59.287819   0.000000
   31       60.334842   0.000000
   32       61.872242   0.000000
   33       62.936044   0.000000
   34       63.429840   0.000000
   35       63.973301   0.000000
   36       64.296190   0.000000
   37       67.928178   0.000000
   38       70.974475   0.000000
   39       72.537242   0.000000
   40       72.936149   0.000000
 
  0.2727273E+00  0.2797447E-16  0.0000000E+00  0.4507889E-02
    1        1.985602   1.000000
    2        4.149004   1.000000
    3        4.697471   1.000000
    4        5.971491   1.000000
    5        6.441950   1.000000
    6        7.349351   1.000000
    7        7.757546   1.000000
    8        8.337137   1.000025
    9        8.881474   0.872213
   10        9.115898   0.051702
   11       10.085510  -0.000000
   12       15.658675   0.000000
   13       18.156096   0.000000
   14       25.504080   0.000000
   15       31.125704   0.000000
   16       32.298837   0.000000
   17       33.293404   0.000000
   18       35.563357   0.000000
   19       39.415017   0.000000
   20       42.121444   0.000000
   21       42.228059   0.000000
   22       42.782385   0.000000
   23       43.937687   0.000000
   24       47.505350   0.000000
   25       54.119218   0.000000
   26       55.546941   0.000000
   27       56.309739   0.000000
   28       57.742654   0.000000
   29       58.443755   0.000000
   30       59.879952   0.000000
   31       61.482509   0.000000
   32       62.662567   0.000000
   33       63.278570   0.000000
   34       63.416358   0.000000
   35       64.448895   0.000000
   36       67.623918   0.000000
   37       68.205793   0.000000
   38       71.647965   0.000000
   39       72.119982   0.000000
   40       72.860629   0.000000
 
  0.3636364E+00  0.2015745E-16  0.0000000E+00  0.4507889E-02
    1        3.074361   1.000000
    2        3.785095   1.000000
    3        3.982676   1.000000
    4        6.234607   1.000000
    5        6.831020   1.000000
    6        7.013111   1.000000
    7        7.440816   1.000000
    8        9.875242  -0.000000
    9        9.921914  -0.000000
   10       10.021942  -0.000000
   11       10.086635  -0.000000
   12       17.942754   0.000000
   13       18.115124   0.000000
   14       22.475979   0.000000
   15       27.685597   0.000000
   16       30.199942   0.000000
   17       30.514253   0.000000
   18       34.722454   0.000000
   19       38.272060   0.000000
   20       41.671919   0.000000
   21       41.935144   0.000000
   22       43.817589   0.000000
   23       44.198569   0.000000
   24       47.514620   0.000000
   25       55.204018   0.000000
   26       56.860403   0.000000
   27       57.526283   0.000000
   28       60.776192   0.000000
   29       60.819849   0.000000
   30       61.048039   0.000000
   31       62.229880   0.000000
   32       63.863573   0.000000
   33       64.435347   0.000000
   34       65.236711   0.000000
   35       65.893471   0.000000
   36       67.628278   0.000000
   37       71.485214   0.000000
   38       72.425056   0.000000
   39       72.540548   0.000000
   40       72.624802   0.000000
 
  0.4545455E+00  0.2943786E-16  0.0000000E+00  0.4507889E-02
    1        3.258398   1.000000
    2        3.615816   1.000000
    3        3.622805   1.000000
    4        6.533258   1.000000
    5        6.947514   1.000000
    6        7.264956   1.000000
    7        7.314722   1.000000
    8       10.080205  -0.000000
    9       10.495835  -0.000000
   10       10.633012  -0.000000
   11       11.966870  -0.000000
   12       15.938144   0.000000
   13       20.398741   0.000000
   14       22.385690   0.000000
   15       24.944652   0.000000
   16       27.740485   0.000000
   17       29.011375   0.000000
   18       34.050786   0.000000
   19       37.890419   0.000000
   20       40.373359   0.000000
   21       41.841712   0.000000
   22       44.879835   0.000000
   23       46.577482   0.000000
   24       47.141800   0.000000
   25       51.857910   0.000000
   26       57.941915   0.000000
   27       58.481403   0.000000
   28       61.686958   0.000000
   29       62.119355   0.000000
   30       63.298372   0.000000
   31       64.173489   0.000000
   32       64.453694   0.000000
   33       65.508545   0.000000
   34       67.536427   0.000000
   35       68.093109   0.000000
   36       70.327997   0.000000
   37       71.033603   0.000000
   38       71.119366   0.000000
   39       74.007173   0.000000
   40       74.336298   0.000000
 
  0.9090909E-01  0.9090909E-01  0.0000000E+00  0.4507889E-02
    1        0.215418   1.000000
    2        3.775458   1.000000
    3        5.987387   1.000000
    4        6.096958   1.000000
    5        6.927138   1.000000
    6        6.935448   1.000000
    7        7.720689   1.000000
    8        7.915927   1.000000
    9        8.083333   1.000000
   10        8.433778   1.000367
   11        9.994678  -0.000000
   12       12.744775  -0.000000
   13       17.955948   0.000000
   14       31.279688   0.000000
   15       33.083864   0.000000
   16       35.019476   0.000000
   17       36.591977   0.000000
   18       38.825164   0.000000
   19       38.950173   0.000000
   20       40.831701   0.000000
   21       41.959185   0.000000
   22       46.640363   0.000000
   23       47.422614   0.000000
   24       48.427748   0.000000
   25       48.702027   0.000000
   26       49.504521   0.000000
   27       49.691047   0.000000
   28       55.417258   0.000000
   29       57.786045   0.000000
   30       58.692983   0.000000
   31       58.891050   0.000000
   32       61.484522   0.000000
   33       62.220331   0.000000
   34       64.264386   0.000000
   35       64.418971   0.000000
   36       65.540544   0.000000
   37       66.179826   0.000000
   38       71.389947   0.000000
   39       72.326129   0.000000
   40       73.534402   0.000000
 
  0.1818182E+00  0.9090909E-01  0.0000000E+00  0.9015778E-02
    1        1.504977   1.000000
    2        4.380651   1.000000
    3        5.083081   1.000000
    4        5.641888   1.000000
    5        6.547139   1.000000
    6        7.343691   1.000000
    7        7.500668   1.000000
    8        8.103057   1.000000
    9        8.622217   1.014426
   10        9.012479   0.373684
   11        9.986970  -0.000000
   12       14.851923   0.000000
   13       18.135810   0.000000
   14       27.615252   0.000000
   15       30.495266   0.000000
   16       32.969615   0.000000
   17       35.171881   0.000000
   18       36.448065   0.000000
   19       39.762040   0.000000
   20       39.827377   0.000000
   21       41.284026   0.000000
   22       46.093981   0.000000
   23       46.424214   0.000000
   24       48.040047   0.000000
   25       50.988406   0.000000
   26       51.604222   0.000000
   27       53.920099   0.000000
   28       58.359053   0.000000
   29       59.825355   0.000000
   30       60.152374   0.000000
   31       60.980915   0.000000
   32       62.383574   0.000000
   33       62.668195   0.000000
   34       63.688790   0.000000
   35       65.064634   0.000000
   36       65.361128   0.000000
   37       67.092814   0.000000
   38       71.841060   0.000000
   39       72.010798   0.000000
   40       73.457255   0.000000
 
  0.2727273E+00  0.9090909E-01  0.0000000E+00  0.9015778E-02
    1        2.897993   1.000000
    2        4.195891   1.000000
    3        4.301547   1.000000
    4        5.812439   1.000000
    5        6.673601   1.000000
    6        6.874846   1.000000
    7        7.632593   1.000000
    8        8.505688   1.001924
    9        9.611386  -0.000040
   10        9.968032  -0.000000
   11       10.223583  -0.000000
   12       17.219125   0.000000
   13       18.425258   0.000000
   14       23.761421   0.000000
   15       28.613153   0.000000
   16       29.474091   0.000000
   17       33.100621   0.000000
   18       34.090620   0.000000
   19       39.268207   0.000000
   20       40.569021   0.000000
   21       41.180726   0.000000
   22       45.555103   0.000000
   23       45.645178   0.000000
   24       48.846406   0.000000
   25       53.148277   0.000000
   26       55.570435   0.000000
   27       57.042343   0.000000
   28       57.288938   0.000000
   29       59.361199   0.000000
   30       61.548843   0.000000
   31       61.682211   0.000000
   32       64.025050   0.000000
   33       64.825173   0.000000
   34       65.342374   0.000000
   35       65.678611   0.000000
   36       66.924476   0.000000
   37       70.920660   0.000000
   38       71.357010   0.000000
   39       71.739336   0.000000
   40       73.737825   0.000000
 
  0.3636364E+00  0.9090909E-01  0.0000000E+00  0.9015778E-02
    1        3.515615   1.000000
    2        3.822291   1.000000
    3        3.869236   1.000000
    4        6.404025   1.000000
    5        6.585442   1.000000
    6        7.158093   1.000000
    7        7.232307   1.000000
    8        9.685212  -0.000004
    9        9.941973  -0.000000
   10       10.293790  -0.000000
   11       11.719405  -0.000000
   12       17.484051   0.000000
   13       19.669213   0.000000
   14       22.193700   0.000000
   15       26.366143   0.000000
   16       27.103336   0.000000
   17       29.733910   0.000000
   18       33.098255   0.000000
   19       38.309993   0.000000
   20       40.065070   0.000000
   21       42.589907   0.000000
   22       45.747350   0.000000
   23       46.563095   0.000000
   24       48.211356   0.000000
   25       53.812004   0.000000
   26       55.805808   0.000000
   27       57.647557   0.000000
   28       59.263493   0.000000
   29       61.333137   0.000000
   30       62.275984   0.000000
   31       63.155530   0.000000
   32       64.186702   0.000000
   33       64.632726   0.000000
   34       67.696730   0.000000
   35       68.985107   0.000000
   36       69.042683   0.000000
   37       69.921966   0.000000
   38       72.776487   0.000000
   39       73.124897   0.000000
   40       74.394503   0.000000
 
  0.4545455E+00  0.9090909E-01  0.0000000E+00  0.4507889E-02
    1        3.473983   1.000000
    2        3.662149   1.000000
    3        3.844190   1.000000
    4        6.494677   1.000000
    5        6.909214   1.000000
    6        7.073533   1.000000
    7        7.277709   1.000000
    8        9.930573  -0.000000
    9       10.359586  -0.000000
   10       10.393795  -0.000000
   11       13.116995  -0.000000
   12       15.685788   0.000000
   13       21.319514   0.000000
   14       22.836504   0.000000
   15       24.512317   0.000000
   16       26.205352   0.000000
   17       28.173951   0.000000
   18       32.737329   0.000000
   19       37.889109   0.000000
   20       39.903247   0.000000
   21       42.940048   0.000000
   22       46.439198   0.000000
   23       47.170011   0.000000
   24       48.146006   0.000000
   25       51.718708   0.000000
   26       57.105484   0.000000
   27       58.109990   0.000000
   28       59.767360   0.000000
   29       62.348598   0.000000
   30       62.719288   0.000000
   31       64.408834   0.000000
   32       64.517974   0.000000
   33       65.328009   0.000000
   34       66.956367   0.000000
   35       69.600576   0.000000
   36       71.622427   0.000000
   37       71.651810   0.000000
   38       71.880022   0.000000
   39       72.383117   0.000000
   40       75.567691   0.000000
 
  0.1818182E+00  0.1818182E+00  0.0000000E+00  0.4507889E-02
    1        2.875555   1.000000
    2        4.489639   1.000000
    3        4.895535   1.000000
    4        5.073047   1.000000
    5        6.652127   1.000000
    6        6.771203   1.000000
    7        7.800782   1.000000
    8        7.804686   1.000000
    9        9.580269  -0.000099
   10        9.832446  -0.000000
   11       10.311720  -0.000000
   12       16.939042   0.000000
   13       18.618876   0.000000
   14       25.424913   0.000000
   15       26.505078   0.000000
   16       30.895911   0.000000
   17       32.877629   0.000000
   18       35.626989   0.000000
   19       36.360489   0.000000
   20       40.568648   0.000000
   21       42.769421   0.000000
   22       47.446421   0.000000
   23       48.036281   0.000000
   24       49.599696   0.000000
   25       50.655147   0.000000
   26       52.813518   0.000000
   27       54.037611   0.000000
   28       58.599894   0.000000
   29       60.373080   0.000000
   30       60.593793   0.000000
   31       61.069637   0.000000
   32       64.181856   0.000000
   33       64.245733   0.000000
   34       65.628351   0.000000
   35       66.762065   0.000000
   36       68.291667   0.000000
   37       68.469767   0.000000
   38       71.010385   0.000000
   39       71.523017   0.000000
   40       74.634264   0.000000
 
  0.2727273E+00  0.1818182E+00  0.0000000E+00  0.9015778E-02
    1        4.064726   1.000000
    2        4.091936   1.000000
    3        4.475778   1.000000
    4        5.447481   1.000000
    5        6.445642   1.000000
    6        7.012898   1.000000
    7        7.289094   1.000000
    8        8.537923   1.003664
    9        9.701987  -0.000002
   10       10.206476  -0.000000
   11       11.910316  -0.000000
   12       19.137259   0.000000
   13       19.337591   0.000000
   14       22.442460   0.000000
   15       24.662437   0.000000
   16       28.299029   0.000000
   17       31.058942   0.000000
   18       31.974498   0.000000
   19       35.035065   0.000000
   20       42.874943   0.000000
   21       43.307066   0.000000
   22       47.283423   0.000000
   23       49.188542   0.000000
   24       51.036797   0.000000
   25       51.858397   0.000000
   26       53.794059   0.000000
   27       55.296547   0.000000
   28       56.656481   0.000000
   29       59.708669   0.000000
   30       61.384188   0.000000
   31       63.250599   0.000000
   32       64.047112   0.000000
   33       64.818588   0.000000
   34       67.349979   0.000000
   35       68.832063   0.000000
   36       69.096666   0.000000
   37       71.111328   0.000000
   38       72.025159   0.000000
   39       74.014734   0.000000
   40       75.646994   0.000000
 
  0.3636364E+00  0.1818182E+00  0.0000000E+00  0.9015778E-02
    1        3.902024   1.000000
    2        4.122985   1.000000
    3        4.416358   1.000000
    4        6.140468   1.000000
    5        6.425329   1.000000
    6        6.797766   1.000000
    7        7.348287   1.000000
    8        9.449824  -0.002317
    9        9.628124  -0.000024
   10       10.205895  -0.000000
   11       13.769813  -0.000000
   12       17.273169   0.000000
   13       21.765424   0.000000
   14       22.694049   0.000000
   15       23.735267   0.000000
   16       25.586478   0.000000
   17       28.868403   0.000000
   18       30.312817   0.000000
   19       34.357055   0.000000
   20       43.347804   0.000000
   21       45.032690   0.000000
   22       47.405974   0.000000
   23       48.709819   0.000000
   24       50.005547   0.000000
   25       54.103337   0.000000
   26       54.427284   0.000000
   27       56.059571   0.000000
   28       57.098989   0.000000
   29       61.126150   0.000000
   30       61.781540   0.000000
   31       62.624201   0.000000
   32       64.601925   0.000000
   33       64.702544   0.000000
   34       65.861778   0.000000
   35       69.561075   0.000000
   36       71.158103   0.000000
   37       72.282770   0.000000
   38       73.489722   0.000000
   39       74.063407   0.000000
   40       74.504258   0.000000
 
  0.2727273E+00  0.2727273E+00  0.0000000E+00  0.4507889E-02
    1        4.070455   1.000000
    2        4.709612   1.000000
    3        5.086469   1.000000
    4        5.177285   1.000000
    5        6.250299   1.000000
    6        6.779862   1.000000
    7        7.392444   1.000000
    8        8.869786   0.902381
    9        9.470746  -0.001491
   10       10.159828  -0.000000
   11       13.949560  -0.000000
   12       19.555937   0.000000
   13       20.174206   0.000000
   14       21.820761   0.000000
   15       23.611122   0.000000
   16       27.486748   0.000000
   17       28.027839   0.000000
   18       30.696502   0.000000
   19       31.606673   0.000000
   20       44.602307   0.000000
   21       45.625630   0.000000
   22       50.167079   0.000000
   23       51.166295   0.000000
   24       51.297841   0.000000
   25       51.701078   0.000000
   26       52.171623   0.000000
   27       55.294400   0.000000
   28       57.725001   0.000000
   29       57.866727   0.000000
   30       61.353019   0.000000
   31       62.088401   0.000000
   32       64.849709   0.000000
   33       64.935955   0.000000
   34       65.727502   0.000000
   35       69.922180   0.000000
   36       71.109965   0.000000
   37       71.248665   0.000000
   38       72.459003   0.000000
   39       74.207354   0.000000
   40       75.973905   0.000000
 
  0.3636364E+00  0.2727273E+00  0.0000000E+00  0.4507889E-02
    1        4.098394   1.000000
    2        4.816659   1.000000
    3        4.975710   1.000000
    4        5.574078   1.000000
    5        6.343157   1.000000
    6        6.390957   1.000000
    7        7.570780   1.000000
    8        9.352526  -0.012535
    9        9.382758  -0.007929
   10        9.746087  -0.000000
   11       15.853275   0.000000
   12       17.505522   0.000000
   13       19.782825   0.000000
   14       23.980124   0.000000
   15       24.598403   0.000000
   16       25.440548   0.000000
   17       27.470050   0.000000
   18       28.926086   0.000000
   19       30.970376   0.000000
   20       44.909798   0.000000
   21       48.174638   0.000000
   22       49.374839   0.000000
   23       50.275439   0.000000
   24       50.917614   0.000000
   25       52.345561   0.000000
   26       53.628566   0.000000
   27       56.996278   0.000000
   28       57.367603   0.000000
   29       57.702667   0.000000
   30       61.059802   0.000000
   31       61.797662   0.000000
   32       62.482824   0.000000
   33       64.968617   0.000000
   34       65.372250   0.000000
   35       69.249798   0.000000
   36       71.232878   0.000000
   37       72.891472   0.000000
   38       73.551638   0.000000
   39       74.050768   0.000000
   40       74.896392   0.000000
 
  0.0000000E+00  0.0000000E+00  0.9090909E-01  0.1502630E-02
    1       -0.799932   1.000000
    2        2.953183   1.000000
    3        6.089571   1.000000
    4        6.962785   1.000000
    5        6.962801   1.000000
    6        7.337891   1.000000
    7        7.337908   1.000000
    8        7.818468   1.000000
    9        8.676388   1.026328
   10        8.676398   1.026331
   11        9.931261  -0.000000
   12        9.931272  -0.000000
   13       18.285182   0.000000
   14       33.155708   0.000000
   15       34.408900   0.000000
   16       37.199205   0.000000
   17       41.380986   0.000000
   18       41.381009   0.000000
   19       42.038212   0.000000
   20       42.038236   0.000000
   21       42.960454   0.000000
   22       44.075543   0.000000
   23       44.075553   0.000000
   24       45.455587   0.000000
   25       48.332188   0.000000
   26       48.332199   0.000000
   27       50.109295   0.000000
   28       54.032079   0.000000
   29       54.032138   0.000000
   30       55.636243   0.000000
   31       55.636293   0.000000
   32       58.148189   0.000000
   33       64.470635   0.000000
   34       65.207119   0.000000
   35       65.790193   0.000000
   36       65.790219   0.000000
   37       68.622102   0.000000
   38       69.092186   0.000000
   39       69.092225   0.000000
   40       70.856127   0.000000
 
  0.9090909E-01  0.1628592E-16  0.9090909E-01  0.9015778E-02
    1       -0.421721   1.000000
    2        3.251557   1.000000
    3        6.132580   1.000000
    4        6.837698   1.000000
    5        6.862297   1.000000
    6        7.201661   1.000000
    7        7.264966   1.000000
    8        7.562087   1.000000
    9        8.481912   1.001149
   10        8.539284   1.003760
   11        9.969139  -0.000000
   12       11.060984  -0.000000
   13       18.326236   0.000000
   14       32.943567   0.000000
   15       34.069951   0.000000
   16       36.070903   0.000000
   17       38.239658   0.000000
   18       39.121250   0.000000
   19       40.619500   0.000000
   20       42.500794   0.000000
   21       43.357796   0.000000
   22       45.251095   0.000000
   23       45.291837   0.000000
   24       46.072604   0.000000
   25       49.471587   0.000000
   26       49.822599   0.000000
   27       51.378377   0.000000
   28       51.587475   0.000000
   29       54.102383   0.000000
   30       57.216066   0.000000
   31       57.869281   0.000000
   32       59.559910   0.000000
   33       62.916268   0.000000
   34       64.857954   0.000000
   35       64.956203   0.000000
   36       65.921470   0.000000
   37       67.436319   0.000000
   38       69.483995   0.000000
   39       70.754177   0.000000
   40       71.024067   0.000000
 
  0.1818182E+00  0.1862744E-16  0.9090909E-01  0.9015778E-02
    1        0.628179   1.000000
    2        3.935263   1.000000
    3        5.651030   1.000000
    4        5.981938   1.000000
    5        6.591046   1.000000
    6        7.272452   1.000000
    7        7.846864   1.000000
    8        8.081917   1.000000
    9        8.145380   1.000000
   10        8.301573   1.000008
   11       10.028842  -0.000000
   12       12.962129  -0.000000
   13       18.526056   0.000000
   14       29.707608   0.000000
   15       34.014490   0.000000
   16       35.123653   0.000000
   17       35.143287   0.000000
   18       35.507734   0.000000
   19       40.453825   0.000000
   20       41.838904   0.000000
   21       42.441517   0.000000
   22       43.271951   0.000000
   23       46.745632   0.000000
   24       48.216214   0.000000
   25       50.847423   0.000000
   26       51.148692   0.000000
   27       52.387036   0.000000
   28       55.069883   0.000000
   29       57.403439   0.000000
   30       59.691395   0.000000
   31       60.558096   0.000000
   32       61.219771   0.000000
   33       62.252990   0.000000
   34       63.214597   0.000000
   35       64.314728   0.000000
   36       65.165111   0.000000
   37       67.901993   0.000000
   38       70.448840   0.000000
   39       70.921562   0.000000
   40       72.715719   0.000000
 
  0.2727273E+00  0.2797447E-16  0.9090909E-01  0.9015778E-02
    1        2.029841   1.000000
    2        4.157143   1.000000
    3        4.674815   1.000000
    4        5.960719   1.000000
    5        6.400853   1.000000
    6        7.389830   1.000000
    7        7.784659   1.000000
    8        8.379254   1.000086
    9        8.894313   0.835187
   10        9.098558   0.088433
   11       10.058482  -0.000000
   12       14.941395   0.000000
   13       18.999923   0.000000
   14       25.572088   0.000000
   15       30.774617   0.000000
   16       32.423236   0.000000
   17       33.486390   0.000000
   18       35.444809   0.000000
   19       39.083316   0.000000
   20       41.403691   0.000000
   21       41.410186   0.000000
   22       43.774219   0.000000
   23       44.790902   0.000000
   24       48.192060   0.000000
   25       54.246282   0.000000
   26       55.229159   0.000000
   27       55.941850   0.000000
   28       56.064245   0.000000
   29       59.863485   0.000000
   30       60.274248   0.000000
   31       61.698850   0.000000
   32       62.699698   0.000000
   33       62.784167   0.000000
   34       63.471220   0.000000
   35       64.903276   0.000000
   36       67.161866   0.000000
   37       68.309355   0.000000
   38       71.061440   0.000000
   39       71.186325   0.000000
   40       73.610108   0.000000
 
  0.3636364E+00  0.2015745E-16  0.9090909E-01  0.9015778E-02
    1        3.032813   1.000000
    2        3.723440   1.000000
    3        4.137938   1.000000
    4        5.916023   1.000000
    5        6.986765   1.000000
    6        7.253961   1.000000
    7        7.482882   1.000000
    8        9.869572  -0.000000
    9        9.874855  -0.000000
   10        9.919813  -0.000000
   11       10.135536  -0.000000
   12       16.507894   0.000000
   13       19.563160   0.000000
   14       22.577119   0.000000
   15       27.376671   0.000000
   16       30.336505   0.000000
   17       30.831520   0.000000
   18       34.729631   0.000000
   19       38.190000   0.000000
   20       40.237730   0.000000
   21       42.212729   0.000000
   22       43.380086   0.000000
   23       45.257391   0.000000
   24       48.293690   0.000000
   25       53.979373   0.000000
   26       57.307215   0.000000
   27       57.979003   0.000000
   28       59.526972   0.000000
   29       60.367333   0.000000
   30       62.037486   0.000000
   31       62.586442   0.000000
   32       64.000886   0.000000
   33       64.589375   0.000000
   34       65.347000   0.000000
   35       65.882502   0.000000
   36       67.548024   0.000000
   37       70.505670   0.000000
   38       71.919966   0.000000
   39       72.428684   0.000000
   40       73.413747   0.000000
 
  0.4545455E+00  0.2943786E-16  0.9090909E-01  0.9015778E-02
    1        3.217403   1.000000
    2        3.348130   1.000000
    3        3.996927   1.000000
    4        5.990810   1.000000
    5        7.212970   1.000000
    6        7.309546   1.000000
    7        7.697575   1.000000
    8       10.003571  -0.000000
    9       10.500979  -0.000000
   10       10.633184  -0.000000
   11       11.853156  -0.000000
   12       15.704761   0.000000
   13       20.360573   0.000000
   14       22.369029   0.000000
   15       25.101166   0.000000
   16       28.056517   0.000000
   17       29.157896   0.000000
   18       34.086907   0.000000
   19       37.846948   0.000000
   20       39.315390   0.000000
   21       42.839684   0.000000