 vasp.6.2.0 18Jan21 (build Mar 17 2021 09:06:54) complex                        
  
 executed on             LinuxIFC date 2021.09.09  11:58:30
 serial version


--------------------------------------------------------------------------------------------------------


 INCAR:
   ENCUT = 280.000000
   SIGMA = 0.200000
   EDIFF = 1.00e-06
   GGA = PE
   PREC = normal
   IBRION = 1
   ICHARG = 1
   ISIF = 2
   ISMEAR = 1
   KPAR = 1
   NBANDS = 40
   NSW = 0
   NCORE = 1
   LCHARG = .TRUE.

 POTCAR:    PAW_PBE Fe 06Sep2000                  
 POTCAR:    PAW_PBE Fe 06Sep2000                  
   SHA256 =  cd5a22d9368cc8b5cc476bea79732366149640da08ac9009b0e1b7fc627eea28 Fe/POTCAR             
   COPYR  = (c) Copyright 06Sep2000 Georg Kresse                                                    
   COPYR  = This file is part of the software VASP. Any use, copying, and all other rights are regul
   COPYR  = If you do not have a valid VASP license, you may not use, copy or distribute this file. 
   VRHFIN =Fe:  d7 s1                                                                               
   LEXCH  = PE                                                                                      
   EATOM  =   594.3153 eV,   43.6809 Ry                                                             
                                                                                                    
   TITEL  = PAW_PBE Fe 06Sep2000                                                                    
   LULTRA =        F    use ultrasoft PP ?                                                          
   IUNSCR =        1    unscreen: 0-lin 1-nonlin 2-no                                               
   RPACOR =    2.000    partial core radius                                                         
   POMASS =   55.847; ZVAL   =    8.000    mass and valenz                                          
   RCORE  =    2.300    outmost cutoff radius                                                       
   RWIGS  =    2.460; RWIGS  =    1.302    wigner-seitz radius (au A)                               
   ENMAX  =  267.882; ENMIN  =  200.911 eV                                                          
   RCLOC  =    1.701    cutoff for local pot                                                        
   LCOR   =        T    correct aug charges                                                         
   LPAW   =        T    paw PP                                                                      
   EAUG   =  511.368                                                                                
   DEXC   =    0.000                                                                                
   RMAX   =    2.356    core radius for proj-oper                                                   
   RAUG   =    1.300    factor for augmentation sphere                                              
   RDEP   =    2.442    radius for radial grids                                                     
   RDEPT  =    1.890    core radius for aug-charge                                                  
                                                                                                    
   Atomic configuration                                                                             
    9 entries                                                                                       
     n  l   j            E        occ.                                                              
     1  0  0.50     -6993.8440   2.0000                                                             
     2  0  0.50      -814.6047   2.0000                                                             
     2  1  1.50      -693.3689   6.0000                                                             
     3  0  0.50       -89.4732   2.0000                                                             
     3  1  1.50       -55.6373   6.0000                                                             
     3  2  2.50        -3.8151   7.0000                                                             
     4  0  0.50        -4.2551   1.0000                                                             
     4  1  1.50        -3.4015   0.0000                                                             
     4  3  2.50        -1.3606   0.0000                                                             
   Description                                                                                      
     l       E           TYP  RCUT    TYP  RCUT                                                     
     2     -3.8151135     23  2.300                                                                 
     2     -5.1756961     23  2.300                                                                 
     0     -4.2550963     23  2.300                                                                 
     0      7.2035603     23  2.300                                                                 
     1     -2.7211652     23  2.300                                                                 
     1     18.4316424     23  2.300                                                                 
  local pseudopotential read in
  partial core-charges read in
  partial kinetic energy density read in
  atomic valenz-charges read in
  non local Contribution for L=           2  read in
    real space projection operators read in
  non local Contribution for L=           2  read in
    real space projection operators read in
  non local Contribution for L=           0  read in
    real space projection operators read in
  non local Contribution for L=           0  read in
    real space projection operators read in
  non local Contribution for L=           1  read in
    real space projection operators read in
  non local Contribution for L=           1  read in
    real space projection operators read in
    PAW grid and wavefunctions read in
 
   number of l-projection  operators is LMAX  =           6
   number of lm-projection operators is LMMAX =          18
 
  PAW_PBE Fe 06Sep2000                  :
 energy of atom  1       EATOM= -594.3153
 kinetic energy error for atom=    0.0278 (will be added to EATOM!!)
 
 
 POSCAR: Fe
  positions in cartesian coordinates
  No initial velocities read in
 exchange correlation table for  LEXCH =        8
   RHO(1)=    0.500       N(1)  =     2000
   RHO(2)=  100.500       N(2)  =     4000
 


--------------------------------------------------------------------------------------------------------


 ion  position               nearest neighbor table
   1  0.000  0.000  0.000-   2 2.37   2 2.37   2 2.37   2 2.37   2 2.37   2 2.37
   2  0.333  0.667  0.500-   1 2.37   1 2.37   1 2.37   1 2.37   1 2.37   1 2.37
 
  LATTYP: Found a hexagonal cell.
 ALAT       =     2.2368000000
 C/A-ratio  =     1.7772532189
  
  Lattice vectors:
  
 A1 = (   2.2368000000,   0.0000000000,   0.0000000000)
 A2 = (  -1.1184000000,   1.9371256232,   0.0000000000)
 A3 = (   0.0000000000,   0.0000000000,   3.9753600000)


Analysis of symmetry for initial positions (statically):
=====================================================================
 Subroutine PRICEL returns:
 Original cell was already a primitive cell.
 

 Routine SETGRP: Setting up the symmetry group for a 
 hexagonal supercell.


 Subroutine GETGRP returns: Found 24 space group operations
 (whereof 12 operations were pure point group operations)
 out of a pool of 24 trial point group operations.


The static configuration has the point symmetry D_3h.
 The point group associated with its full space group is D_6h.


Analysis of symmetry for dynamics (positions and initial velocities):
=====================================================================
 Subroutine PRICEL returns:
 Original cell was already a primitive cell.
 

 Routine SETGRP: Setting up the symmetry group for a 
 hexagonal supercell.


 Subroutine GETGRP returns: Found 24 space group operations
 (whereof 12 operations were pure point group operations)
 out of a pool of 24 trial point group operations.


The dynamic configuration has the point symmetry D_3h.
 The point group associated with its full space group is D_6h.


 Subroutine INISYM returns: Found 24 space group operations
 (whereof 12 operations are pure point group operations),
 and found     1 'primitive' translations


----------------------------------------------------------------------------------------

                                     Primitive cell                                     

  volume of cell :      17.2251

  direct lattice vectors                    reciprocal lattice vectors
     2.236800000  0.000000000  0.000000000     0.447067239  0.258114391  0.000000000
    -1.118400000  1.937125623  0.000000000     0.000000000  0.516228781  0.000000000
     0.000000000  0.000000000  3.975360000     0.000000000  0.000000000  0.251549545

  length of vectors
     2.236800000  2.236800000  3.975360000     0.516228781  0.516228781  0.251549545

  position of ions in fractional coordinates (direct lattice)
     0.000000000  0.000000000  0.000000000
     0.333333333  0.666666667  0.500000000

  ion indices of the primitive-cell ions
   primitive index   ion index
                 1           1
                 2           2

----------------------------------------------------------------------------------------

 
 
 KPOINTS: KPOINTS created by Atomic Simulation Env

Automatic generation of k-mesh.
 Grid dimensions read from file:
 generate k-points for:   11   11   11

 Generating k-lattice:

  Cartesian coordinates                     Fractional coordinates (reciprocal lattice)
     0.040642476  0.023464945  0.000000000     0.090909091  0.000000000  0.000000000
     0.000000000  0.046929889  0.000000000     0.000000000  0.090909091  0.000000000
     0.000000000  0.000000000  0.022868140     0.000000000  0.000000000  0.090909091

  Length of vectors
     0.046929889  0.046929889  0.022868140

  Shift w.r.t. Gamma in fractional coordinates (k-lattice)
     0.000000000  0.000000000  0.000000000

 
 Subroutine IBZKPT returns following result:
 ===========================================
 
 Found     96 irreducible k-points:
 
 Following reciprocal coordinates:
            Coordinates               Weight
  0.000000  0.000000  0.000000      1.000000
  0.090909  0.000000  0.000000      6.000000
  0.181818  0.000000  0.000000      6.000000
  0.272727  0.000000  0.000000      6.000000
  0.363636  0.000000  0.000000      6.000000
  0.454545  0.000000  0.000000      6.000000
  0.090909  0.090909  0.000000      6.000000
  0.181818  0.090909  0.000000     12.000000
  0.272727  0.090909  0.000000     12.000000
  0.363636  0.090909  0.000000     12.000000
  0.454545  0.090909  0.000000      6.000000
  0.181818  0.181818  0.000000      6.000000
  0.272727  0.181818  0.000000     12.000000
  0.363636  0.181818  0.000000     12.000000
  0.272727  0.272727  0.000000      6.000000
  0.363636  0.272727  0.000000      6.000000
  0.000000  0.000000  0.090909      2.000000
  0.090909  0.000000  0.090909     12.000000
  0.181818  0.000000  0.090909     12.000000
  0.272727  0.000000  0.090909     12.000000
  0.363636  0.000000  0.090909     12.000000
  0.454545  0.000000  0.090909     12.000000
  0.090909  0.090909  0.090909     12.000000
  0.181818  0.090909  0.090909     24.000000
  0.272727  0.090909  0.090909     24.000000
  0.363636  0.090909  0.090909     24.000000
  0.454545  0.090909  0.090909     12.000000
  0.181818  0.181818  0.090909     12.000000
  0.272727  0.181818  0.090909     24.000000
  0.363636  0.181818  0.090909     24.000000
  0.272727  0.272727  0.090909     12.000000
  0.363636  0.272727  0.090909     12.000000
  0.000000  0.000000  0.181818      2.000000
  0.090909  0.000000  0.181818     12.000000
  0.181818  0.000000  0.181818     12.000000
  0.272727  0.000000  0.181818     12.000000
  0.363636  0.000000  0.181818     12.000000
  0.454545  0.000000  0.181818     12.000000
  0.090909  0.090909  0.181818     12.000000
  0.181818  0.090909  0.181818     24.000000
  0.272727  0.090909  0.181818     24.000000
  0.363636  0.090909  0.181818     24.000000
  0.454545  0.090909  0.181818     12.000000
  0.181818  0.181818  0.181818     12.000000
  0.272727  0.181818  0.181818     24.000000
  0.363636  0.181818  0.181818     24.000000
  0.272727  0.272727  0.181818     12.000000
  0.363636  0.272727  0.181818     12.000000
  0.000000  0.000000  0.272727      2.000000
  0.090909  0.000000  0.272727     12.000000
  0.181818  0.000000  0.272727     12.000000
  0.272727  0.000000  0.272727     12.000000
  0.363636  0.000000  0.272727     12.000000
  0.454545  0.000000  0.272727     12.000000
  0.090909  0.090909  0.272727     12.000000
  0.181818  0.090909  0.272727     24.000000
  0.272727  0.090909  0.272727     24.000000
  0.363636  0.090909  0.272727     24.000000
  0.454545  0.090909  0.272727     12.000000
  0.181818  0.181818  0.272727     12.000000
  0.272727  0.181818  0.272727     24.000000
  0.363636  0.181818  0.272727     24.000000
  0.272727  0.272727  0.272727     12.000000
  0.363636  0.272727  0.272727     12.000000
  0.000000  0.000000  0.363636      2.000000
  0.090909  0.000000  0.363636     12.000000
  0.181818  0.000000  0.363636     12.000000
  0.272727  0.000000  0.363636     12.000000
  0.363636  0.000000  0.363636     12.000000
  0.454545  0.000000  0.363636     12.000000
  0.090909  0.090909  0.363636     12.000000
  0.181818  0.090909  0.363636     24.000000
  0.272727  0.090909  0.363636     24.000000
  0.363636  0.090909  0.363636     24.000000
  0.454545  0.090909  0.363636     12.000000
  0.181818  0.181818  0.363636     12.000000
  0.272727  0.181818  0.363636     24.000000
  0.363636  0.181818  0.363636     24.000000
  0.272727  0.272727  0.363636     12.000000
  0.363636  0.272727  0.363636     12.000000
  0.000000  0.000000  0.454545      2.000000
  0.090909  0.000000  0.454545     12.000000
  0.181818  0.000000  0.454545     12.000000
  0.272727  0.000000  0.454545     12.000000
  0.363636  0.000000  0.454545     12.000000
  0.454545  0.000000  0.454545     12.000000
  0.090909  0.090909  0.454545     12.000000
  0.181818  0.090909  0.454545     24.000000
  0.272727  0.090909  0.454545     24.000000
  0.363636  0.090909  0.454545     24.000000
  0.454545  0.090909  0.454545     12.000000
  0.181818  0.181818  0.454545     12.000000
  0.272727  0.181818  0.454545     24.000000
  0.363636  0.181818  0.454545     24.000000
  0.272727  0.272727  0.454545     12.000000
  0.363636  0.272727  0.454545     12.000000
 
 Following cartesian coordinates:
            Coordinates               Weight
  0.000000  0.000000  0.000000      1.000000
  0.040642  0.023465  0.000000      6.000000
  0.081285  0.046930  0.000000      6.000000
  0.121927  0.070395  0.000000      6.000000
  0.162570  0.093860  0.000000      6.000000
  0.203212  0.117325  0.000000      6.000000
  0.040642  0.070395  0.000000      6.000000
  0.081285  0.093860  0.000000     12.000000
  0.121927  0.117325  0.000000     12.000000
  0.162570  0.140790  0.000000     12.000000
  0.203212  0.164255  0.000000      6.000000
  0.081285  0.140790  0.000000      6.000000
  0.121927  0.164255  0.000000     12.000000
  0.162570  0.187720  0.000000     12.000000
  0.121927  0.211185  0.000000      6.000000
  0.162570  0.234649  0.000000      6.000000
  0.000000  0.000000  0.022868      2.000000
  0.040642  0.023465  0.022868     12.000000
  0.081285  0.046930  0.022868     12.000000
  0.121927  0.070395  0.022868     12.000000
  0.162570  0.093860  0.022868     12.000000
  0.203212  0.117325  0.022868     12.000000
  0.040642  0.070395  0.022868     12.000000
  0.081285  0.093860  0.022868     24.000000
  0.121927  0.117325  0.022868     24.000000
  0.162570  0.140790  0.022868     24.000000
  0.203212  0.164255  0.022868     12.000000
  0.081285  0.140790  0.022868     12.000000
  0.121927  0.164255  0.022868     24.000000
  0.162570  0.187720  0.022868     24.000000
  0.121927  0.211185  0.022868     12.000000
  0.162570  0.234649  0.022868     12.000000
  0.000000  0.000000  0.045736      2.000000
  0.040642  0.023465  0.045736     12.000000
  0.081285  0.046930  0.045736     12.000000
  0.121927  0.070395  0.045736     12.000000
  0.162570  0.093860  0.045736     12.000000
  0.203212  0.117325  0.045736     12.000000
  0.040642  0.070395  0.045736     12.000000
  0.081285  0.093860  0.045736     24.000000
  0.121927  0.117325  0.045736     24.000000
  0.162570  0.140790  0.045736     24.000000
  0.203212  0.164255  0.045736     12.000000
  0.081285  0.140790  0.045736     12.000000
  0.121927  0.164255  0.045736     24.000000
  0.162570  0.187720  0.045736     24.000000
  0.121927  0.211185  0.045736     12.000000
  0.162570  0.234649  0.045736     12.000000
  0.000000  0.000000  0.068604      2.000000
  0.040642  0.023465  0.068604     12.000000
  0.081285  0.046930  0.068604     12.000000
  0.121927  0.070395  0.068604     12.000000
  0.162570  0.093860  0.068604     12.000000
  0.203212  0.117325  0.068604     12.000000
  0.040642  0.070395  0.068604     12.000000
  0.081285  0.093860  0.068604     24.000000
  0.121927  0.117325  0.068604     24.000000
  0.162570  0.140790  0.068604     24.000000
  0.203212  0.164255  0.068604     12.000000
  0.081285  0.140790  0.068604     12.000000
  0.121927  0.164255  0.068604     24.000000
  0.162570  0.187720  0.068604     24.000000
  0.121927  0.211185  0.068604     12.000000
  0.162570  0.234649  0.068604     12.000000
  0.000000  0.000000  0.091473      2.000000
  0.040642  0.023465  0.091473     12.000000
  0.081285  0.046930  0.091473     12.000000
  0.121927  0.070395  0.091473     12.000000
  0.162570  0.093860  0.091473     12.000000
  0.203212  0.117325  0.091473     12.000000
  0.040642  0.070395  0.091473     12.000000
  0.081285  0.093860  0.091473     24.000000
  0.121927  0.117325  0.091473     24.000000
  0.162570  0.140790  0.091473     24.000000
  0.203212  0.164255  0.091473     12.000000
  0.081285  0.140790  0.091473     12.000000
  0.121927  0.164255  0.091473     24.000000
  0.162570  0.187720  0.091473     24.000000
  0.121927  0.211185  0.091473     12.000000
  0.162570  0.234649  0.091473     12.000000
  0.000000  0.000000  0.114341      2.000000
  0.040642  0.023465  0.114341     12.000000
  0.081285  0.046930  0.114341     12.000000
  0.121927  0.070395  0.114341     12.000000
  0.162570  0.093860  0.114341     12.000000
  0.203212  0.117325  0.114341     12.000000
  0.040642  0.070395  0.114341     12.000000
  0.081285  0.093860  0.114341     24.000000
  0.121927  0.117325  0.114341     24.000000
  0.162570  0.140790  0.114341     24.000000
  0.203212  0.164255  0.114341     12.000000
  0.081285  0.140790  0.114341     12.000000
  0.121927  0.164255  0.114341     24.000000
  0.162570  0.187720  0.114341     24.000000
  0.121927  0.211185  0.114341     12.000000
  0.162570  0.234649  0.114341     12.000000
 


--------------------------------------------------------------------------------------------------------




 Dimension of arrays:
   k-points           NKPTS =     96   k-points in BZ     NKDIM =     96   number of bands    NBANDS=     40
   number of dos      NEDOS =    301   number of ions     NIONS =      2
   non local maximal  LDIM  =      6   non local SUM 2l+1 LMDIM =     18
   total plane-waves  NPLWV =   1600
   max r-space proj   IRMAX =      1   max aug-charges    IRDMAX=   3508
   dimension x,y,z NGX =    10 NGY =   10 NGZ =   16
   dimension x,y,z NGXF=    20 NGYF=   20 NGZF=   32
   support grid    NGXF=    20 NGYF=   20 NGZF=   32
   ions per type =               2
   NGX,Y,Z   is equivalent  to a cutoff of   7.43,  7.43,  6.69 a.u.
   NGXF,Y,Z  is equivalent  to a cutoff of  14.86, 14.86, 13.38 a.u.

 SYSTEM =  unknown system                          
 POSCAR =  Fe                                      

 Startparameter for this run:
   NWRITE =      2    write-flag & timer
   PREC   = normal    normal or accurate (medium, high low for compatibility)
   ISTART =      0    job   : 0-new  1-cont  2-samecut
   ICHARG =      1    charge: 1-file 2-atom 10-const
   ISPIN  =      1    spin polarized calculation?
   LNONCOLLINEAR =      F non collinear calculations
   LSORBIT =      F    spin-orbit coupling
   INIWAV =      1    electr: 0-lowe 1-rand  2-diag
   LASPH  =      F    aspherical Exc in radial PAW
   METAGGA=      F    non-selfconsistent MetaGGA calc.

 Electronic Relaxation 1
   ENCUT  =  280.0 eV  20.58 Ry    4.54 a.u.   3.05  3.05  5.42*2*pi/ulx,y,z
   ENINI  =  280.0     initial cutoff
   ENAUG  =  511.4 eV  augmentation charge cutoff
   NELM   =     60;   NELMIN=  2; NELMDL= -5     # of ELM steps 
   EDIFF  = 0.1E-05   stopping-criterion for ELM
   LREAL  =      F    real-space projection
   NLSPLINE    = F    spline interpolate recip. space projectors
   LCOMPAT=      F    compatible to vasp.4.4
   GGA_COMPAT  = T    GGA compatible to vasp.4.4-vasp.4.6
   LMAXPAW     = -100 max onsite density
   LMAXMIX     =    2 max onsite mixed and CHGCAR
   VOSKOWN=      0    Vosko Wilk Nusair interpolation
   ROPT   =    0.00000
 Ionic relaxation
   EDIFFG = 0.1E-04   stopping-criterion for IOM
   NSW    =      0    number of steps for IOM
   NBLOCK =      1;   KBLOCK =      1    inner block; outer block 
   IBRION =     -1    ionic relax: 0-MD 1-quasi-New 2-CG
   NFREE  =      0    steps in history (QN), initial steepest desc. (CG)
   ISIF   =      2    stress and relaxation
   IWAVPR =      0    prediction:  0-non 1-charg 2-wave 3-comb
   ISYM   =      2    0-nonsym 1-usesym 2-fastsym
   LCORR  =      T    Harris-Foulkes like correction to forces

   POTIM  = 0.5000    time-step for ionic-motion
   TEIN   =    0.0    initial temperature
   TEBEG  =    0.0;   TEEND  =   0.0 temperature during run
   SMASS  =  -3.00    Nose mass-parameter (am)
   estimated Nose-frequenzy (Omega)   =  0.10E-29 period in steps = 0.13E+47 mass=  -0.114E-27a.u.
   SCALEE = 1.0000    scale energy and forces
   NPACO  =    256;   APACO  = 16.0  distance and # of slots for P.C.
   PSTRESS=    0.0 pullay stress

  Mass of Ions in am
   POMASS =  55.85
  Ionic Valenz
   ZVAL   =   8.00
  Atomic Wigner-Seitz radii
   RWIGS  =  -1.00
  virtual crystal weights 
   VCA    =   1.00
   NELECT =      16.0000    total number of electrons
   NUPDOWN=      -1.0000    fix difference up-down

 DOS related values:
   EMIN   =  10.00;   EMAX   =-10.00  energy-range for DOS
   EFERMI =   0.00
   ISMEAR =     1;   SIGMA  =   0.20  broadening in eV -4-tet -1-fermi 0-gaus

 Electronic relaxation 2 (details)
   IALGO  =     38    algorithm
   LDIAG  =      T    sub-space diagonalisation (order eigenvalues)
   LSUBROT=      F    optimize rotation matrix (better conditioning)
   TURBO    =      0    0=normal 1=particle mesh
   IRESTART =      0    0=no restart 2=restart with 2 vectors
   NREBOOT  =      0    no. of reboots
   NMIN     =      0    reboot dimension
   EREF     =   0.00    reference energy to select bands
   IMIX   =      4    mixing-type and parameters
     AMIX     =   0.40;   BMIX     =  1.00
     AMIX_MAG =   1.60;   BMIX_MAG =  1.00
     AMIN     =   0.10
     WC   =   100.;   INIMIX=   1;  MIXPRE=   1;  MAXMIX= -45

 Intra band minimization:
   WEIMIN = 0.0000     energy-eigenvalue tresh-hold
   EBREAK =  0.62E-08  absolut break condition
   DEPER  =   0.30     relativ break condition  

   TIME   =   0.40     timestep for ELM

  volume/ion in A,a.u.               =       8.61        58.12
  Fermi-wavevector in a.u.,A,eV,Ry     =   1.597329  3.018514 34.714717  2.551460
  Thomas-Fermi vector in A             =   2.694952
 
 Write flags
   LWAVE        =      T    write WAVECAR
   LDOWNSAMPLE  =      F    k-point downsampling of WAVECAR
   LCHARG       =      T    write CHGCAR
   LVTOT        =      F    write LOCPOT, total local potential
   LVHAR        =      F    write LOCPOT, Hartree potential only
   LELF         =      F    write electronic localiz. function (ELF)
   LORBIT       =      0    0 simple, 1 ext, 2 COOP (PROOUT), +10 PAW based schemes


 Dipole corrections
   LMONO  =      F    monopole corrections only (constant potential shift)
   LDIPOL =      F    correct potential (dipole corrections)
   IDIPOL =      0    1-x, 2-y, 3-z, 4-all directions 
   EPSILON=  1.0000000 bulk dielectric constant

 Exchange correlation treatment:
   GGA     =    PE    GGA type
   LEXCH   =     8    internal setting for exchange type
   VOSKOWN=      0    Vosko Wilk Nusair interpolation
   LHFCALC =     F    Hartree Fock is set to
   LHFONE  =     F    Hartree Fock one center treatment
   AEXX    =    0.0000 exact exchange contribution

 Linear response parameters
   LEPSILON=     F    determine dielectric tensor
   LRPA    =     F    only Hartree local field effects (RPA)
   LNABLA  =     F    use nabla operator in PAW spheres
   LVEL    =     F    velocity operator in full k-point grid
   LINTERFAST=   F  fast interpolation
   KINTER  =     0    interpolate to denser k-point grid
   CSHIFT  =0.1000    complex shift for real part using Kramers Kronig
   OMEGAMAX=  -1.0    maximum frequency
   DEG_THRESHOLD= 0.2000000E-02 threshold for treating states as degnerate
   RTIME   =   -0.100 relaxation time in fs
  (WPLASMAI=    0.000 imaginary part of plasma frequency in eV, 0.658/RTIME)
   DFIELD  = 0.0000000 0.0000000 0.0000000 field for delta impulse in time
 
 Orbital magnetization related:
   ORBITALMAG=     F  switch on orbital magnetization
   LCHIMAG   =     F  perturbation theory with respect to B field
   DQ        =  0.001000  dq finite difference perturbation B field
   LLRAUG    =     F  two centre corrections for induced B field



--------------------------------------------------------------------------------------------------------


 Static calculation
 charge density and potential will be updated during run
 non-spin polarized calculation
 Variant of blocked Davidson
 Davidson routine will perform the subspace rotation
 perform sub-space diagonalisation
    after iterative eigenvector-optimisation
 modified Broyden-mixing scheme, WC =      100.0
 initial mixing is a Kerker type mixing with AMIX =  0.4000 and BMIX =      1.0000
 Hartree-type preconditioning will be used
 using additional bands           32
 reciprocal scheme for non local part
 use partial core corrections
 calculate Harris-corrections to forces 
   (improved forces if not selfconsistent)
 use gradient corrections 
 use of overlap-Matrix (Vanderbilt PP)
 Methfessel and Paxton  Order N= 1 SIGMA  =   0.20


--------------------------------------------------------------------------------------------------------


  energy-cutoff  :      280.00
  volume of cell :       17.23
      direct lattice vectors                 reciprocal lattice vectors
     2.236800000  0.000000000  0.000000000     0.447067239  0.258114391  0.000000000
    -1.118400000  1.937125623  0.000000000     0.000000000  0.516228781  0.000000000
     0.000000000  0.000000000  3.975360000     0.000000000  0.000000000  0.251549545

  length of vectors
     2.236800000  2.236800000  3.975360000     0.516228781  0.516228781  0.251549545


 
 k-points in units of 2pi/SCALE and weight: KPOINTS created by Atomic Simulation Env
   0.00000000  0.00000000  0.00000000       0.001
   0.04064248  0.02346494  0.00000000       0.005
   0.08128495  0.04692989  0.00000000       0.005
   0.12192743  0.07039483  0.00000000       0.005
   0.16256991  0.09385978  0.00000000       0.005
   0.20321238  0.11732472  0.00000000       0.005
   0.04064248  0.07039483  0.00000000       0.005
   0.08128495  0.09385978  0.00000000       0.009
   0.12192743  0.11732472  0.00000000       0.009
   0.16256991  0.14078967  0.00000000       0.009
   0.20321238  0.16425461  0.00000000       0.005
   0.08128495  0.14078967  0.00000000       0.005
   0.12192743  0.16425461  0.00000000       0.009
   0.16256991  0.18771956  0.00000000       0.009
   0.12192743  0.21118450  0.00000000       0.005
   0.16256991  0.23464945  0.00000000       0.005
   0.00000000  0.00000000  0.02286814       0.002
   0.04064248  0.02346494  0.02286814       0.009
   0.08128495  0.04692989  0.02286814       0.009
   0.12192743  0.07039483  0.02286814       0.009
   0.16256991  0.09385978  0.02286814       0.009
   0.20321238  0.11732472  0.02286814       0.009
   0.04064248  0.07039483  0.02286814       0.009
   0.08128495  0.09385978  0.02286814       0.018
   0.12192743  0.11732472  0.02286814       0.018
   0.16256991  0.14078967  0.02286814       0.018
   0.20321238  0.16425461  0.02286814       0.009
   0.08128495  0.14078967  0.02286814       0.009
   0.12192743  0.16425461  0.02286814       0.018
   0.16256991  0.18771956  0.02286814       0.018
   0.12192743  0.21118450  0.02286814       0.009
   0.16256991  0.23464945  0.02286814       0.009
   0.00000000  0.00000000  0.04573628       0.002
   0.04064248  0.02346494  0.04573628       0.009
   0.08128495  0.04692989  0.04573628       0.009
   0.12192743  0.07039483  0.04573628       0.009
   0.16256991  0.09385978  0.04573628       0.009
   0.20321238  0.11732472  0.04573628       0.009
   0.04064248  0.07039483  0.04573628       0.009
   0.08128495  0.09385978  0.04573628       0.018
   0.12192743  0.11732472  0.04573628       0.018
   0.16256991  0.14078967  0.04573628       0.018
   0.20321238  0.16425461  0.04573628       0.009
   0.08128495  0.14078967  0.04573628       0.009
   0.12192743  0.16425461  0.04573628       0.018
   0.16256991  0.18771956  0.04573628       0.018
   0.12192743  0.21118450  0.04573628       0.009
   0.16256991  0.23464945  0.04573628       0.009
   0.00000000  0.00000000  0.06860442       0.002
   0.04064248  0.02346494  0.06860442       0.009
   0.08128495  0.04692989  0.06860442       0.009
   0.12192743  0.07039483  0.06860442       0.009
   0.16256991  0.09385978  0.06860442       0.009
   0.20321238  0.11732472  0.06860442       0.009
   0.04064248  0.07039483  0.06860442       0.009
   0.08128495  0.09385978  0.06860442       0.018
   0.12192743  0.11732472  0.06860442       0.018
   0.16256991  0.14078967  0.06860442       0.018
   0.20321238  0.16425461  0.06860442       0.009
   0.08128495  0.14078967  0.06860442       0.009
   0.12192743  0.16425461  0.06860442       0.018
   0.16256991  0.18771956  0.06860442       0.018
   0.12192743  0.21118450  0.06860442       0.009
   0.16256991  0.23464945  0.06860442       0.009
   0.00000000  0.00000000  0.09147256       0.002
   0.04064248  0.02346494  0.09147256       0.009
   0.08128495  0.04692989  0.09147256       0.009
   0.12192743  0.07039483  0.09147256       0.009
   0.16256991  0.09385978  0.09147256       0.009
   0.20321238  0.11732472  0.09147256       0.009
   0.04064248  0.07039483  0.09147256       0.009
   0.08128495  0.09385978  0.09147256       0.018
   0.12192743  0.11732472  0.09147256       0.018
   0.16256991  0.14078967  0.09147256       0.018
   0.20321238  0.16425461  0.09147256       0.009
   0.08128495  0.14078967  0.09147256       0.009
   0.12192743  0.16425461  0.09147256       0.018
   0.16256991  0.18771956  0.09147256       0.018
   0.12192743  0.21118450  0.09147256       0.009
   0.16256991  0.23464945  0.09147256       0.009
   0.00000000  0.00000000  0.11434070       0.002
   0.04064248  0.02346494  0.11434070       0.009
   0.08128495  0.04692989  0.11434070       0.009
   0.12192743  0.07039483  0.11434070       0.009
   0.16256991  0.09385978  0.11434070       0.009
   0.20321238  0.11732472  0.11434070       0.009
   0.04064248  0.07039483  0.11434070       0.009
   0.08128495  0.09385978  0.11434070       0.018
   0.12192743  0.11732472  0.11434070       0.018
   0.16256991  0.14078967  0.11434070       0.018
   0.20321238  0.16425461  0.11434070       0.009
   0.08128495  0.14078967  0.11434070       0.009
   0.12192743  0.16425461  0.11434070       0.018
   0.16256991  0.18771956  0.11434070       0.018
   0.12192743  0.21118450  0.11434070       0.009
   0.16256991  0.23464945  0.11434070       0.009
 
 k-points in reciprocal lattice and weights: KPOINTS created by Atomic Simulation Env
   0.00000000  0.00000000  0.00000000       0.001
   0.09090909  0.00000000  0.00000000       0.005
   0.18181818  0.00000000  0.00000000       0.005
   0.27272727  0.00000000  0.00000000       0.005
   0.36363636  0.00000000  0.00000000       0.005
   0.45454545  0.00000000  0.00000000       0.005
   0.09090909  0.09090909  0.00000000       0.005
   0.18181818  0.09090909  0.00000000       0.009
   0.27272727  0.09090909  0.00000000       0.009
   0.36363636  0.09090909  0.00000000       0.009
   0.45454545  0.09090909  0.00000000       0.005
   0.18181818  0.18181818  0.00000000       0.005
   0.27272727  0.18181818  0.00000000       0.009
   0.36363636  0.18181818  0.00000000       0.009
   0.27272727  0.27272727  0.00000000       0.005
   0.36363636  0.27272727  0.00000000       0.005
   0.00000000  0.00000000  0.09090909       0.002
   0.09090909  0.00000000  0.09090909       0.009
   0.18181818  0.00000000  0.09090909       0.009
   0.27272727  0.00000000  0.09090909       0.009
   0.36363636  0.00000000  0.09090909       0.009
   0.45454545  0.00000000  0.09090909       0.009
   0.09090909  0.09090909  0.09090909       0.009
   0.18181818  0.09090909  0.09090909       0.018
   0.27272727  0.09090909  0.09090909       0.018
   0.36363636  0.09090909  0.09090909       0.018
   0.45454545  0.09090909  0.09090909       0.009
   0.18181818  0.18181818  0.09090909       0.009
   0.27272727  0.18181818  0.09090909       0.018
   0.36363636  0.18181818  0.09090909       0.018
   0.27272727  0.27272727  0.09090909       0.009
   0.36363636  0.27272727  0.09090909       0.009
   0.00000000  0.00000000  0.18181818       0.002
   0.09090909  0.00000000  0.18181818       0.009
   0.18181818  0.00000000  0.18181818       0.009
   0.27272727  0.00000000  0.18181818       0.009
   0.36363636  0.00000000  0.18181818       0.009
   0.45454545  0.00000000  0.18181818       0.009
   0.09090909  0.09090909  0.18181818       0.009
   0.18181818  0.09090909  0.18181818       0.018
   0.27272727  0.09090909  0.18181818       0.018
   0.36363636  0.09090909  0.18181818       0.018
   0.45454545  0.09090909  0.18181818       0.009
   0.18181818  0.18181818  0.18181818       0.009
   0.27272727  0.18181818  0.18181818       0.018
   0.36363636  0.18181818  0.18181818       0.018
   0.27272727  0.27272727  0.18181818       0.009
   0.36363636  0.27272727  0.18181818       0.009
   0.00000000  0.00000000  0.27272727       0.002
   0.09090909  0.00000000  0.27272727       0.009
   0.18181818  0.00000000  0.27272727       0.009
   0.27272727  0.00000000  0.27272727       0.009
   0.36363636  0.00000000  0.27272727       0.009
   0.45454545  0.00000000  0.27272727       0.009
   0.09090909  0.09090909  0.27272727       0.009
   0.18181818  0.09090909  0.27272727       0.018
   0.27272727  0.09090909  0.27272727       0.018
   0.36363636  0.09090909  0.27272727       0.018
   0.45454545  0.09090909  0.27272727       0.009
   0.18181818  0.18181818  0.27272727       0.009
   0.27272727  0.18181818  0.27272727       0.018
   0.36363636  0.18181818  0.27272727       0.018
   0.27272727  0.27272727  0.27272727       0.009
   0.36363636  0.27272727  0.27272727       0.009
   0.00000000  0.00000000  0.36363636       0.002
   0.09090909  0.00000000  0.36363636       0.009
   0.18181818  0.00000000  0.36363636       0.009
   0.27272727  0.00000000  0.36363636       0.009
   0.36363636  0.00000000  0.36363636       0.009
   0.45454545  0.00000000  0.36363636       0.009
   0.09090909  0.09090909  0.36363636       0.009
   0.18181818  0.09090909  0.36363636       0.018
   0.27272727  0.09090909  0.36363636       0.018
   0.36363636  0.09090909  0.36363636       0.018
   0.45454545  0.09090909  0.36363636       0.009
   0.18181818  0.18181818  0.36363636       0.009
   0.27272727  0.18181818  0.36363636       0.018
   0.36363636  0.18181818  0.36363636       0.018
   0.27272727  0.27272727  0.36363636       0.009
   0.36363636  0.27272727  0.36363636       0.009
   0.00000000  0.00000000  0.45454545       0.002
   0.09090909  0.00000000  0.45454545       0.009
   0.18181818  0.00000000  0.45454545       0.009
   0.27272727  0.00000000  0.45454545       0.009
   0.36363636  0.00000000  0.45454545       0.009
   0.45454545  0.00000000  0.45454545       0.009
   0.09090909  0.09090909  0.45454545       0.009
   0.18181818  0.09090909  0.45454545       0.018
   0.27272727  0.09090909  0.45454545       0.018
   0.36363636  0.09090909  0.45454545       0.018
   0.45454545  0.09090909  0.45454545       0.009
   0.18181818  0.18181818  0.45454545       0.009
   0.27272727  0.18181818  0.45454545       0.018
   0.36363636  0.18181818  0.45454545       0.018
   0.27272727  0.27272727  0.45454545       0.009
   0.36363636  0.27272727  0.45454545       0.009
 
 position of ions in fractional coordinates (direct lattice) 
   0.00000000  0.00000000  0.00000000
   0.33333333  0.66666667  0.50000000
 
 position of ions in cartesian coordinates  (Angst):
   0.00000000  0.00000000  0.00000000
   0.00000000  1.29141708  1.98768000
 


--------------------------------------------------------------------------------------------------------


 k-point   1 :   0.0000 0.0000 0.0000  plane waves:     173
 k-point   2 :   0.0909 0.0000 0.0000  plane waves:     177
 k-point   3 :   0.1818 0.0000 0.0000  plane waves:     177
 k-point   4 :   0.2727 0.0000 0.0000  plane waves:     185
 k-point   5 :   0.3636 0.0000 0.0000  plane waves:     182
 k-point   6 :   0.4545 0.0000 0.0000  plane waves:     180
 k-point   7 :   0.0909 0.0909 0.0000  plane waves:     177
 k-point   8 :   0.1818 0.0909 0.0000  plane waves:     181
 k-point   9 :   0.2727 0.0909 0.0000  plane waves:     180
 k-point  10 :   0.3636 0.0909 0.0000  plane waves:     187
 k-point  11 :   0.4545 0.0909 0.0000  plane waves:     183
 k-point  12 :   0.1818 0.1818 0.0000  plane waves:     185
 k-point  13 :   0.2727 0.1818 0.0000  plane waves:     186
 k-point  14 :   0.3636 0.1818 0.0000  plane waves:     186
 k-point  15 :   0.2727 0.2727 0.0000  plane waves:     189
 k-point  16 :   0.3636 0.2727 0.0000  plane waves:     189
 k-point  17 :   0.0000 0.0000 0.0909  plane waves:     167
 k-point  18 :   0.0909 0.0000 0.0909  plane waves:     180
 k-point  19 :   0.1818 0.0000 0.0909  plane waves:     175
 k-point  20 :   0.2727 0.0000 0.0909  plane waves:     181
 k-point  21 :   0.3636 0.0000 0.0909  plane waves:     184
 k-point  22 :   0.4545 0.0000 0.0909  plane waves:     187
 k-point  23 :   0.0909 0.0909 0.0909  plane waves:     179
 k-point  24 :   0.1818 0.0909 0.0909  plane waves:     183
 k-point  25 :   0.2727 0.0909 0.0909  plane waves:     181
 k-point  26 :   0.3636 0.0909 0.0909  plane waves:     183
 k-point  27 :   0.4545 0.0909 0.0909  plane waves:     184
 k-point  28 :   0.1818 0.1818 0.0909  plane waves:     185
 k-point  29 :   0.2727 0.1818 0.0909  plane waves:     187
 k-point  30 :   0.3636 0.1818 0.0909  plane waves:     188
 k-point  31 :   0.2727 0.2727 0.0909  plane waves:     192
 k-point  32 :   0.3636 0.2727 0.0909  plane waves:     190
 k-point  33 :   0.0000 0.0000 0.1818  plane waves:     161
 k-point  34 :   0.0909 0.0000 0.1818  plane waves:     177
 k-point  35 :   0.1818 0.0000 0.1818  plane waves:     177
 k-point  36 :   0.2727 0.0000 0.1818  plane waves:     180
 k-point  37 :   0.3636 0.0000 0.1818  plane waves:     184
 k-point  38 :   0.4545 0.0000 0.1818  plane waves:     185
 k-point  39 :   0.0909 0.0909 0.1818  plane waves:     181
 k-point  40 :   0.1818 0.0909 0.1818  plane waves:     182
 k-point  41 :   0.2727 0.0909 0.1818  plane waves:     181
 k-point  42 :   0.3636 0.0909 0.1818  plane waves:     184
 k-point  43 :   0.4545 0.0909 0.1818  plane waves:     181
 k-point  44 :   0.1818 0.1818 0.1818  plane waves:     183
 k-point  45 :   0.2727 0.1818 0.1818  plane waves:     186
 k-point  46 :   0.3636 0.1818 0.1818  plane waves:     187
 k-point  47 :   0.2727 0.2727 0.1818  plane waves:     190
 k-point  48 :   0.3636 0.2727 0.1818  plane waves:     194
 k-point  49 :   0.0000 0.0000 0.2727  plane waves:     161
 k-point  50 :   0.0909 0.0000 0.2727  plane waves:     174
 k-point  51 :   0.1818 0.0000 0.2727  plane waves:     183
 k-point  52 :   0.2727 0.0000 0.2727  plane waves:     183
 k-point  53 :   0.3636 0.0000 0.2727  plane waves:     184
 k-point  54 :   0.4545 0.0000 0.2727  plane waves:     187
 k-point  55 :   0.0909 0.0909 0.2727  plane waves:     180
 k-point  56 :   0.1818 0.0909 0.2727  plane waves:     181
 k-point  57 :   0.2727 0.0909 0.2727  plane waves:     180
 k-point  58 :   0.3636 0.0909 0.2727  plane waves:     182
 k-point  59 :   0.4545 0.0909 0.2727  plane waves:     187
 k-point  60 :   0.1818 0.1818 0.2727  plane waves:     187
 k-point  61 :   0.2727 0.1818 0.2727  plane waves:     183
 k-point  62 :   0.3636 0.1818 0.2727  plane waves:     185
 k-point  63 :   0.2727 0.2727 0.2727  plane waves:     189
 k-point  64 :   0.3636 0.2727 0.2727  plane waves:     193
 k-point  65 :   0.0000 0.0000 0.3636  plane waves:     161
 k-point  66 :   0.0909 0.0000 0.3636  plane waves:     173
 k-point  67 :   0.1818 0.0000 0.3636  plane waves:     181
 k-point  68 :   0.2727 0.0000 0.3636  plane waves:     181
 k-point  69 :   0.3636 0.0000 0.3636  plane waves:     185
 k-point  70 :   0.4545 0.0000 0.3636  plane waves:     187
 k-point  71 :   0.0909 0.0909 0.3636  plane waves:     179
 k-point  72 :   0.1818 0.0909 0.3636  plane waves:     181
 k-point  73 :   0.2727 0.0909 0.3636  plane waves:     182
 k-point  74 :   0.3636 0.0909 0.3636  plane waves:     184
 k-point  75 :   0.4545 0.0909 0.3636  plane waves:     186
 k-point  76 :   0.1818 0.1818 0.3636  plane waves:     183
 k-point  77 :   0.2727 0.1818 0.3636  plane waves:     183
 k-point  78 :   0.3636 0.1818 0.3636  plane waves:     184
 k-point  79 :   0.2727 0.2727 0.3636  plane waves:     186
 k-point  80 :   0.3636 0.2727 0.3636  plane waves:     187
 k-point  81 :   0.0000 0.0000 0.4545  plane waves:     166
 k-point  82 :   0.0909 0.0000 0.4545  plane waves:     170
 k-point  83 :   0.1818 0.0000 0.4545  plane waves:     180
 k-point  84 :   0.2727 0.0000 0.4545  plane waves:     182
 k-point  85 :   0.3636 0.0000 0.4545  plane waves:     182
 k-point  86 :   0.4545 0.0000 0.4545  plane waves:     188
 k-point  87 :   0.0909 0.0909 0.4545  plane waves:     178
 k-point  88 :   0.1818 0.0909 0.4545  plane waves:     181
 k-point  89 :   0.2727 0.0909 0.4545  plane waves:     182
 k-point  90 :   0.3636 0.0909 0.4545  plane waves:     185
 k-point  91 :   0.4545 0.0909 0.4545  plane waves:     188
 k-point  92 :   0.1818 0.1818 0.4545  plane waves:     182
 k-point  93 :   0.2727 0.1818 0.4545  plane waves:     184
 k-point  94 :   0.3636 0.1818 0.4545  plane waves:     184
 k-point  95 :   0.2727 0.2727 0.4545  plane waves:     184
 k-point  96 :   0.3636 0.2727 0.4545  plane waves:     184

 maximum number of plane-waves:       194
 maximum index in each direction: 
   IXMAX=    2   IYMAX=    3   IZMAX=    5
   IXMIN=   -3   IYMIN=   -3   IZMIN=   -5


 total amount of memory used by VASP MPI-rank0    47571. kBytes
=======================================================================

   base      :      30000. kBytes
   nonl-proj :       2688. kBytes
   grid      :        721. kBytes
   one-center:         31. kBytes
   wavefun   :      14131. kBytes
 
     INWAV:  cpu time    0.0000: real time    0.0000
 Broyden mixing: mesh for mixing (old mesh)
   NGX =  5   NGY =  5   NGZ = 11
  (NGX  = 20   NGY  = 20   NGZ  = 32)
  gives a total of    275 points

 initial charge density was supplied:
 charge density of overlapping atoms calculated
 number of electron      16.0000000 magnetization 
 keeping initial charge density in first step


--------------------------------------------------------------------------------------------------------


 Maximum index for augmentation-charges         3245 (set IRDMAX)


--------------------------------------------------------------------------------------------------------


 First call to EWALD:  gamma=   0.686
 Maximum number of real-space cells 3x 3x 2
 Maximum number of reciprocal cells 2x 2x 4

    FEWALD:  cpu time    0.0009: real time    0.0009


--------------------------------------- Iteration      1(   1)  ---------------------------------------


    POTLOK:  cpu time    0.0031: real time    0.0031
    SETDIJ:  cpu time    0.0021: real time    0.0021
     EDDAV:  cpu time    0.7485: real time    0.7685
       DOS:  cpu time    0.0055: real time    0.0055
    --------------------------------------------
      LOOP:  cpu time    0.7592: real time    0.7793

 eigenvalue-minimisations  :  9536
 total energy-change (2. order) : 0.5930521E+02  (-0.2382574E+03)
 number of electron      16.0000000 magnetization 
 augmentation part       16.0000000 magnetization 

 Free energy of the ion-electron system (eV)
  ---------------------------------------------------
  alpha Z        PSCENC =       160.49562896
  Ewald energy   TEWEN  =     -1297.12854460
  -Hartree energ DENC   =      -183.15862478
  -exchange      EXHF   =         0.00000000
  -V(xc)+E(xc)   XCENC  =         9.62800860
  PAW double counting   =      1109.69170683    -1125.09647265
  entropy T*S    EENTRO =         0.00402835
  eigenvalues    EBANDS =       196.29457166
  atomic energy  EATOM  =      1188.57490811
  Solvation  Ediel_sol  =         0.00000000
  ---------------------------------------------------
  free energy    TOTEN  =        59.30521049 eV

  energy without entropy =       59.30118214  energy(sigma->0) =       59.30386770


--------------------------------------------------------------------------------------------------------




--------------------------------------- Iteration      1(   2)  ---------------------------------------


     EDDAV:  cpu time    0.6196: real time    0.6196
       DOS:  cpu time    0.0080: real time    0.0080
    --------------------------------------------
      LOOP:  cpu time    0.6276: real time    0.6276

 eigenvalue-minimisations  :  7856
 total energy-change (2. order) :-0.7337259E+02  (-0.6273616E+02)
 number of electron      16.0000000 magnetization 
 augmentation part       16.0000000 magnetization 

 Free energy of the ion-electron system (eV)
  ---------------------------------------------------
  alpha Z        PSCENC =       160.49562896
  Ewald energy   TEWEN  =     -1297.12854460
  -Hartree energ DENC   =      -183.15862478
  -exchange      EXHF   =         0.00000000
  -V(xc)+E(xc)   XCENC  =         9.62800860
  PAW double counting   =      1109.69170683    -1125.09647265
  entropy T*S    EENTRO =        -0.00074130
  eigenvalues    EBANDS =       122.92674714
  atomic energy  EATOM  =      1188.57490811
  Solvation  Ediel_sol  =         0.00000000
  ---------------------------------------------------
  free energy    TOTEN  =       -14.06738368 eV

  energy without entropy =      -14.06664238  energy(sigma->0) =      -14.06713658


--------------------------------------------------------------------------------------------------------




--------------------------------------- Iteration      1(   3)  ---------------------------------------


     EDDAV:  cpu time    0.7591: real time    0.7591
       DOS:  cpu time    0.0060: real time    0.0060
    --------------------------------------------
      LOOP:  cpu time    0.7651: real time    0.7651

 eigenvalue-minimisations  :  9552
 total energy-change (2. order) :-0.3953218E+01  (-0.3788105E+01)
 number of electron      16.0000000 magnetization 
 augmentation part       16.0000000 magnetization 

 Free energy of the ion-electron system (eV)
  ---------------------------------------------------
  alpha Z        PSCENC =       160.49562896
  Ewald energy   TEWEN  =     -1297.12854460
  -Hartree energ DENC   =      -183.15862478
  -exchange      EXHF   =         0.00000000
  -V(xc)+E(xc)   XCENC  =         9.62800860
  PAW double counting   =      1109.69170683    -1125.09647265
  entropy T*S    EENTRO =         0.00057806
  eigenvalues    EBANDS =       118.97220961
  atomic energy  EATOM  =      1188.57490811
  Solvation  Ediel_sol  =         0.00000000
  ---------------------------------------------------
  free energy    TOTEN  =       -18.02060185 eV

  energy without entropy =      -18.02117991  energy(sigma->0) =      -18.02079454


--------------------------------------------------------------------------------------------------------




--------------------------------------- Iteration      1(   4)  ---------------------------------------


     EDDAV:  cpu time    0.6571: real time    0.6571
       DOS:  cpu time    0.0063: real time    0.0063
    --------------------------------------------
      LOOP:  cpu time    0.6634: real time    0.6634

 eigenvalue-minimisations  :  8712
 total energy-change (2. order) :-0.1252902E-01  (-0.1252430E-01)
 number of electron      16.0000000 magnetization 
 augmentation part       16.0000000 magnetization 

 Free energy of the ion-electron system (eV)
  ---------------------------------------------------
  alpha Z        PSCENC =       160.49562896
  Ewald energy   TEWEN  =     -1297.12854460
  -Hartree energ DENC   =      -183.15862478
  -exchange      EXHF   =         0.00000000
  -V(xc)+E(xc)   XCENC  =         9.62800860
  PAW double counting   =      1109.69170683    -1125.09647265
  entropy T*S    EENTRO =         0.00058704
  eigenvalues    EBANDS =       118.95967161
  atomic energy  EATOM  =      1188.57490811
  Solvation  Ediel_sol  =         0.00000000
  ---------------------------------------------------
  free energy    TOTEN  =       -18.03313088 eV

  energy without entropy =      -18.03371791  energy(sigma->0) =      -18.03332656


--------------------------------------------------------------------------------------------------------




--------------------------------------- Iteration      1(   5)  ---------------------------------------


     EDDAV:  cpu time    0.7007: real time    0.7007
       DOS:  cpu time    0.0063: real time    0.0063
    CHARGE:  cpu time    0.0172: real time    0.0172
    MIXING:  cpu time    0.0001: real time    0.0001
    --------------------------------------------
      LOOP:  cpu time    0.7243: real time    0.7243

 eigenvalue-minimisations  :  9328
 total energy-change (2. order) :-0.6743896E-05  (-0.6744761E-05)
 number of electron      16.0000164 magnetization 
 augmentation part        7.2382928 magnetization 

 Broyden mixing:
  rms(total) = 0.20710E+01    rms(broyden)= 0.20710E+01
  rms(prec ) = 0.30262E+01
  weight for this iteration     100.00

 Free energy of the ion-electron system (eV)
  ---------------------------------------------------
  alpha Z        PSCENC =       160.49562896
  Ewald energy   TEWEN  =     -1297.12854460
  -Hartree energ DENC   =      -183.15862478
  -exchange      EXHF   =         0.00000000
  -V(xc)+E(xc)   XCENC  =         9.62800860
  PAW double counting   =      1109.69170683    -1125.09647265
  entropy T*S    EENTRO =         0.00058705
  eigenvalues    EBANDS =       118.95966485
  atomic energy  EATOM  =      1188.57490811
  Solvation  Ediel_sol  =         0.00000000
  ---------------------------------------------------
  free energy    TOTEN  =       -18.03313762 eV

  energy without entropy =      -18.03372467  energy(sigma->0) =      -18.03333330


--------------------------------------------------------------------------------------------------------




--------------------------------------- Iteration      1(   6)  ---------------------------------------


    POTLOK:  cpu time    0.0029: real time    0.0029
    SETDIJ:  cpu time    0.0021: real time    0.0021
     EDDAV:  cpu time    0.8268: real time    0.8268
       DOS:  cpu time    0.0062: real time    0.0062
    CHARGE:  cpu time    0.0173: real time    0.0173
    MIXING:  cpu time    0.0002: real time    0.0002
    --------------------------------------------
      LOOP:  cpu time    0.8555: real time    0.8555

 eigenvalue-minimisations  : 11304
 total energy-change (2. order) : 0.2488781E+01  (-0.1246974E+00)
 number of electron      16.0000193 magnetization 
 augmentation part        8.2960229 magnetization 

 Broyden mixing:
  rms(total) = 0.19290E+00    rms(broyden)= 0.19270E+00
  rms(prec ) = 0.20886E+00
  weight for this iteration     100.00

 eigenvalues of (default mixing * dielectric matrix)
  average eigenvalue GAMMA=   1.0680
  1.0680

 Free energy of the ion-electron system (eV)
  ---------------------------------------------------
  alpha Z        PSCENC =       160.49562896
  Ewald energy   TEWEN  =     -1297.12854460
  -Hartree energ DENC   =      -154.04393895
  -exchange      EXHF   =         0.00000000
  -V(xc)+E(xc)   XCENC  =         8.19154307
  PAW double counting   =      1365.64654492    -1378.46345732
  entropy T*S    EENTRO =         0.00116331
  eigenvalues    EBANDS =        91.18179616
  atomic energy  EATOM  =      1188.57490811
  Solvation  Ediel_sol  =         0.00000000
  ---------------------------------------------------
  free energy    TOTEN  =       -15.54435634 eV

  energy without entropy =      -15.54551965  energy(sigma->0) =      -15.54474411


--------------------------------------------------------------------------------------------------------




--------------------------------------- Iteration      1(   7)  ---------------------------------------


    POTLOK:  cpu time    0.0029: real time    0.0029
    SETDIJ:  cpu time    0.0021: real time    0.0021
     EDDAV:  cpu time    0.7136: real time    0.7136
       DOS:  cpu time    0.0063: real time    0.0063
    CHARGE:  cpu time    0.0172: real time    0.0172
    MIXING:  cpu time    0.0002: real time    0.0002
    --------------------------------------------
      LOOP:  cpu time    0.7423: real time    0.7423

 eigenvalue-minimisations  :  9528
 total energy-change (2. order) : 0.1092135E+00  (-0.4587952E-02)
 number of electron      16.0000190 magnetization 
 augmentation part        8.1785088 magnetization 

 Broyden mixing:
  rms(total) = 0.18090E+00    rms(broyden)= 0.18089E+00
  rms(prec ) = 0.23815E+00
  weight for this iteration     100.00

 eigenvalues of (default mixing * dielectric matrix)
  average eigenvalue GAMMA=   1.3075
  0.8669  1.7480

 Free energy of the ion-electron system (eV)
  ---------------------------------------------------
  alpha Z        PSCENC =       160.49562896
  Ewald energy   TEWEN  =     -1297.12854460
  -Hartree energ DENC   =      -154.24038865
  -exchange      EXHF   =         0.00000000
  -V(xc)+E(xc)   XCENC  =         8.22885395
  PAW double counting   =      1496.55155715    -1512.74761518
  entropy T*S    EENTRO =         0.00099203
  eigenvalues    EBANDS =        94.82946536
  atomic energy  EATOM  =      1188.57490811
  Solvation  Ediel_sol  =         0.00000000
  ---------------------------------------------------
  free energy    TOTEN  =       -15.43514286 eV

  energy without entropy =      -15.43613489  energy(sigma->0) =      -15.43547353


--------------------------------------------------------------------------------------------------------




--------------------------------------- Iteration      1(   8)  ---------------------------------------


    POTLOK:  cpu time    0.0029: real time    0.0029
    SETDIJ:  cpu time    0.0021: real time    0.0021
     EDDAV:  cpu time    0.7824: real time    0.7825
       DOS:  cpu time    0.0064: real time    0.0064
    CHARGE:  cpu time    0.0173: real time    0.0173
    MIXING:  cpu time    0.0002: real time    0.0002
    --------------------------------------------
      LOOP:  cpu time    0.8114: real time    0.8115

 eigenvalue-minimisations  : 10672
 total energy-change (2. order) : 0.4070391E-01  (-0.2316530E-03)
 number of electron      16.0000191 magnetization 
 augmentation part        8.2020444 magnetization 

 Broyden mixing:
  rms(total) = 0.51137E-01    rms(broyden)= 0.51128E-01
  rms(prec ) = 0.63994E-01
  weight for this iteration     100.00

 eigenvalues of (default mixing * dielectric matrix)
  average eigenvalue GAMMA=   1.5697
  2.7273  1.1046  0.8773

 Free energy of the ion-electron system (eV)
  ---------------------------------------------------
  alpha Z        PSCENC =       160.49562896
  Ewald energy   TEWEN  =     -1297.12854460
  -Hartree energ DENC   =      -151.46326668
  -exchange      EXHF   =         0.00000000
  -V(xc)+E(xc)   XCENC  =         8.11564586
  PAW double counting   =      1641.28318739    -1659.85723069
  entropy T*S    EENTRO =         0.00105316
  eigenvalues    EBANDS =        94.58417953
  atomic energy  EATOM  =      1188.57490811
  Solvation  Ediel_sol  =         0.00000000
  ---------------------------------------------------
  free energy    TOTEN  =       -15.39443894 eV

  energy without entropy =      -15.39549211  energy(sigma->0) =      -15.39479000


--------------------------------------------------------------------------------------------------------




--------------------------------------- Iteration      1(   9)  ---------------------------------------


    POTLOK:  cpu time    0.0030: real time    0.0030
    SETDIJ:  cpu time    0.0021: real time    0.0021
     EDDAV:  cpu time    0.7558: real time    0.7559
       DOS:  cpu time    0.0064: real time    0.0063
    CHARGE:  cpu time    0.0170: real time    0.0170
    MIXING:  cpu time    0.0002: real time    0.0002
    --------------------------------------------
      LOOP:  cpu time    0.7845: real time    0.7845

 eigenvalue-minimisations  : 10248
 total energy-change (2. order) : 0.3823958E-02  (-0.5439744E-04)
 number of electron      16.0000191 magnetization 
 augmentation part        8.2078531 magnetization 

 Broyden mixing:
  rms(total) = 0.72730E-02    rms(broyden)= 0.72647E-02
  rms(prec ) = 0.10175E-01
  weight for this iteration     100.00

 eigenvalues of (default mixing * dielectric matrix)
  average eigenvalue GAMMA=   1.6078
  2.7284  1.8381  0.8883  0.9765

 Free energy of the ion-electron system (eV)
  ---------------------------------------------------
  alpha Z        PSCENC =       160.49562896
  Ewald energy   TEWEN  =     -1297.12854460
  -Hartree energ DENC   =      -150.28668554
  -exchange      EXHF   =         0.00000000
  -V(xc)+E(xc)   XCENC  =         8.07051238
  PAW double counting   =      1718.89779607    -1738.63318666
  entropy T*S    EENTRO =         0.00105337
  eigenvalues    EBANDS =        94.61790291
  atomic energy  EATOM  =      1188.57490811
  Solvation  Ediel_sol  =         0.00000000
  ---------------------------------------------------
  free energy    TOTEN  =       -15.39061499 eV

  energy without entropy =      -15.39166836  energy(sigma->0) =      -15.39096611


--------------------------------------------------------------------------------------------------------




--------------------------------------- Iteration      1(  10)  ---------------------------------------


    POTLOK:  cpu time    0.0029: real time    0.0029
    SETDIJ:  cpu time    0.0021: real time    0.0021
     EDDAV:  cpu time    0.6415: real time    0.6415
       DOS:  cpu time    0.0063: real time    0.0063
    CHARGE:  cpu time    0.0171: real time    0.0171
    MIXING:  cpu time    0.0002: real time    0.0002
    --------------------------------------------
      LOOP:  cpu time    0.6702: real time    0.6703

 eigenvalue-minimisations  :  8456
 total energy-change (2. order) : 0.3623472E-04  (-0.1483784E-05)
 number of electron      16.0000191 magnetization 
 augmentation part        8.2073875 magnetization 

 Broyden mixing:
  rms(total) = 0.27945E-02    rms(broyden)= 0.27936E-02
  rms(prec ) = 0.39577E-02
  weight for this iteration     100.00

 eigenvalues of (default mixing * dielectric matrix)
  average eigenvalue GAMMA=   1.6663
  2.6472  2.4267  0.8842  1.0069  1.3667

 Free energy of the ion-electron system (eV)
  ---------------------------------------------------
  alpha Z        PSCENC =       160.49562896
  Ewald energy   TEWEN  =     -1297.12854460
  -Hartree energ DENC   =      -150.40393790
  -exchange      EXHF   =         0.00000000
  -V(xc)+E(xc)   XCENC  =         8.07647075
  PAW double counting   =      1718.62302702    -1738.23988177
  entropy T*S    EENTRO =         0.00105221
  eigenvalues    EBANDS =        94.61069846
  atomic energy  EATOM  =      1188.57490811
  Solvation  Ediel_sol  =         0.00000000
  ---------------------------------------------------
  free energy    TOTEN  =       -15.39057875 eV

  energy without entropy =      -15.39163096  energy(sigma->0) =      -15.39092949


--------------------------------------------------------------------------------------------------------




--------------------------------------- Iteration      1(  11)  ---------------------------------------


    POTLOK:  cpu time    0.0029: real time    0.0029
    SETDIJ:  cpu time    0.0024: real time    0.0024
     EDDAV:  cpu time    0.6721: real time    0.6721
       DOS:  cpu time    0.0064: real time    0.0064
    CHARGE:  cpu time    0.0173: real time    0.0173
    MIXING:  cpu time    0.0002: real time    0.0002
    --------------------------------------------
      LOOP:  cpu time    0.7013: real time    0.7014

 eigenvalue-minimisations  :  8480
 total energy-change (2. order) : 0.3647899E-04  (-0.4076055E-07)
 number of electron      16.0000191 magnetization 
 augmentation part        8.2071685 magnetization 

 Broyden mixing:
  rms(total) = 0.25375E-03    rms(broyden)= 0.25363E-03
  rms(prec ) = 0.44928E-03
  weight for this iteration     100.00

 eigenvalues of (default mixing * dielectric matrix)
  average eigenvalue GAMMA=   1.5838
  2.5804  2.5804  0.8851  1.0005  1.0005  1.4556

 Free energy of the ion-electron system (eV)
  ---------------------------------------------------
  alpha Z        PSCENC =       160.49562896
  Ewald energy   TEWEN  =     -1297.12854460
  -Hartree energ DENC   =      -150.47467585
  -exchange      EXHF   =         0.00000000
  -V(xc)+E(xc)   XCENC  =         8.07969532
  PAW double counting   =      1716.87115113    -1736.41484108
  entropy T*S    EENTRO =         0.00105223
  eigenvalues    EBANDS =        94.60508350
  atomic energy  EATOM  =      1188.57490811
  Solvation  Ediel_sol  =         0.00000000
  ---------------------------------------------------
  free energy    TOTEN  =       -15.39054227 eV

  energy without entropy =      -15.39159450  energy(sigma->0) =      -15.39089302


--------------------------------------------------------------------------------------------------------




--------------------------------------- Iteration      1(  12)  ---------------------------------------


    POTLOK:  cpu time    0.0030: real time    0.0030
    SETDIJ:  cpu time    0.0021: real time    0.0021
     EDDAV:  cpu time    0.6002: real time    0.6003
       DOS:  cpu time    0.0063: real time    0.0063
    CHARGE:  cpu time    0.0173: real time    0.0173
    MIXING:  cpu time    0.0002: real time    0.0002
    --------------------------------------------
      LOOP:  cpu time    0.6291: real time    0.6292

 eigenvalue-minimisations  :  6456
 total energy-change (2. order) : 0.1695719E-05  (-0.8245265E-08)
 number of electron      16.0000191 magnetization 
 augmentation part        8.2071031 magnetization 

 Broyden mixing:
  rms(total) = 0.12410E-03    rms(broyden)= 0.12396E-03
  rms(prec ) = 0.13721E-03
  weight for this iteration     100.00

 eigenvalues of (default mixing * dielectric matrix)
  average eigenvalue GAMMA=   1.6282
  2.5508  2.5508  2.0069  0.8855  0.9761  1.0138  1.4134

 Free energy of the ion-electron system (eV)
  ---------------------------------------------------
  alpha Z        PSCENC =       160.49562896
  Ewald energy   TEWEN  =     -1297.12854460
  -Hartree energ DENC   =      -150.48563658
  -exchange      EXHF   =         0.00000000
  -V(xc)+E(xc)   XCENC  =         8.08018277
  PAW double counting   =      1716.63567335    -1736.16915322
  entropy T*S    EENTRO =         0.00105227
  eigenvalues    EBANDS =        94.60534835
  atomic energy  EATOM  =      1188.57490811
  Solvation  Ediel_sol  =         0.00000000
  ---------------------------------------------------
  free energy    TOTEN  =       -15.39054058 eV

  energy without entropy =      -15.39159284  energy(sigma->0) =      -15.39089133


--------------------------------------------------------------------------------------------------------




--------------------------------------- Iteration      1(  13)  ---------------------------------------


    POTLOK:  cpu time    0.0030: real time    0.0030
    SETDIJ:  cpu time    0.0021: real time    0.0021
     EDDAV:  cpu time    0.4779: real time    0.4779
       DOS:  cpu time    0.0064: real time    0.0064
    CHARGE:  cpu time    0.0169: real time    0.0169
    MIXING:  cpu time    0.0003: real time    0.0003
    --------------------------------------------
      LOOP:  cpu time    0.5066: real time    0.5066

 eigenvalue-minimisations  :  5120
 total energy-change (2. order) :-0.1413211E-05  (-0.8593363E-09)
 number of electron      16.0000191 magnetization 
 augmentation part        8.2071021 magnetization 

 Broyden mixing:
  rms(total) = 0.21464E-04    rms(broyden)= 0.21456E-04
  rms(prec ) = 0.25578E-04
  weight for this iteration     100.00

 eigenvalues of (default mixing * dielectric matrix)
  average eigenvalue GAMMA=   1.5877
  2.5500  2.5500  2.1409  1.4328  0.8850  1.0102  1.0663  1.0663

 Free energy of the ion-electron system (eV)
  ---------------------------------------------------
  alpha Z        PSCENC =       160.49562896
  Ewald energy   TEWEN  =     -1297.12854460
  -Hartree energ DENC   =      -150.48409938
  -exchange      EXHF   =         0.00000000
  -V(xc)+E(xc)   XCENC  =         8.08010489
  PAW double counting   =      1716.71689174    -1736.25217401
  entropy T*S    EENTRO =         0.00105227
  eigenvalues    EBANDS =        94.60569003
  atomic energy  EATOM  =      1188.57490811
  Solvation  Ediel_sol  =         0.00000000
  ---------------------------------------------------
  free energy    TOTEN  =       -15.39054199 eV

  energy without entropy =      -15.39159426  energy(sigma->0) =      -15.39089275


--------------------------------------------------------------------------------------------------------




--------------------------------------- Iteration      1(  14)  ---------------------------------------


    POTLOK:  cpu time    0.0030: real time    0.0030
    SETDIJ:  cpu time    0.0021: real time    0.0021
     EDDAV:  cpu time    0.4477: real time    0.4477
       DOS:  cpu time    0.0064: real time    0.0064
    --------------------------------------------
      LOOP:  cpu time    0.4592: real time    0.4592

 eigenvalue-minimisations  :  4832
 total energy-change (2. order) :-0.1807698E-06  (-0.2488062E-10)
 number of electron      16.0000191 magnetization 
 augmentation part        8.2071021 magnetization 

 Free energy of the ion-electron system (eV)
  ---------------------------------------------------
  alpha Z        PSCENC =       160.49562896
  Ewald energy   TEWEN  =     -1297.12854460
  -Hartree energ DENC   =      -150.48378106
  -exchange      EXHF   =         0.00000000
  -V(xc)+E(xc)   XCENC  =         8.08008861
  PAW double counting   =      1716.73570844    -1736.27129971
  entropy T*S    EENTRO =         0.00105227
  eigenvalues    EBANDS =        94.60569680
  atomic energy  EATOM  =      1188.57490811
  Solvation  Ediel_sol  =         0.00000000
  ---------------------------------------------------
  free energy    TOTEN  =       -15.39054217 eV

  energy without entropy =      -15.39159444  energy(sigma->0) =      -15.39089293


--------------------------------------------------------------------------------------------------------




 average (electrostatic) potential at core
  the test charge radii are     1.0103
  (the norm of the test charge is              1.0000)
       1 -40.7463       2 -40.7464
 
 
 
 E-fermi :   8.9822     XC(G=0): -14.7993     alpha+bet :-17.9975

 Fermi energy:         8.9822467065

 k-point     1 :       0.0000    0.0000    0.0000
  band No.  band energies     occupation 
      1      -0.8909      2.00000
      2       2.9710      2.00000
      3       6.1146      2.00000
      4       6.9720      2.00000
      5       6.9720      2.00000
      6       7.3583      2.00000
      7       7.3584      2.00000
      8       8.0544      2.00000
      9       8.6305      2.03214
     10       8.6305      2.03214
     11       9.9425     -0.00000
     12       9.9425     -0.00000
     13      17.8974      0.00000
     14      33.9915      0.00000
     15      34.0138      0.00000
     16      37.3885      0.00000
     17      41.3665      0.00000
     18      41.3665      0.00000
     19      42.0452      0.00000
     20      42.0453      0.00000
     21      42.5242      0.00000
     22      44.0706      0.00000
     23      44.0706      0.00000
     24      45.1524      0.00000
     25      48.5950      0.00000
     26      48.5950      0.00000
     27      49.8374      0.00000
     28      53.8180      0.00000
     29      53.8181      0.00000
     30      55.3017      0.00000
     31      55.3017      0.00000
     32      58.3993      0.00000
     33      64.9954      0.00000
     34      65.8959      0.00000
     35      65.9004      0.00000
     36      65.9004      0.00000
     37      67.0069      0.00000
     38      69.9869      0.00000
     39      69.9870      0.00000
     40      72.6352      0.00000

 k-point     2 :       0.0909    0.0000    0.0000
  band No.  band energies     occupation 
      1      -0.5100      2.00000
      2       3.2648      2.00000
      3       6.1474      2.00000
      4       6.8745      2.00000
      5       7.0598      2.00000
      6       7.2080      2.00000
      7       7.2146      2.00000
      8       7.5849      2.00000
      9       8.4281      2.00064
     10       8.4860      2.00252
     11       9.9854     -0.00000
     12      11.2220     -0.00000
     13      17.9079      0.00000
     14      33.1108      0.00000
     15      34.4009      0.00000
     16      36.1347      0.00000
     17      38.1746      0.00000
     18      39.6535      0.00000
     19      40.0595      0.00000
     20      42.3702      0.00000
     21      43.5908      0.00000
     22      45.1470      0.00000
     23      45.2154      0.00000
     24      45.8526      0.00000
     25      49.7943      0.00000
     26      49.9429      0.00000
     27      50.9240      0.00000
     28      51.1651      0.00000
     29      54.1888      0.00000
     30      57.0264      0.00000
     31      57.6329      0.00000
     32      59.8096      0.00000
     33      64.1370      0.00000
     34      64.7726      0.00000
     35      65.0584      0.00000
     36      66.0268      0.00000
     37      66.4406      0.00000
     38      70.2302      0.00000
     39      72.1993      0.00000
     40      72.6233      0.00000

 k-point     3 :       0.1818    0.0000    0.0000
  band No.  band energies     occupation 
      1       0.5509      2.00000
      2       3.9339      2.00000
      3       5.7470      2.00000
      4       5.9601      2.00000
      5       6.6318      2.00000
      6       7.3585      2.00000
      7       7.9036      2.00000
      8       7.9451      2.00000
      9       8.1439      2.00000
     10       8.2223      2.00000
     11      10.0528     -0.00000
     12      13.3261     -0.00000
     13      17.9818      0.00000
     14      29.6522      0.00000
     15      34.8153      0.00000
     16      34.8659      0.00000
     17      35.0269      0.00000
     18      35.5998      0.00000
     19      40.9158      0.00000
     20      41.7561      0.00000
     21      42.4917      0.00000
     22      42.8176      0.00000
     23      46.4736      0.00000
     24      47.7187      0.00000
     25      50.5975      0.00000
     26      51.2036      0.00000
     27      52.5502      0.00000
     28      54.9811      0.00000
     29      57.9507      0.00000
     30      59.2878      0.00000
     31      60.3348      0.00000
     32      61.8722      0.00000
     33      62.9360      0.00000
     34      63.4298      0.00000
     35      63.9733      0.00000
     36      64.2962      0.00000
     37      67.9282      0.00000
     38      70.9745      0.00000
     39      72.5372      0.00000
     40      72.9361      0.00000

 k-point     4 :       0.2727    0.0000    0.0000
  band No.  band energies     occupation 
      1       1.9856      2.00000
      2       4.1490      2.00000
      3       4.6975      2.00000
      4       5.9715      2.00000
      5       6.4420      2.00000
      6       7.3494      2.00000
      7       7.7575      2.00000
      8       8.3371      2.00005
      9       8.8815      1.74443
     10       9.1159      0.10340
     11      10.0855     -0.00000
     12      15.6587      0.00000
     13      18.1561      0.00000
     14      25.5041      0.00000
     15      31.1257      0.00000
     16      32.2988      0.00000
     17      33.2934      0.00000
     18      35.5634      0.00000
     19      39.4150      0.00000
     20      42.1214      0.00000
     21      42.2281      0.00000
     22      42.7824      0.00000
     23      43.9377      0.00000
     24      47.5053      0.00000
     25      54.1192      0.00000
     26      55.5469      0.00000
     27      56.3097      0.00000
     28      57.7427      0.00000
     29      58.4438      0.00000
     30      59.8800      0.00000
     31      61.4825      0.00000
     32      62.6626      0.00000
     33      63.2786      0.00000
     34      63.4164      0.00000
     35      64.4489      0.00000
     36      67.6239      0.00000
     37      68.2058      0.00000
     38      71.6480      0.00000
     39      72.1200      0.00000
     40      72.8606      0.00000

 k-point     5 :       0.3636    0.0000    0.0000
  band No.  band energies     occupation 
      1       3.0744      2.00000
      2       3.7851      2.00000
      3       3.9827      2.00000
      4       6.2346      2.00000
      5       6.8310      2.00000
      6       7.0131      2.00000
      7       7.4408      2.00000
      8       9.8752     -0.00000
      9       9.9219     -0.00000
     10      10.0219     -0.00000
     11      10.0866     -0.00000
     12      17.9428      0.00000
     13      18.1151      0.00000
     14      22.4760      0.00000
     15      27.6856      0.00000
     16      30.1999      0.00000
     17      30.5143      0.00000
     18      34.7225      0.00000
     19      38.2721      0.00000
     20      41.6719      0.00000
     21      41.9351      0.00000
     22      43.8176      0.00000
     23      44.1986      0.00000
     24      47.5146      0.00000
     25      55.2040      0.00000
     26      56.8604      0.00000
     27      57.5263      0.00000
     28      60.7762      0.00000
     29      60.8198      0.00000
     30      61.0480      0.00000
     31      62.2299      0.00000
     32      63.8636      0.00000
     33      64.4353      0.00000
     34      65.2367      0.00000
     35      65.8935      0.00000
     36      67.6283      0.00000
     37      71.4852      0.00000
     38      72.4251      0.00000
     39      72.5405      0.00000
     40      72.6248      0.00000

 k-point     6 :       0.4545    0.0000    0.0000
  band No.  band energies     occupation 
      1       3.2584      2.00000
      2       3.6158      2.00000
      3       3.6228      2.00000
      4       6.5333      2.00000
      5       6.9475      2.00000
      6       7.2650      2.00000
      7       7.3147      2.00000
      8      10.0802     -0.00000
      9      10.4958     -0.00000
     10      10.6330     -0.00000
     11      11.9669     -0.00000
     12      15.9381      0.00000
     13      20.3987      0.00000
     14      22.3857      0.00000
     15      24.9447      0.00000
     16      27.7405      0.00000
     17      29.0114      0.00000
     18      34.0508      0.00000
     19      37.8904      0.00000
     20      40.3734      0.00000
     21      41.8417      0.00000
     22      44.8798      0.00000
     23      46.5775      0.00000
     24      47.1418      0.00000
     25      51.8579      0.00000
     26      57.9419      0.00000
     27      58.4814      0.00000
     28      61.6870      0.00000
     29      62.1194      0.00000
     30      63.2984      0.00000
     31      64.1735      0.00000
     32      64.4537      0.00000
     33      65.5085      0.00000
     34      67.5364      0.00000
     35      68.0931      0.00000
     36      70.3280      0.00000
     37      71.0336      0.00000
     38      71.1194      0.00000
     39      74.0072      0.00000
     40      74.3363      0.00000

 k-point     7 :       0.0909    0.0909    0.0000
  band No.  band energies     occupation 
      1       0.2154      2.00000
      2       3.7755      2.00000
      3       5.9874      2.00000
      4       6.0970      2.00000
      5       6.9271      2.00000
      6       6.9354      2.00000
      7       7.7207      2.00000
      8       7.9159      2.00000
      9       8.0833      2.00000
     10       8.4338      2.00073
     11       9.9947     -0.00000
     12      12.7448     -0.00000
     13      17.9559      0.00000
     14      31.2797      0.00000
     15      33.0839      0.00000
     16      35.0195      0.00000
     17      36.5920      0.00000
     18      38.8252      0.00000
     19      38.9502      0.00000
     20      40.8317      0.00000
     21      41.9592      0.00000
     22      46.6404      0.00000
     23      47.4226      0.00000
     24      48.4277      0.00000
     25      48.7020      0.00000
     26      49.5045      0.00000
     27      49.6910      0.00000
     28      55.4173      0.00000
     29      57.7860      0.00000
     30      58.6930      0.00000
     31      58.8911      0.00000
     32      61.4845      0.00000
     33      62.2203      0.00000
     34      64.2644      0.00000
     35      64.4190      0.00000
     36      65.5405      0.00000
     37      66.1798      0.00000
     38      71.3899      0.00000
     39      72.3261      0.00000
     40      73.5344      0.00000

 k-point     8 :       0.1818    0.0909    0.0000
  band No.  band energies     occupation 
      1       1.5050      2.00000
      2       4.3807      2.00000
      3       5.0831      2.00000
      4       5.6419      2.00000
      5       6.5471      2.00000
      6       7.3437      2.00000
      7       7.5007      2.00000
      8       8.1031      2.00000
      9       8.6222      2.02885
     10       9.0125      0.74737
     11       9.9870     -0.00000
     12      14.8519      0.00000
     13      18.1358      0.00000
     14      27.6153      0.00000
     15      30.4953      0.00000
     16      32.9696      0.00000
     17      35.1719      0.00000
     18      36.4481      0.00000
     19      39.7620      0.00000
     20      39.8274      0.00000
     21      41.2840      0.00000
     22      46.0940      0.00000
     23      46.4242      0.00000
     24      48.0400      0.00000
     25      50.9884      0.00000
     26      51.6042      0.00000
     27      53.9201      0.00000
     28      58.3591      0.00000
     29      59.8254      0.00000
     30      60.1524      0.00000
     31      60.9809      0.00000
     32      62.3836      0.00000
     33      62.6682      0.00000
     34      63.6888      0.00000
     35      65.0646      0.00000
     36      65.3611      0.00000
[...]
     17      30.4297      0.00000
     18      31.3572      0.00000
     19      37.0659      0.00000
     20      37.8099      0.00000
     21      41.9698      0.00000
     22      42.4680      0.00000
     23      47.7342      0.00000
     24      48.7667      0.00000
     25      54.7949      0.00000
     26      56.5840      0.00000
     27      58.9644      0.00000
     28      59.9382      0.00000
     29      61.6628      0.00000
     30      62.7471      0.00000
     31      63.9285      0.00000
     32      63.9850      0.00000
     33      66.1012      0.00000
     34      66.4946      0.00000
     35      69.1978      0.00000
     36      69.3524      0.00000
     37      69.8055      0.00000
     38      70.9465      0.00000
     39      74.1421      0.00000
     40      74.7038      0.00000

 k-point    91 :       0.4545    0.0909    0.4545
  band No.  band energies     occupation 
      1       3.1408      2.00000
      2       3.3155      2.00000
      3       4.7185      2.00000
      4       4.8253      2.00000
      5       7.6741      2.00000
      6       8.1660      2.00000
      7       9.0105      0.76316
      8       9.3951     -0.01293
      9      10.1561     -0.00000
     10      10.1961     -0.00000
     11      12.9356     -0.00000
     12      13.5140     -0.00000
     13      20.4559      0.00000
     14      20.5210      0.00000
     15      29.0584      0.00000
     16      29.6018      0.00000
     17      30.8393      0.00000
     18      31.2096      0.00000
     19      36.7406      0.00000
     20      37.0014      0.00000
     21      41.2879      0.00000
     22      41.3225      0.00000
     23      47.8779      0.00000
     24      48.9363      0.00000
     25      55.0607      0.00000
     26      56.8383      0.00000
     27      61.0455      0.00000
     28      62.0717      0.00000
     29      62.6512      0.00000
     30      62.9349      0.00000
     31      63.0245      0.00000
     32      63.3145      0.00000
     33      66.7294      0.00000
     34      67.7478      0.00000
     35      69.2937      0.00000
     36      69.8843      0.00000
     37      71.5728      0.00000
     38      71.7076      0.00000
     39      75.4857      0.00000
     40      75.5433      0.00000

 k-point    92 :       0.1818    0.1818    0.4545
  band No.  band energies     occupation 
      1       3.4934      2.00000
      2       3.7147      2.00000
      3       5.5524      2.00000
      4       5.5676      2.00000
      5       6.1253      2.00000
      6       6.1538      2.00000
      7       8.1045      2.00000
      8       8.3986      2.00029
      9       9.8766     -0.00000
     10      10.0719     -0.00000
     11      10.6952     -0.00000
     12      11.3094     -0.00000
     13      26.8669      0.00000
     14      26.9673      0.00000
     15      27.5445      0.00000
     16      28.6150      0.00000
     17      29.1804      0.00000
     18      30.3095      0.00000
     19      41.1682      0.00000
     20      42.3469      0.00000
     21      43.2496      0.00000
     22      44.5440      0.00000
     23      46.5919      0.00000
     24      46.7723      0.00000
     25      53.7307      0.00000
     26      54.2574      0.00000
     27      57.1026      0.00000
     28      58.1589      0.00000
     29      60.3446      0.00000
     30      61.3099      0.00000
     31      62.6600      0.00000
     32      62.8336      0.00000
     33      63.8184      0.00000
     34      63.8382      0.00000
     35      65.5823      0.00000
     36      65.8150      0.00000
     37      69.4086      0.00000
     38      71.6028      0.00000
     39      72.3857      0.00000
     40      72.7834      0.00000

 k-point    93 :       0.2727    0.1818    0.4545
  band No.  band energies     occupation 
      1       3.7212      2.00000
      2       3.8375      2.00000
      3       5.2373      2.00000
      4       5.4734      2.00000
      5       6.5649      2.00000
      6       6.7611      2.00000
      7       7.9847      2.00000
      8       8.2652      2.00000
      9      10.0071     -0.00000
     10      10.3440     -0.00000
     11      12.5092     -0.00000
     12      13.0853     -0.00000
     13      23.6283      0.00000
     14      24.2156      0.00000
     15      26.6008      0.00000
     16      27.3994      0.00000
     17      29.3424      0.00000
     18      31.1507      0.00000
     19      38.9475      0.00000
     20      40.5304      0.00000
     21      41.9713      0.00000
     22      43.5622      0.00000
     23      47.3931      0.00000
     24      47.9362      0.00000
     25      55.2551      0.00000
     26      55.7939      0.00000
     27      58.3666      0.00000
     28      60.1600      0.00000
     29      62.0533      0.00000
     30      63.0622      0.00000
     31      63.8745      0.00000
     32      64.1027      0.00000
     33      65.0345      0.00000
     34      65.0675      0.00000
     35      66.9973      0.00000
     36      67.6722      0.00000
     37      69.4395      0.00000
     38      71.3596      0.00000
     39      73.5886      0.00000
     40      74.1900      0.00000

 k-point    94 :       0.3636    0.1818    0.4545
  band No.  band energies     occupation 
      1       3.6950      2.00000
      2       3.8844      2.00000
      3       5.0787      2.00000
      4       5.3022      2.00000
      5       6.6918      2.00000
      6       7.0984      2.00000
      7       8.4122      2.00042
      8       8.5453      2.00841
      9       9.9754     -0.00000
     10      10.1967     -0.00000
     11      14.4446      0.00000
     12      14.9273      0.00000
     13      20.8935      0.00000
     14      21.2735      0.00000
     15      25.9321      0.00000
     16      26.7158      0.00000
     17      30.9614      0.00000
     18      32.1543      0.00000
     19      37.3484      0.00000
     20      38.4671      0.00000
     21      40.8356      0.00000
     22      42.4969      0.00000
     23      48.2827      0.00000
     24      48.7282      0.00000
     25      58.4109      0.00000
     26      58.7899      0.00000
     27      59.2524      0.00000
     28      60.6250      0.00000
     29      62.3619      0.00000
     30      62.6656      0.00000
     31      62.8785      0.00000
     32      63.4769      0.00000
     33      65.7972      0.00000
     34      65.9410      0.00000
     35      68.5753      0.00000
     36      69.2251      0.00000
     37      71.1734      0.00000
     38      71.5481      0.00000
     39      72.7695      0.00000
     40      73.8298      0.00000

 k-point    95 :       0.2727    0.2727    0.4545
  band No.  band energies     occupation 
      1       4.1633      2.00000
      2       4.2597      2.00000
      3       5.3815      2.00000
      4       5.6361      2.00000
      5       6.1681      2.00000
      6       6.4321      2.00000
      7       7.8462      2.00000
      8       8.0822      2.00000
      9       9.9944     -0.00000
     10      10.2345     -0.00000
     11      14.9812      0.00000
     12      15.5408      0.00000
     13      21.8747      0.00000
     14      22.3601      0.00000
     15      24.0848      0.00000
     16      24.5377      0.00000
     17      31.2141      0.00000
     18      32.9223      0.00000
     19      37.3181      0.00000
     20      38.8192      0.00000
     21      40.5808      0.00000
     22      41.8277      0.00000
     23      50.4465      0.00000
     24      50.9150      0.00000
     25      55.6827      0.00000
     26      55.6958      0.00000
     27      61.0388      0.00000
     28      62.3194      0.00000
     29      62.6167      0.00000
     30      62.9064      0.00000
     31      63.6977      0.00000
     32      63.9112      0.00000
     33      64.3731      0.00000
     34      65.1663      0.00000
     35      68.4551      0.00000
     36      68.5859      0.00000
     37      70.9948      0.00000
     38      71.3810      0.00000
     39      71.6226      0.00000
     40      71.9943      0.00000

 k-point    96 :       0.3636    0.2727    0.4545
  band No.  band energies     occupation 
      1       4.4123      2.00000
      2       4.5798      2.00000
      3       5.2813      2.00000
      4       5.3754      2.00000
      5       6.1871      2.00000
      6       6.3456      2.00000
      7       7.9098      2.00000
      8       8.0853      2.00000
      9       9.9696     -0.00000
     10      10.0573     -0.00000
     11      16.9863      0.00000
     12      17.1593      0.00000
     13      20.0673      0.00000
     14      20.4623      0.00000
     15      23.4155      0.00000
     16      23.8680      0.00000
     17      32.9441      0.00000
     18      33.9354      0.00000
     19      36.4239      0.00000
     20      36.5660      0.00000
     21      40.3660      0.00000
     22      41.2157      0.00000
     23      51.8576      0.00000
     24      52.5234      0.00000
     25      56.6684      0.00000
     26      57.0938      0.00000
     27      60.3057      0.00000
     28      60.6601      0.00000
     29      62.4831      0.00000
     30      62.8768      0.00000
     31      63.8080      0.00000
     32      63.9673      0.00000
     33      65.3462      0.00000
     34      65.7138      0.00000
     35      66.7131      0.00000
     36      68.1791      0.00000
     37      69.9521      0.00000
     38      71.6781      0.00000
     39      73.6928      0.00000
     40      74.1464      0.00000


--------------------------------------------------------------------------------------------------------


 soft charge-density along one line, spin component           1
         0         1         2         3         4         5         6         7         8         9
x     7.7929    0.0000    0.0515   -0.0892   -0.0476   -0.0824    0.0225    0.0000    0.0008   -0.0014
x     0.0000    0.0000
y     7.7929    0.0000    0.0515    0.0892   -0.0476    0.0824    0.0225   -0.0000    0.0008    0.0014
y     0.0000    0.0000
z     7.7929    0.0000    0.0000    0.0000    0.3382    0.0000    0.0000    0.0000   -0.1368    0.0000
z     0.0000    0.0000    0.0235   -0.0000    0.0000    0.0000    0.0000    0.0000
 total charge-density along one line
x    16.0000    0.0000    1.3696   -2.3723    0.2381    0.4124   -0.0012   -0.0000    0.0024   -0.0041
x    -0.0005   -0.0009    0.0009   -0.0000   -0.0001    0.0002    0.0001    0.0001   -0.0001    0.0000
x     0.0000    0.0000
y    16.0000    0.0000    1.3696    2.3723    0.2381   -0.4124   -0.0012    0.0000    0.0024    0.0041
y    -0.0005    0.0009    0.0009    0.0000   -0.0001   -0.0002    0.0001   -0.0001   -0.0001   -0.0000
y     0.0000   -0.0000
z    16.0000    0.0000    0.0000    0.0000    5.7340    0.0000   -0.0000    0.0000    1.1423    0.0000
z     0.0000   -0.0000    0.0171    0.0000    0.0000   -0.0000    0.0045    0.0000   -0.0000   -0.0000
z    -0.0012    0.0000   -0.0000    0.0000    0.0005    0.0000   -0.0000    0.0000   -0.0003    0.0000
z     0.0000   -0.0000    0.0003    0.0000
 
 pseudopotential strength for first ion, spin component:           1
 -3.231   0.000  -0.000  -0.000  -0.000  -3.830   0.000  -0.000
  0.000  -3.208   0.000  -0.000   0.000   0.000  -3.806   0.000
 -0.000   0.000  -3.217   0.000  -0.000  -0.000   0.000  -3.815
 -0.000  -0.000   0.000  -3.208  -0.000  -0.000  -0.000   0.000
 -0.000   0.000  -0.000  -0.000  -3.231  -0.000   0.000  -0.000
 -3.830   0.000  -0.000  -0.000  -0.000  -4.384   0.000  -0.000
  0.000  -3.806   0.000  -0.000   0.000   0.000  -4.361   0.000
 -0.000   0.000  -3.815   0.000  -0.000  -0.000   0.000  -4.370
 -0.000  -0.000   0.000  -3.806  -0.000  -0.000  -0.000   0.000
 -0.000   0.000  -0.000  -0.000  -3.830  -0.000   0.000  -0.000
  0.000   0.000  -0.000  -0.000  -0.000   0.000   0.000  -0.001
  0.000   0.000  -0.000  -0.000  -0.000   0.000   0.000  -0.001
 -0.000   0.000  -0.000  -0.000  -0.001  -0.000   0.000  -0.000
 -0.000  -0.000   0.000   0.000   0.000  -0.000  -0.000   0.000
 -0.001  -0.000   0.000   0.000  -0.000  -0.001  -0.000   0.000
 -0.000   0.000  -0.000  -0.000  -0.001  -0.000   0.000  -0.000
 -0.000  -0.000   0.000   0.000   0.000  -0.000  -0.000   0.000
 -0.001  -0.000   0.000   0.000  -0.000  -0.001  -0.000   0.000
 total augmentation occupancy for first ion, spin component:           1
  2.017   0.000   0.000   0.000   0.000  -1.738   0.000  -0.000   0.000  -0.000   0.000  -0.000   0.000   0.000   0.042  -0.000
 -0.000   2.525   0.000  -0.000  -0.000   0.000  -1.974  -0.000   0.000   0.000   0.000   0.000   0.000   0.000   0.000   0.000
  0.000   0.000   1.605   0.000  -0.000  -0.000   0.000  -1.368  -0.000   0.000   0.042  -0.011  -0.000   0.000   0.000   0.000
  0.000  -0.000   0.000   2.525   0.000   0.000   0.000   0.000  -1.974  -0.000  -0.000  -0.000   0.000   0.000   0.000   0.000
  0.000   0.000  -0.000   0.000   2.017   0.000   0.000   0.000  -0.000  -1.738   0.000  -0.000   0.042  -0.000  -0.000  -0.001
 -1.738   0.000  -0.000   0.000  -0.000   2.851   0.000   0.000   0.000  -0.000  -0.000   0.000  -0.000   0.000  -0.057   0.000
  0.000  -1.974  -0.000   0.000   0.000   0.000   2.776   0.000  -0.000   0.000  -0.000   0.000   0.000   0.000  -0.000   0.000
 -0.000   0.000  -1.368  -0.000   0.000   0.000   0.000   2.507  -0.000  -0.000  -0.118   0.002   0.000   0.000  -0.000  -0.000
  0.000   0.000   0.000  -1.974   0.000  -0.000  -0.000  -0.000   2.776  -0.000  -0.000  -0.000  -0.000  -0.000   0.000   0.000
  0.000   0.000   0.000   0.000  -1.738  -0.000   0.000  -0.000   0.000   2.851  -0.000   0.000  -0.057  -0.000   0.000   0.002
  0.000  -0.000   0.042   0.000   0.000   0.000  -0.000  -0.118  -0.000  -0.000   3.217  -0.389  -0.000   0.000   0.000   0.000
 -0.000  -0.000  -0.011  -0.000  -0.000   0.000   0.000   0.002   0.000   0.000  -0.389   0.054   0.000   0.000   0.000  -0.000
  0.000   0.000  -0.000   0.000   0.042  -0.000   0.000   0.000   0.000  -0.057   0.000   0.000   0.449  -0.000  -0.000  -0.033
 -0.000   0.000   0.000   0.000  -0.000   0.000   0.000   0.000  -0.000  -0.000   0.000   0.000   0.000   0.426  -0.000  -0.000
  0.042   0.000   0.000   0.000  -0.000  -0.057   0.000  -0.000   0.000   0.000   0.000   0.000  -0.000  -0.000   0.449   0.000
 -0.000   0.000   0.000   0.000  -0.001   0.000  -0.000  -0.000   0.000   0.002   0.000   0.000  -0.033   0.000   0.000   0.003
  0.000  -0.000   0.000   0.000  -0.000   0.000   0.000   0.000   0.000   0.000   0.000   0.000   0.000  -0.037   0.000   0.000
 -0.001  -0.000  -0.000  -0.000   0.000   0.002   0.000  -0.000  -0.000  -0.000   0.000  -0.000   0.000   0.000  -0.033  -0.000


------------------------ aborting loop because EDIFF is reached ----------------------------------------


    CHARGE:  cpu time    0.0173: real time    0.0173
    FORLOC:  cpu time    0.0002: real time    0.0002
    FORNL :  cpu time    0.0837: real time    0.0837
    STRESS:  cpu time    0.1260: real time    0.1260
    FORCOR:  cpu time    0.0030: real time    0.0030
    FORHAR:  cpu time    0.0007: real time    0.0007
    MIXING:  cpu time    0.0002: real time    0.0002

  FORCE on cell =-STRESS in cart. coord.  units (eV):
  Direction    XX          YY          ZZ          XY          YZ          ZX
  --------------------------------------------------------------------------------------
  Alpha Z   160.49563   160.49563   160.49563
  Ewald    -414.85996  -414.85996  -467.40939     0.00000    -0.00000    -0.00000
  Hartree    56.08767    56.08767    38.30836    -0.00000    -0.00000    -0.00000
  E(xc)     -80.59065   -80.59065   -80.26076     0.00006    -0.00000    -0.00000
  Local     106.94520   106.94529   172.81643    -0.00048    -0.00000     0.00000
  n-local   -48.11464   -47.70901   -50.90316    -5.60632     1.47176     0.97463
  augment    74.52984    74.52968    75.29318     0.00048     0.00000     0.00000
  Kinetic   159.54052   153.03146   153.49696     1.47780    -0.93986     0.17737
  Fock        0.00000     0.00000     0.00000     0.00000     0.00000     0.00000
  -------------------------------------------------------------------------------------
  Total      10.98186    10.98186     1.83726    -0.00000    -0.00000     0.00000
  in kB    1021.46860  1021.46860   170.89104    -0.00000    -0.00000     0.00000
  external pressure =      737.94 kB  Pullay stress =        0.00 kB


 VOLUME and BASIS-vectors are now :
 -----------------------------------------------------------------------------
  energy-cutoff  :      280.00
  volume of cell :       17.23
      direct lattice vectors                 reciprocal lattice vectors
     2.236800000  0.000000000  0.000000000     0.447067239  0.258114391  0.000000000
    -1.118400000  1.937125623  0.000000000     0.000000000  0.516228781  0.000000000
     0.000000000  0.000000000  3.975360000     0.000000000  0.000000000  0.251549545

  length of vectors
     2.236800000  2.236800000  3.975360000     0.516228781  0.516228781  0.251549545


 FORCES acting on ions
    electron-ion (+dipol)            ewald-force                    non-local-force                 convergence-correction
 -----------------------------------------------------------------------------------------------
   0.973E-06 -.555E-06 0.141E-13   0.614E-12 -.362E-12 -.274E-13   -.134E-17 -.179E-17 0.204E-18   -.597E-08 0.345E-08 -.946E-13
   0.536E-06 0.245E-05 0.684E-13   -.611E-12 0.361E-12 0.274E-13   -.100E-17 0.309E-17 -.621E-19   0.597E-08 -.345E-08 0.623E-13
 -----------------------------------------------------------------------------------------------
   0.151E-05 0.189E-05 0.824E-13   0.335E-14 -.733E-15 -.106E-16   -.234E-17 0.130E-17 0.142E-18   0.194E-12 -.107E-13 -.323E-13
 
 
 POSITION                                       TOTAL-FORCE (eV/Angst)
 -----------------------------------------------------------------------------------
      0.00000      0.00000      0.00000        -0.000000     -0.000000     -0.000000
      0.00000      1.29142      1.98768         0.000000      0.000000      0.000000
 -----------------------------------------------------------------------------------
    total drift:                                0.000002      0.000002      0.000000


--------------------------------------------------------------------------------------------------------



  FREE ENERGIE OF THE ION-ELECTRON SYSTEM (eV)
  ---------------------------------------------------
  free  energy   TOTEN  =       -15.39054217 eV

  energy  without entropy=      -15.39159444  energy(sigma->0) =      -15.39089293
 


--------------------------------------------------------------------------------------------------------


    POTLOK:  cpu time    0.0052: real time    0.0052


--------------------------------------------------------------------------------------------------------


 writing wavefunctions
     LOOP+:  cpu time    9.9733: real time    9.9936
    4ORBIT:  cpu time    0.0000: real time    0.0000

 total amount of memory used by VASP MPI-rank0    47571. kBytes
=======================================================================

   base      :      30000. kBytes
   nonl-proj :       2688. kBytes
   grid      :        721. kBytes
   one-center:         31. kBytes
   wavefun   :      14131. kBytes
 
  
  
 General timing and accounting informations for this job:
 ========================================================
  
                  Total CPU time used (sec):       10.142
                            User time (sec):       10.078
                          System time (sec):        0.064
                         Elapsed time (sec):       10.151
  
                   Maximum memory used (kb):       52628.
                   Average memory used (kb):          N/A
  
                          Minor page faults:         6920
                          Major page faults:            0
                 Voluntary context switches:           26
