unknown system                          
   1.00000000000000     
     3.635000    0.000000    0.000000
     0.000000    3.635000    0.000000
     0.000000    0.000000    3.635000
   Cu
     4
Direct
  0.000000  0.000000  0.000000
  0.500000  0.500000  0.000000
  0.500000  0.000000  0.500000
  0.000000  0.500000  0.500000
 
   24   24   24
  781.74      704.43      512.68      297.22      137.24      57.638      31.347      17.141      8.3589      6.5965    
  6.6209      5.0655      3.8781      5.0655      6.6209      6.5965      8.3589      17.141      31.347      57.638    
  137.24      297.22      512.68      704.43      704.43      634.36      460.82      266.53      123.37      53.145    
  29.857      16.221      8.2103      6.9057      7.2466      6.0603      5.0655      6.0603      7.2466      6.9057    
  8.2103      16.221      29.857      53.145      123.37      266.53      460.82      634.36      512.68      460.82    
  333.03      191.75      90.312      42.736      25.903      13.951      7.7864      7.1955      7.8417      7.2466    
  6.6209      7.2466      7.8417      7.1955      7.7864      13.951      25.903      42.736      90.312      191.75    
  333.03      460.82      297.22      266.53      191.75      111.26      56.455      32.247      20.405      11.346    
  7.2610      6.8490      7.1955      6.9057      6.5965      6.9057      7.1955      6.8490      7.2610      11.346    
  20.405      32.247      56.455      111.26      191.75      266.53      137.24      123.37      90.312      56.455    
  34.922      23.649      14.755      9.2964      7.2981      7.2610      7.7864      8.2103      8.3589      8.2103    
  7.7864      7.2610      7.2981      9.2964      14.755      23.649      34.922      56.455      90.312      123.37    
  57.638      53.145      42.736      32.247      23.649      15.762      10.523      8.6465      9.2964      11.346    
  13.951      16.221      17.141      16.221      13.951      11.346      9.2964      8.6465      10.523      15.762    
  23.649      32.247      42.736      53.145      31.347      29.857      25.903      20.405      14.755      10.523    
  8.9536      10.523      14.755      20.405      25.903      29.857      31.347      29.857      25.903      20.405    
  14.755      10.523      8.9536      10.523      14.755      20.405      25.903      29.857      17.141      16.221    
  13.951      11.346      9.2964      8.6465      10.523      15.762      23.649      32.247      42.736      53.145    
  57.638      53.145      42.736      32.247      23.649      15.762      10.523      8.6465      9.2964      11.346    
  13.951      16.221      8.3589      8.2103      7.7864      7.2610      7.2981      9.2964      14.755      23.649    
  34.922      56.455      90.312      123.37      137.24      123.37      90.312      56.455      34.922      23.649    
  14.755      9.2964      7.2981      7.2610      7.7864      8.2103      6.5965      6.9057      7.1955      6.8490    
  7.2610      11.346      20.405      32.247      56.455      111.26      191.75      266.53      297.22      266.53    
  191.75      111.26      56.455      32.247      20.405      11.346      7.2610      6.8490      7.1955      6.9057    
  6.6209      7.2466      7.8417      7.1955      7.7864      13.951      25.903      42.736      90.312      191.75    
  333.03      460.82      512.68      460.82      333.03      191.75      90.312      42.736      25.903      13.951    
  7.7864      7.1955      7.8417      7.2466      5.0655      6.0603      7.2466      6.9057      8.2103      16.221    
  29.857      53.145      123.37      266.53      460.82      634.36      704.43      634.36      460.82      266.53    
  123.37      53.145      29.857      16.221      8.2103      6.9057      7.2466      6.0603      3.8781      5.0655    
  6.6209      6.5965      8.3589      17.141      31.347      57.638      137.24      297.22      512.68      704.43    
  781.74      704.43      512.68      297.22      137.24      57.638      31.347      17.141      8.3589      6.5965    
  6.6209      5.0655      5.0655      6.0603      7.2466      6.9057      8.2103      16.221      29.857      53.145    
  123.37      266.53      460.82      634.36      704.43      634.36      460.82      266.53      123.37      53.145    
  29.857      16.221      8.2103      6.9057      7.2466      6.0603      6.6209      7.2466      7.8417      7.1955    
  7.7864      13.951      25.903      42.736      90.312      191.75      333.03      460.82      512.68      460.82    
  333.03      191.75      90.312      42.736      25.903      13.951      7.7864      7.1955      7.8417      7.2466    
  6.5965      6.9057      7.1955      6.8490      7.2610      11.346      20.405      32.247      56.455      111.26    
  191.75      266.53      297.22      266.53      191.75      111.26      56.455      32.247      20.405      11.346    
  7.2610      6.8490      7.1955      6.9057      8.3589      8.2103      7.7864      7.2610      7.2981      9.2964    
  14.755      23.649      34.922      56.455      90.312      123.37      137.24      123.37      90.312      56.455    
  34.922      23.649      14.755      9.2964      7.2981      7.2610      7.7864      8.2103      17.141      16.221    
  13.951      11.346      9.2964      8.6465      10.523      15.762      23.649      32.247      42.736      53.145    
  57.638      53.145      42.736      32.247      23.649      15.762      10.523      8.6465      9.2964      11.346    
  13.951      16.221      31.347      29.857      25.903      20.405      14.755      10.523      8.9536      10.523    
  14.755      20.405      25.903      29.857      31.347      29.857      25.903      20.405      14.755      10.523    
  8.9536      10.523      14.755      20.405      25.903      29.857      57.638      53.145      42.736      32.247    
  23.649      15.762      10.523      8.6465      9.2964      11.346      13.951      16.221      17.141      16.221    
  13.951      11.346      9.2964      8.6465      10.523      15.762      23.649      32.247      42.736      53.145    
  137.24      123.37      90.312      56.455      34.922      23.649      14.755      9.2964      7.2981      7.2610    
  7.7864      8.2103      8.3589      8.2103      7.7864      7.2610      7.2981      9.2964      14.755      23.649    
  34.922      56.455      90.312      123.37      297.22      266.53      191.75      111.26      56.455      32.247    
  20.405      11.346      7.2610      6.8490      7.1955      6.9057      6.5965      6.9057      7.1955      6.8490    
  7.2610      11.346      20.405      32.247      56.455      111.26      191.75      266.53      512.68      460.82    
  333.03      191.75      90.312      42.736      25.903      13.951      7.7864      7.1955      7.8417      7.2466    
  6.6209      7.2466      7.8417      7.1955      7.7864      13.951      25.903      42.736      90.312      191.75    
  333.03      460.82      704.43      634.36      460.82      266.53      123.37      53.145      29.857      16.221    
  8.2103      6.9057      7.2466      6.0603      5.0655      6.0603      7.2466      6.9057      8.2103      16.221    
  29.857      53.145      123.37      266.53      460.82      634.36      704.43      634.36      460.82      266.53    
  123.37      53.145      29.857      16.221      8.2103      6.9057      7.2466      6.0603      5.0655      6.0603    
  7.2466      6.9057      8.2103      16.221      29.857      53.145      123.37      266.53      460.82      634.36    
  634.36      570.90      414.01      239.03      111.11      49.236      28.443      15.338      8.0422      7.1396    
  7.7483      6.8845      6.0603      6.8845      7.7483      7.1396      8.0422      15.338      28.443      49.236    
  111.11      239.03      414.01      570.90      460.82      414.01      298.87      172.15      81.973      40.183    
  24.631      13.188      7.5964      7.2910      8.1151      7.7483      7.2466      7.7483      8.1151      7.2910    
  7.5964      13.188      24.631      40.183      81.973      172.15      298.87      414.01      266.53      239.03    
  172.15      100.59      52.333      30.933      19.406      10.792      7.0878      6.8419      7.2910      7.1396    
  6.9057      7.1396      7.2910      6.8419      7.0878      10.792      19.406      30.933      52.333      100.59    
  172.15      239.03      123.37      111.11      81.973      52.333      33.472      22.793      14.157      8.9861    
  7.1241      7.0878      7.5964      8.0422      8.2103      8.0422      7.5964      7.0878      7.1241      8.9861    
  14.157      22.793      33.472      52.333      81.973      111.11      53.145      49.236      40.183      30.933    
  22.793      15.251      10.298      8.4870      8.9861      10.792      13.188      15.338      16.221      15.338    
  13.188      10.792      8.9861      8.4870      10.298      15.251      22.793      30.933      40.183      49.236    
  29.857      28.443      24.631      19.406      14.157      10.298      8.8828      10.298      14.157      19.406    
  24.631      28.443      29.857      28.443      24.631      19.406      14.157      10.298      8.8828      10.298    
  14.157      19.406      24.631      28.443      16.221      15.338      13.188      10.792      8.9861      8.4870    
  10.298      15.251      22.793      30.933      40.183      49.236      53.145      49.236      40.183      30.933    
  22.793      15.251      10.298      8.4870      8.9861      10.792      13.188      15.338      8.2103      8.0422    
  7.5964      7.0878      7.1241      8.9861      14.157      22.793      33.472      52.333      81.973      111.11    
  123.37      111.11      81.973      52.333      33.472      22.793      14.157      8.9861      7.1241      7.0878    
  7.5964      8.0422      6.9057      7.1396      7.2910      6.8419      7.0878      10.792      19.406      30.933    
  52.333      100.59      172.15      239.03      266.53      239.03      172.15      100.59      52.333      30.933    
  19.406      10.792      7.0878      6.8419      7.2910      7.1396      7.2466      7.7483      8.1151      7.2910    
  7.5964      13.188      24.631      40.183      81.973      172.15      298.87      414.01      460.82      414.01    
  298.87      172.15      81.973      40.183      24.631      13.188      7.5964      7.2910      8.1151      7.7483    
  6.0603      6.8845      7.7483      7.1396      8.0422      15.338      28.443      49.236      111.11      239.03    
  414.01      570.90      634.36      570.90      414.01      239.03      111.11      49.236      28.443      15.338    
  8.0422      7.1396      7.7483      6.8845      5.0655      6.0603      7.2466      6.9057      8.2103      16.221    
  29.857      53.145      123.37      266.53      460.82      634.36      704.43      634.36      460.82      266.53    
  123.37      53.145      29.857      16.221      8.2103      6.9057      7.2466      6.0603      6.0603      6.8845    
  7.7483      7.1396      8.0422      15.338      28.443      49.236      111.11      239.03      414.01      570.90    
  634.36      570.90      414.01      239.03      111.11      49.236      28.443      15.338      8.0422      7.1396    
  7.7483      6.8845      7.2466      7.7483      8.1151      7.2910      7.5964      13.188      24.631      40.183    
  81.973      172.15      298.87      414.01      460.82      414.01      298.87      172.15      81.973      40.183    
  24.631      13.188      7.5964      7.2910      8.1151      7.7483      6.9057      7.1396      7.2910      6.8419    
  7.0878      10.792      19.406      30.933      52.333      100.59      172.15      239.03      266.53      239.03    
  172.15      100.59      52.333      30.933      19.406      10.792      7.0878      6.8419      7.2910      7.1396    
  8.2103      8.0422      7.5964      7.0878      7.1241      8.9861      14.157      22.793      33.472      52.333    
  81.973      111.11      123.37      111.11      81.973      52.333      33.472      22.793      14.157      8.9861    
  7.1241      7.0878      7.5964      8.0422      16.221      15.338      13.188      10.792      8.9861      8.4870    
  10.298      15.251      22.793      30.933      40.183      49.236      53.145      49.236      40.183      30.933    
  22.793      15.251      10.298      8.4870      8.9861      10.792      13.188      15.338      29.857      28.443    
  24.631      19.406      14.157      10.298      8.8828      10.298      14.157      19.406      24.631      28.443    
  29.857      28.443      24.631      19.406      14.157      10.298      8.8828      10.298      14.157      19.406    
  24.631      28.443      53.145      49.236      40.183      30.933      22.793      15.251      10.298      8.4870    
  8.9861      10.792      13.188      15.338      16.221      15.338      13.188      10.792      8.9861      8.4870    
  10.298      15.251      22.793      30.933      40.183      49.236      123.37      111.11      81.973      52.333    
  33.472      22.793      14.157      8.9861      7.1241      7.0878      7.5964      8.0422      8.2103      8.0422    
  7.5964      7.0878      7.1241      8.9861      14.157      22.793      33.472      52.333      81.973      111.11    
  266.53      239.03      172.15      100.59      52.333      30.933      19.406      10.792      7.0878      6.8419    
  7.2910      7.1396      6.9057      7.1396      7.2910      6.8419      7.0878      10.792      19.406      30.933    
  52.333      100.59      172.15      239.03      460.82      414.01      298.87      172.15      81.973      40.183    
  24.631      13.188      7.5964      7.2910      8.1151      7.7483      7.2466      7.7483      8.1151      7.2910    
  7.5964      13.188      24.631      40.183      81.973      172.15      298.87      414.01      634.36      570.90    
  414.01      239.03      111.11      49.236      28.443      15.338      8.0422      7.1396      7.7483      6.8845    
  6.0603      6.8845      7.7483      7.1396      8.0422      15.338      28.443      49.236      111.11      239.03    
  414.01      570.90      512.68      460.82      333.03      191.75      90.312      42.736      25.903      13.951    
  7.7864      7.1955      7.8417      7.2466      6.6209      7.2466      7.8417      7.1955      7.7864      13.951    
  25.903      42.736      90.312      191.75      333.03      460.82      460.82      414.01      298.87      172.15    
  81.973      40.183      24.631      13.188      7.5964      7.2910      8.1151      7.7483      7.2466      7.7483    
  8.1151      7.2910      7.5964      13.188      24.631      40.183      81.973      172.15      298.87      414.01    
  333.03      298.87      215.40      124.91      62.372      34.195      21.240      11.397      7.1621      7.2416    
  8.1527      8.1151      7.8417      8.1151      8.1527      7.2416      7.1621      11.397      21.240      34.195    
  62.372      124.91      215.40      298.87      191.75      172.15      124.91      75.307      42.747      27.482    
  16.806      9.5512      6.7667      6.7460      7.2416      7.2910      7.1955      7.2910      7.2416      6.7460    
  6.7667      9.5512      16.806      27.482      42.747      75.307      124.91      172.15      90.312      81.973    
  62.372      42.747      29.807      20.275      12.601      8.3204      6.8395      6.7667      7.1621      7.5964    
  7.7864      7.5964      7.1621      6.7667      6.8395      8.3204      12.601      20.275      29.807      42.747    
  62.372      81.973      42.736      40.183      34.195      27.482      20.275      13.777      9.6676      8.1207    
  8.3204      9.5512      11.397      13.188      13.951      13.188      11.397      9.5512      8.3204      8.1207    
  9.6676      13.777      20.275      27.482      34.195      40.183      25.903      24.631      21.240      16.806    
  12.601      9.6676      8.6247      9.6676      12.601      16.806      21.240      24.631      25.903      24.631    
  21.240      16.806      12.601      9.6676      8.6247      9.6676      12.601      16.806      21.240      24.631    
  13.951      13.188      11.397      9.5512      8.3204      8.1207      9.6676      13.777      20.275      27.482    
  34.195      40.183      42.736      40.183      34.195      27.482      20.275      13.777      9.6676      8.1207    
  8.3204      9.5512      11.397      13.188      7.7864      7.5964      7.1621      6.7667      6.8395      8.3204    
  12.601      20.275      29.807      42.747      62.372      81.973      90.312      81.973      62.372      42.747    
  29.807      20.275      12.601      8.3204      6.8395      6.7667      7.1621      7.5964      7.1955      7.2910    
  7.2416      6.7460      6.7667      9.5512      16.806      27.482      42.747      75.307      124.91      172.15    
  191.75      172.15      124.91      75.307      42.747      27.482      16.806      9.5512      6.7667      6.7460    
  7.2416      7.2910      7.8417      8.1151      8.1527      7.2416      7.1621      11.397      21.240      34.195    
  62.372      124.91      215.40      298.87      333.03      298.87      215.40      124.91      62.372      34.195    
  21.240      11.397      7.1621      7.2416      8.1527      8.1151      7.2466      7.7483      8.1151      7.2910    
  7.5964      13.188      24.631      40.183      81.973      172.15      298.87      414.01      460.82      414.01    
  298.87      172.15      81.973      40.183      24.631      13.188      7.5964      7.2910      8.1151      7.7483    
  6.6209      7.2466      7.8417      7.1955      7.7864      13.951      25.903      42.736      90.312      191.75    
  333.03      460.82      512.68      460.82      333.03      191.75      90.312      42.736      25.903      13.951    
  7.7864      7.1955      7.8417      7.2466      7.2466      7.7483      8.1151      7.2910      7.5964      13.188    
  24.631      40.183      81.973      172.15      298.87      414.01      460.82      414.01      298.87      172.15    
  81.973      40.183      24.631      13.188      7.5964      7.2910      8.1151      7.7483      7.8417      8.1151    
  8.1527      7.2416      7.1621      11.397      21.240      34.195      62.372      124.91      215.40      298.87    
  333.03      298.87      215.40      124.91      62.372      34.195      21.240      11.397      7.1621      7.2416    
  8.1527      8.1151      7.1955      7.2910      7.2416      6.7460      6.7667      9.5512      16.806      27.482    
  42.747      75.307      124.91      172.15      191.75      172.15      124.91      75.307      42.747      27.482    
  16.806      9.5512      6.7667      6.7460      7.2416      7.2910      7.7864      7.5964      7.1621      6.7667    
  6.8395      8.3204      12.601      20.275      29.807      42.747      62.372      81.973      90.312      81.973    
  62.372      42.747      29.807      20.275      12.601      8.3204      6.8395      6.7667      7.1621      7.5964    
  13.951      13.188      11.397      9.5512      8.3204      8.1207      9.6676      13.777      20.275      27.482    
  34.195      40.183      42.736      40.183      34.195      27.482      20.275      13.777      9.6676      8.1207    
  8.3204      9.5512      11.397      13.188      25.903      24.631      21.240      16.806      12.601      9.6676    
  8.6247      9.6676      12.601      16.806      21.240      24.631      25.903      24.631      21.240      16.806    
  12.601      9.6676      8.6247      9.6676      12.601      16.806      21.240      24.631      42.736      40.183    
  34.195      27.482      20.275      13.777      9.6676      8.1207      8.3204      9.5512      11.397      13.188    
  13.951      13.188      11.397      9.5512      8.3204      8.1207      9.6676      13.777      20.275      27.482    
  34.195      40.183      90.312      81.973      62.372      42.747      29.807      20.275      12.601      8.3204    
  6.8395      6.7667      7.1621      7.5964      7.7864      7.5964      7.1621      6.7667      6.8395      8.3204    
  12.601      20.275      29.807      42.747      62.372      81.973      191.75      172.15      124.91      75.307    
  42.747      27.482      16.806      9.5512      6.7667      6.7460      7.2416      7.2910      7.1955      7.2910    
  7.2416      6.7460      6.7667      9.5512      16.806      27.482      42.747      75.307      124.91      172.15    
  333.03      298.87      215.40      124.91      62.372      34.195      21.240      11.397      7.1621      7.2416    
  8.1527      8.1151      7.8417      8.1151      8.1527      7.2416      7.1621      11.397      21.240      34.195    
  62.372      124.91      215.40      298.87      460.82      414.01      298.87      172.15      81.973      40.183    
  24.631      13.188      7.5964      7.2910      8.1151      7.7483      7.2466      7.7483      8.1151      7.2910    
  7.5964      13.188      24.631      40.183      81.973      172.15      298.87      414.01      297.22      266.53    
  191.75      111.26      56.455      32.247      20.405      11.346      7.2610      6.8490      7.1955      6.9057    
  6.5965      6.9057      7.1955      6.8490      7.2610      11.346      20.405      32.247      56.455      111.26    
  191.75      266.53      266.53      239.03      172.15      100.59      52.333      30.933      19.406      10.792    
  7.0878      6.8419      7.2910      7.1396      6.9057      7.1396      7.2910      6.8419      7.0878      10.792    
  19.406      30.933      52.333      100.59      172.15      239.03      191.75      172.15      124.91      75.307    
  42.747      27.482      16.806      9.5512      6.7667      6.7460      7.2416      7.2910      7.1955      7.2910    
  7.2416      6.7460      6.7667      9.5512      16.806      27.482      42.747      75.307      124.91      172.15    
  111.26      100.59      75.307      49.627      32.963      22.358      13.559      8.4026      6.6099      6.5125    
  6.7460      6.8419      6.8490      6.8419      6.7460      6.5125      6.6099      8.4026      13.559      22.358    
  32.963      49.627      75.307      100.59      56.455      52.333      42.747      32.963      24.608      16.501    
  10.663      7.7600      6.7885      6.6099      6.7667      7.0878      7.2610      7.0878      6.7667      6.6099    
  6.7885      7.7600      10.663      16.501      24.608      32.963      42.747      52.333      32.247      30.933    
  27.482      22.358      16.501      11.623      8.7666      7.7358      7.7600      8.4026      9.5512      10.792    
  11.346      10.792      9.5512      8.4026      7.7600      7.7358      8.7666      11.623      16.501      22.358    
  27.482      30.933      20.405      19.406      16.806      13.559      10.663      8.7666      8.1194      8.7666    
  10.663      13.559      16.806      19.406      20.405      19.406      16.806      13.559      10.663      8.7666    
  8.1194      8.7666      10.663      13.559      16.806      19.406      11.346      10.792      9.5512      8.4026    
  7.7600      7.7358      8.7666      11.623      16.501      22.358      27.482      30.933      32.247      30.933    
  27.482      22.358      16.501      11.623      8.7666      7.7358      7.7600      8.4026      9.5512      10.792    
  7.2610      7.0878      6.7667      6.6099      6.7885      7.7600      10.663      16.501      24.608      32.963    
  42.747      52.333      56.455      52.333      42.747      32.963      24.608      16.501      10.663      7.7600    
  6.7885      6.6099      6.7667      7.0878      6.8490      6.8419      6.7460      6.5125      6.6099      8.4026    
  13.559      22.358      32.963      49.627      75.307      100.59      111.26      100.59      75.307      49.627    
  32.963      22.358      13.559      8.4026      6.6099      6.5125      6.7460      6.8419      7.1955      7.2910    
  7.2416      6.7460      6.7667      9.5512      16.806      27.482      42.747      75.307      124.91      172.15    
  191.75      172.15      124.91      75.307      42.747      27.482      16.806      9.5512      6.7667      6.7460    
  7.2416      7.2910      6.9057      7.1396      7.2910      6.8419      7.0878      10.792      19.406      30.933    
  52.333      100.59      172.15      239.03      266.53      239.03      172.15      100.59      52.333      30.933    
  19.406      10.792      7.0878      6.8419      7.2910      7.1396      6.5965      6.9057      7.1955      6.8490    
  7.2610      11.346      20.405      32.247      56.455      111.26      191.75      266.53      297.22      266.53    
  191.75      111.26      56.455      32.247      20.405      11.346      7.2610      6.8490      7.1955      6.9057    
  6.9057      7.1396      7.2910      6.8419      7.0878      10.792      19.406      30.933      52.333      100.59    
  172.15      239.03      266.53      239.03      172.15      100.59      52.333      30.933      19.406      10.792    
  7.0878      6.8419      7.2910      7.1396      7.1955      7.2910      7.2416      6.7460      6.7667      9.5512    
  16.806      27.482      42.747      75.307      124.91      172.15      191.75      172.15      124.91      75.307    
  42.747      27.482      16.806      9.5512      6.7667      6.7460      7.2416      7.2910      6.8490      6.8419    
  6.7460      6.5125      6.6099      8.4026      13.559      22.358      32.963      49.627      75.307      100.59    
  111.26      100.59      75.307      49.627      32.963      22.358      13.559      8.4026      6.6099      6.5125    
  6.7460      6.8419      7.2610      7.0878      6.7667      6.6099      6.7885      7.7600      10.663      16.501    
  24.608      32.963      42.747      52.333      56.455      52.333      42.747      32.963      24.608      16.501    
  10.663      7.7600      6.7885      6.6099      6.7667      7.0878      11.346      10.792      9.5512      8.4026    
  7.7600      7.7358      8.7666      11.623      16.501      22.358      27.482      30.933      32.247      30.933    
  27.482      22.358      16.501      11.623      8.7666      7.7358      7.7600      8.4026      9.5512      10.792    
  20.405      19.406      16.806      13.559      10.663      8.7666      8.1194      8.7666      10.663      13.559    
  16.806      19.406      20.405      19.406      16.806      13.559      10.663      8.7666      8.1194      8.7666    
  10.663      13.559      16.806      19.406      32.247      30.933      27.482      22.358      16.501      11.623    
  8.7666      7.7358      7.7600      8.4026      9.5512      10.792      11.346      10.792      9.5512      8.4026    
  7.7600      7.7358      8.7666      11.623      16.501      22.358      27.482      30.933      56.455      52.333    
  42.747      32.963      24.608      16.501      10.663      7.7600      6.7885      6.6099      6.7667      7.0878    
  7.2610      7.0878      6.7667      6.6099      6.7885      7.7600      10.663      16.501      24.608      32.963    
  42.747      52.333      111.26      100.59      75.307      49.627      32.963      22.358      13.559      8.4026    
  6.6099      6.5125      6.7460      6.8419      6.8490      6.8419      6.7460      6.5125      6.6099      8.4026    
  13.559      22.358      32.963      49.627      75.307      100.59      191.75      172.15      124.91      75.307    
  42.747      27.482      16.806      9.5512      6.7667      6.7460      7.2416      7.2910      7.1955      7.2910    
  7.2416      6.7460      6.7667      9.5512      16.806      27.482      42.747      75.307      124.91      172.15    
  266.53      239.03      172.15      100.59      52.333      30.933      19.406      10.792      7.0878      6.8419    
  7.2910      7.1396      6.9057      7.1396      7.2910      6.8419      7.0878      10.792      19.406      30.933    
  52.333      100.59      172.15      239.03      137.24      123.37      90.312      56.455      34.922      23.649    
  14.755      9.2964      7.2981      7.2610      7.7864      8.2103      8.3589      8.2103      7.7864      7.2610    
  7.2981      9.2964      14.755      23.649      34.922      56.455      90.312      123.37      123.37      111.11    
  81.973      52.333      33.472      22.793      14.157      8.9861      7.1241      7.0878      7.5964      8.0422    
  8.2103      8.0422      7.5964      7.0878      7.1241      8.9861      14.157      22.793      33.472      52.333    
  81.973      111.11      90.312      81.973      62.372      42.747      29.807      20.275      12.601      8.3204    
  6.8395      6.7667      7.1621      7.5964      7.7864      7.5964      7.1621      6.7667      6.8395      8.3204    
  12.601      20.275      29.807      42.747      62.372      81.973      56.455      52.333      42.747      32.963    
  24.608      16.501      10.663      7.7600      6.7885      6.6099      6.7667      7.0878      7.2610      7.0878    
  6.7667      6.6099      6.7885      7.7600      10.663      16.501      24.608      32.963      42.747      52.333    
  34.922      33.472      29.807      24.608      18.190      12.478      8.9423      7.4646      6.9841      6.7885    
  6.8395      7.1241      7.2981      7.1241      6.8395      6.7885      6.9841      7.4646      8.9423      12.478    
  18.190      24.608      29.807      33.472      23.649      22.793      20.275      16.501      12.478      9.3985    
  7.8198      7.3925      7.4646      7.7600      8.3204      8.9861      9.2964      8.9861      8.3204      7.7600    
  7.4646      7.3925      7.8198      9.3985      12.478      16.501      20.275      22.793      14.755      14.157    