unknown system                          
   1.00000000000000     
     3.635000    0.000000    0.000000
     0.000000    3.635000    0.000000
     0.000000    0.000000    3.635000
   Cu
     4
Direct
  0.000000  0.000000  0.000000
  0.500000  0.500000  0.000000
  0.500000  0.000000  0.500000
  0.000000  0.500000  0.500000
 
   24   24   24
 0.78173799505E+03 0.70442676614E+03 0.51268095532E+03 0.29722255261E+03 0.13723771650E+03
 0.57638234158E+02 0.31346714623E+02 0.17140743203E+02 0.83589129940E+01 0.65964869315E+01
 0.66209348697E+01 0.50654665210E+01 0.38781362260E+01 0.50654665210E+01 0.66209348697E+01
 0.65964869315E+01 0.83589129940E+01 0.17140743203E+02 0.31346714623E+02 0.57638234158E+02
 0.13723771650E+03 0.29722255261E+03 0.51268095532E+03 0.70442676614E+03 0.70442676614E+03
 0.63435529302E+03 0.46082027437E+03 0.26653450744E+03 0.12337037262E+03 0.53144847510E+02
 0.29856624726E+02 0.16221106390E+02 0.82102810660E+01 0.69057453715E+01 0.72465823406E+01
 0.60603207700E+01 0.50654665210E+01 0.60603207700E+01 0.72465823406E+01 0.69057453715E+01
 0.82102810660E+01 0.16221106390E+02 0.29856624726E+02 0.53144847510E+02 0.12337037262E+03
 0.26653450744E+03 0.46082027437E+03 0.63435529302E+03 0.51268095532E+03 0.46082027437E+03
 0.33303248129E+03 0.19174694121E+03 0.90311855144E+02 0.42735560618E+02 0.25903333691E+02
 0.13950930004E+02 0.77863528864E+01 0.71954968537E+01 0.78417273379E+01 0.72465823406E+01
 0.66209348697E+01 0.72465823406E+01 0.78417273379E+01 0.71954968537E+01 0.77863528864E+01
 0.13950930004E+02 0.25903333691E+02 0.42735560618E+02 0.90311855144E+02 0.19174694121E+03
 0.33303248129E+03 0.46082027437E+03 0.29722255261E+03 0.26653450744E+03 0.19174694121E+03
 0.11125853026E+03 0.56455102215E+02 0.32247373903E+02 0.20404995550E+02 0.11345514015E+02
 0.72609616850E+01 0.68489756050E+01 0.71954968537E+01 0.69057453715E+01 0.65964869315E+01
 0.69057453715E+01 0.71954968537E+01 0.68489756050E+01 0.72609616850E+01 0.11345514015E+02
 0.20404995550E+02 0.32247373903E+02 0.56455102215E+02 0.11125853026E+03 0.19174694121E+03
 0.26653450744E+03 0.13723771650E+03 0.12337037262E+03 0.90311855144E+02 0.56455102215E+02
 0.34921543272E+02 0.23649344277E+02 0.14755096305E+02 0.92964128410E+01 0.72981352688E+01
 0.72609616850E+01 0.77863528864E+01 0.82102810660E+01 0.83589129940E+01 0.82102810660E+01
 0.77863528864E+01 0.72609616850E+01 0.72981352688E+01 0.92964128410E+01 0.14755096305E+02
 0.23649344277E+02 0.34921543272E+02 0.56455102215E+02 0.90311855144E+02 0.12337037262E+03
 0.57638234158E+02 0.53144847510E+02 0.42735560618E+02 0.32247373903E+02 0.23649344277E+02
 0.15761928852E+02 0.10522997216E+02 0.86464524983E+01 0.92964128410E+01 0.11345514015E+02
 0.13950930004E+02 0.16221106390E+02 0.17140743203E+02 0.16221106390E+02 0.13950930004E+02
 0.11345514015E+02 0.92964128410E+01 0.86464524983E+01 0.10522997216E+02 0.15761928852E+02
 0.23649344277E+02 0.32247373903E+02 0.42735560618E+02 0.53144847510E+02 0.31346714623E+02
 0.29856624726E+02 0.25903333691E+02 0.20404995550E+02 0.14755096305E+02 0.10522997216E+02
 0.89536361717E+01 0.10522997216E+02 0.14755096305E+02 0.20404995550E+02 0.25903333691E+02
 0.29856624726E+02 0.31346714623E+02 0.29856624726E+02 0.25903333691E+02 0.20404995550E+02
 0.14755096305E+02 0.10522997216E+02 0.89536361717E+01 0.10522997216E+02 0.14755096305E+02
 0.20404995550E+02 0.25903333691E+02 0.29856624726E+02 0.17140743203E+02 0.16221106390E+02
 0.13950930004E+02 0.11345514015E+02 0.92964128410E+01 0.86464524983E+01 0.10522997216E+02
 0.15761928852E+02 0.23649344277E+02 0.32247373903E+02 0.42735560618E+02 0.53144847510E+02
 0.57638234158E+02 0.53144847510E+02 0.42735560618E+02 0.32247373903E+02 0.23649344277E+02
 0.15761928852E+02 0.10522997216E+02 0.86464524983E+01 0.92964128410E+01 0.11345514015E+02
 0.13950930004E+02 0.16221106390E+02 0.83589129940E+01 0.82102810660E+01 0.77863528864E+01
 0.72609616850E+01 0.72981352688E+01 0.92964128410E+01 0.14755096305E+02 0.23649344277E+02
 0.34921543272E+02 0.56455102215E+02 0.90311855144E+02 0.12337037262E+03 0.13723771650E+03
 0.12337037262E+03 0.90311855144E+02 0.56455102215E+02 0.34921543272E+02 0.23649344277E+02
 0.14755096305E+02 0.92964128410E+01 0.72981352688E+01 0.72609616850E+01 0.77863528864E+01
 0.82102810660E+01 0.65964869315E+01 0.69057453715E+01 0.71954968537E+01 0.68489756050E+01
 0.72609616850E+01 0.11345514015E+02 0.20404995550E+02 0.32247373903E+02 0.56455102215E+02
 0.11125853026E+03 0.19174694121E+03 0.26653450744E+03 0.29722255261E+03 0.26653450744E+03
 0.19174694121E+03 0.11125853026E+03 0.56455102215E+02 0.32247373903E+02 0.20404995550E+02
 0.11345514015E+02 0.72609616850E+01 0.68489756050E+01 0.71954968537E+01 0.69057453715E+01
 0.66209348697E+01 0.72465823406E+01 0.78417273379E+01 0.71954968537E+01 0.77863528864E+01
 0.13950930004E+02 0.25903333691E+02 0.42735560618E+02 0.90311855144E+02 0.19174694121E+03
 0.33303248129E+03 0.46082027437E+03 0.51268095532E+03 0.46082027437E+03 0.33303248129E+03
 0.19174694121E+03 0.90311855144E+02 0.42735560618E+02 0.25903333691E+02 0.13950930004E+02
 0.77863528864E+01 0.71954968537E+01 0.78417273379E+01 0.72465823406E+01 0.50654665210E+01
 0.60603207700E+01 0.72465823406E+01 0.69057453715E+01 0.82102810660E+01 0.16221106390E+02
 0.29856624726E+02 0.53144847510E+02 0.12337037262E+03 0.26653450744E+03 0.46082027437E+03
 0.63435529302E+03 0.70442676614E+03 0.63435529302E+03 0.46082027437E+03 0.26653450744E+03
 0.12337037262E+03 0.53144847510E+02 0.29856624726E+02 0.16221106390E+02 0.82102810660E+01
 0.69057453715E+01 0.72465823406E+01 0.60603207700E+01 0.38781362260E+01 0.50654665210E+01
 0.66209348697E+01 0.65964869315E+01 0.83589129940E+01 0.17140743203E+02 0.31346714623E+02
 0.57638234158E+02 0.13723771650E+03 0.29722255261E+03 0.51268095532E+03 0.70442676614E+03
 0.78173799505E+03 0.70442676614E+03 0.51268095532E+03 0.29722255261E+03 0.13723771650E+03
 0.57638234158E+02 0.31346714623E+02 0.17140743203E+02 0.83589129940E+01 0.65964869315E+01
 0.66209348697E+01 0.50654665210E+01 0.50654665210E+01 0.60603207700E+01 0.72465823406E+01
 0.69057453715E+01 0.82102810660E+01 0.16221106390E+02 0.29856624726E+02 0.53144847510E+02
 0.12337037262E+03 0.26653450744E+03 0.46082027437E+03 0.63435529302E+03 0.70442676614E+03
 0.63435529302E+03 0.46082027437E+03 0.26653450744E+03 0.12337037262E+03 0.53144847510E+02
 0.29856624726E+02 0.16221106390E+02 0.82102810660E+01 0.69057453715E+01 0.72465823406E+01
 0.60603207700E+01 0.66209348697E+01 0.72465823406E+01 0.78417273379E+01 0.71954968537E+01
 0.77863528864E+01 0.13950930004E+02 0.25903333691E+02 0.42735560618E+02 0.90311855144E+02
 0.19174694121E+03 0.33303248129E+03 0.46082027437E+03 0.51268095532E+03 0.46082027437E+03
 0.33303248129E+03 0.19174694121E+03 0.90311855144E+02 0.42735560618E+02 0.25903333691E+02
 0.13950930004E+02 0.77863528864E+01 0.71954968537E+01 0.78417273379E+01 0.72465823406E+01
 0.65964869315E+01 0.69057453715E+01 0.71954968537E+01 0.68489756050E+01 0.72609616850E+01
 0.11345514015E+02 0.20404995550E+02 0.32247373903E+02 0.56455102215E+02 0.11125853026E+03
 0.19174694121E+03 0.26653450744E+03 0.29722255261E+03 0.26653450744E+03 0.19174694121E+03
 0.11125853026E+03 0.56455102215E+02 0.32247373903E+02 0.20404995550E+02 0.11345514015E+02
 0.72609616850E+01 0.68489756050E+01 0.71954968537E+01 0.69057453715E+01 0.83589129940E+01
 0.82102810660E+01 0.77863528864E+01 0.72609616850E+01 0.72981352688E+01 0.92964128410E+01
 0.14755096305E+02 0.23649344277E+02 0.34921543272E+02 0.56455102215E+02 0.90311855144E+02
 0.12337037262E+03 0.13723771650E+03 0.12337037262E+03 0.90311855144E+02 0.56455102215E+02
 0.34921543272E+02 0.23649344277E+02 0.14755096305E+02 0.92964128410E+01 0.72981352688E+01
 0.72609616850E+01 0.77863528864E+01 0.82102810660E+01 0.17140743203E+02 0.16221106390E+02
 0.13950930004E+02 0.11345514015E+02 0.92964128410E+01 0.86464524983E+01 0.10522997216E+02
 0.15761928852E+02 0.23649344277E+02 0.32247373903E+02 0.42735560618E+02 0.53144847510E+02
 0.57638234158E+02 0.53144847510E+02 0.42735560618E+02 0.32247373903E+02 0.23649344277E+02
 0.15761928852E+02 0.10522997216E+02 0.86464524983E+01 0.92964128410E+01 0.11345514015E+02
 0.13950930004E+02 0.16221106390E+02 0.31346714623E+02 0.29856624726E+02 0.25903333691E+02
 0.20404995550E+02 0.14755096305E+02 0.10522997216E+02 0.89536361717E+01 0.10522997216E+02
 0.14755096305E+02 0.20404995550E+02 0.25903333691E+02 0.29856624726E+02 0.31346714623E+02
 0.29856624726E+02 0.25903333691E+02 0.20404995550E+02 0.14755096305E+02 0.10522997216E+02
 0.89536361717E+01 0.10522997216E+02 0.14755096305E+02 0.20404995550E+02 0.25903333691E+02
 0.29856624726E+02 0.57638234158E+02 0.53144847510E+02 0.42735560618E+02 0.32247373903E+02
 0.23649344277E+02 0.15761928852E+02 0.10522997216E+02 0.86464524983E+01 0.92964128410E+01
 0.11345514015E+02 0.13950930004E+02 0.16221106390E+02 0.17140743203E+02 0.16221106390E+02
 0.13950930004E+02 0.11345514015E+02 0.92964128410E+01 0.86464524983E+01 0.10522997216E+02
 0.15761928852E+02 0.23649344277E+02 0.32247373903E+02 0.42735560618E+02 0.53144847510E+02
 0.13723771650E+03 0.12337037262E+03 0.90311855144E+02 0.56455102215E+02 0.34921543272E+02
 0.23649344277E+02 0.14755096305E+02 0.92964128410E+01 0.72981352688E+01 0.72609616850E+01
 0.77863528864E+01 0.82102810660E+01 0.83589129940E+01 0.82102810660E+01 0.77863528864E+01
 0.72609616850E+01 0.72981352688E+01 0.92964128410E+01 0.14755096305E+02 0.23649344277E+02
 0.34921543272E+02 0.56455102215E+02 0.90311855144E+02 0.12337037262E+03 0.29722255261E+03
 0.26653450744E+03 0.19174694121E+03 0.11125853026E+03 0.56455102215E+02 0.32247373903E+02
 0.20404995550E+02 0.11345514015E+02 0.72609616850E+01 0.68489756050E+01 0.71954968537E+01
 0.69057453715E+01 0.65964869315E+01 0.69057453715E+01 0.71954968537E+01 0.68489756050E+01
 0.72609616850E+01 0.11345514015E+02 0.20404995550E+02 0.32247373903E+02 0.56455102215E+02
 0.11125853026E+03 0.19174694121E+03 0.26653450744E+03 0.51268095532E+03 0.46082027437E+03
 0.33303248129E+03 0.19174694121E+03 0.90311855144E+02 0.42735560618E+02 0.25903333691E+02
 0.13950930004E+02 0.77863528864E+01 0.71954968537E+01 0.78417273379E+01 0.72465823406E+01
 0.66209348697E+01 0.72465823406E+01 0.78417273379E+01 0.71954968537E+01 0.77863528864E+01
 0.13950930004E+02 0.25903333691E+02 0.42735560618E+02 0.90311855144E+02 0.19174694121E+03
 0.33303248129E+03 0.46082027437E+03 0.70442676614E+03 0.63435529302E+03 0.46082027437E+03
 0.26653450744E+03 0.12337037262E+03 0.53144847510E+02 0.29856624726E+02 0.16221106390E+02
 0.82102810660E+01 0.69057453715E+01 0.72465823406E+01 0.60603207700E+01 0.50654665210E+01
 0.60603207700E+01 0.72465823406E+01 0.69057453715E+01 0.82102810660E+01 0.16221106390E+02
 0.29856624726E+02 0.53144847510E+02 0.12337037262E+03 0.26653450744E+03 0.46082027437E+03
 0.63435529302E+03 0.70442676614E+03 0.63435529302E+03 0.46082027437E+03 0.26653450744E+03
 0.12337037262E+03 0.53144847510E+02 0.29856624726E+02 0.16221106390E+02 0.82102810660E+01
 0.69057453715E+01 0.72465823406E+01 0.60603207700E+01 0.50654665210E+01 0.60603207700E+01
 0.72465823406E+01 0.69057453715E+01 0.82102810660E+01 0.16221106390E+02 0.29856624726E+02
 0.53144847510E+02 0.12337037262E+03 0.26653450744E+03 0.46082027437E+03 0.63435529302E+03
 0.63435529302E+03 0.57090425662E+03 0.41400867787E+03 0.23902506930E+03 0.11110647016E+03
 0.49235659980E+02 0.28443037004E+02 0.15338020357E+02 0.80421703137E+01 0.71396102228E+01
 0.77483113711E+01 0.68845115921E+01 0.60603207700E+01 0.68845115921E+01 0.77483113711E+01
 0.71396102228E+01 0.80421703137E+01 0.15338020357E+02 0.28443037004E+02 0.49235659980E+02
 0.11110647016E+03 0.23902506930E+03 0.41400867787E+03 0.57090425662E+03 0.46082027437E+03
 0.41400867787E+03 0.29887490609E+03 0.17215031526E+03 0.81972878751E+02 0.40183028182E+02
 0.24631405301E+02 0.13188335144E+02 0.75964423321E+01 0.72909832041E+01 0.81151072219E+01
 0.77483113711E+01 0.72465823406E+01 0.77483113711E+01 0.81151072219E+01 0.72909832041E+01
 0.75964423321E+01 0.13188335144E+02 0.24631405301E+02 0.40183028182E+02 0.81972878751E+02
 0.17215031526E+03 0.29887490609E+03 0.41400867787E+03 0.26653450744E+03 0.23902506930E+03
 0.17215031526E+03 0.10059160717E+03 0.52332961687E+02 0.30932602101E+02 0.19406180184E+02
 0.10792099611E+02 0.70878251687E+01 0.68418853436E+01 0.72909832041E+01 0.71396102228E+01
 0.69057453715E+01 0.71396102228E+01 0.72909832041E+01 0.68418853436E+01 0.70878251687E+01
 0.10792099611E+02 0.19406180184E+02 0.30932602101E+02 0.52332961687E+02 0.10059160717E+03
 0.17215031526E+03 0.23902506930E+03 0.12337037262E+03 0.11110647016E+03 0.81972878751E+02
 0.52332961687E+02 0.33471635960E+02 0.22792531656E+02 0.14156635290E+02 0.89860706307E+01
 0.71241333953E+01 0.70878251687E+01 0.75964423321E+01 0.80421703137E+01 0.82102810660E+01
 0.80421703137E+01 0.75964423321E+01 0.70878251687E+01 0.71241333953E+01 0.89860706307E+01
 0.14156635290E+02 0.22792531656E+02 0.33471635960E+02 0.52332961687E+02 0.81972878751E+02
 0.11110647016E+03 0.53144847510E+02 0.49235659980E+02 0.40183028182E+02 0.30932602101E+02
 0.22792531656E+02 0.15251388750E+02 0.10298283720E+02 0.84869624770E+01 0.89860706307E+01
 0.10792099611E+02 0.13188335144E+02 0.15338020357E+02 0.16221106390E+02 0.15338020357E+02
 0.13188335144E+02 0.10792099611E+02 0.89860706307E+01 0.84869624770E+01 0.10298283720E+02
 0.15251388750E+02 0.22792531656E+02 0.30932602101E+02 0.40183028182E+02 0.49235659980E+02
 0.29856624726E+02 0.28443037004E+02 0.24631405301E+02 0.19406180184E+02 0.14156635290E+02
 0.10298283720E+02 0.88827708588E+01 0.10298283720E+02 0.14156635290E+02 0.19406180184E+02
 0.24631405301E+02 0.28443037004E+02 0.29856624726E+02 0.28443037004E+02 0.24631405301E+02
 0.19406180184E+02 0.14156635290E+02 0.10298283720E+02 0.88827708588E+01 0.10298283720E+02
 0.14156635290E+02 0.19406180184E+02 0.24631405301E+02 0.28443037004E+02 0.16221106390E+02
 0.15338020357E+02 0.13188335144E+02 0.10792099611E+02 0.89860706307E+01 0.84869624770E+01
 0.10298283720E+02 0.15251388750E+02 0.22792531656E+02 0.30932602101E+02 0.40183028182E+02
 0.49235659980E+02 0.53144847510E+02 0.49235659980E+02 0.40183028182E+02 0.30932602101E+02
 0.22792531656E+02 0.15251388750E+02 0.10298283720E+02 0.84869624770E+01 0.89860706307E+01
 0.10792099611E+02 0.13188335144E+02 0.15338020357E+02 0.82102810660E+01 0.80421703137E+01
 0.75964423321E+01 0.70878251687E+01 0.71241333953E+01 0.89860706307E+01 0.14156635290E+02
 0.22792531656E+02 0.33471635960E+02 0.52332961687E+02 0.81972878751E+02 0.11110647016E+03
 0.12337037262E+03 0.11110647016E+03 0.81972878751E+02 0.52332961687E+02 0.33471635960E+02
 0.22792531656E+02 0.14156635290E+02 0.89860706307E+01 0.71241333953E+01 0.70878251687E+01
 0.75964423321E+01 0.80421703137E+01 0.69057453715E+01 0.71396102228E+01 0.72909832041E+01
 0.68418853436E+01 0.70878251687E+01 0.10792099611E+02 0.19406180184E+02 0.30932602101E+02
 0.52332961687E+02 0.10059160717E+03 0.17215031526E+03 0.23902506930E+03 0.26653450744E+03
 0.23902506930E+03 0.17215031526E+03 0.10059160717E+03 0.52332961687E+02 0.30932602101E+02
 0.19406180184E+02 0.10792099611E+02 0.70878251687E+01 0.68418853436E+01 0.72909832041E+01
 0.71396102228E+01 0.72465823406E+01 0.77483113711E+01 0.81151072219E+01 0.72909832041E+01
 0.75964423321E+01 0.13188335144E+02 0.24631405301E+02 0.40183028182E+02 0.81972878751E+02
 0.17215031526E+03 0.29887490609E+03 0.41400867787E+03 0.46082027437E+03 0.41400867787E+03
 0.29887490609E+03 0.17215031526E+03 0.81972878751E+02 0.40183028182E+02 0.24631405301E+02
 0.13188335144E+02 0.75964423321E+01 0.72909832041E+01 0.81151072219E+01 0.77483113711E+01
 0.60603207700E+01 0.68845115921E+01 0.77483113711E+01 0.71396102228E+01 0.80421703137E+01
 0.15338020357E+02 0.28443037004E+02 0.49235659980E+02 0.11110647016E+03 0.23902506930E+03
 0.41400867787E+03 0.57090425662E+03 0.63435529302E+03 0.57090425662E+03 0.41400867787E+03
 0.23902506930E+03 0.11110647016E+03 0.49235659980E+02 0.28443037004E+02 0.15338020357E+02
 0.80421703137E+01 0.71396102228E+01 0.77483113711E+01 0.68845115921E+01 0.50654665210E+01
 0.60603207700E+01 0.72465823406E+01 0.69057453715E+01 0.82102810660E+01 0.16221106390E+02
 0.29856624726E+02 0.53144847510E+02 0.12337037262E+03 0.26653450744E+03 0.46082027437E+03
 0.63435529302E+03 0.70442676614E+03 0.63435529302E+03 0.46082027437E+03 0.26653450744E+03
 0.12337037262E+03 0.53144847510E+02 0.29856624726E+02 0.16221106390E+02 0.82102810660E+01
 0.69057453715E+01 0.72465823406E+01 0.60603207700E+01 0.60603207700E+01 0.68845115921E+01
 0.77483113711E+01 0.71396102228E+01 0.80421703137E+01 0.15338020357E+02 0.28443037004E+02
 0.49235659980E+02 0.11110647016E+03 0.23902506930E+03 0.41400867787E+03 0.57090425662E+03
 0.63435529302E+03 0.57090425662E+03 0.41400867787E+03 0.23902506930E+03 0.11110647016E+03
 0.49235659980E+02 0.28443037004E+02 0.15338020357E+02 0.80421703137E+01 0.71396102228E+01
 0.77483113711E+01 0.68845115921E+01 0.72465823406E+01 0.77483113711E+01 0.81151072219E+01
 0.72909832041E+01 0.75964423321E+01 0.13188335144E+02 0.24631405301E+02 0.40183028182E+02
 0.81972878751E+02 0.17215031526E+03 0.29887490609E+03 0.41400867787E+03 0.46082027437E+03
 0.41400867787E+03 0.29887490609E+03 0.17215031526E+03 0.81972878751E+02 0.40183028182E+02
 0.24631405301E+02 0.13188335144E+02 0.75964423321E+01 0.72909832041E+01 0.81151072219E+01
 0.77483113711E+01 0.69057453715E+01 0.71396102228E+01 0.72909832041E+01 0.68418853436E+01
 0.70878251687E+01 0.10792099611E+02 0.19406180184E+02 0.30932602101E+02 0.52332961687E+02
 0.10059160717E+03 0.17215031526E+03 0.23902506930E+03 0.26653450744E+03 0.23902506930E+03
 0.17215031526E+03 0.10059160717E+03 0.52332961687E+02 0.30932602101E+02 0.19406180184E+02
 0.10792099611E+02 0.70878251687E+01 0.68418853436E+01 0.72909832041E+01 0.71396102228E+01
 0.82102810660E+01 0.80421703137E+01 0.75964423321E+01 0.70878251687E+01 0.71241333953E+01
 0.89860706307E+01 0.14156635290E+02 0.22792531656E+02 0.33471635960E+02 0.52332961687E+02
 0.81972878751E+02 0.11110647016E+03 0.12337037262E+03 0.11110647016E+03 0.81972878751E+02
 0.52332961687E+02 0.33471635960E+02 0.22792531656E+02 0.14156635290E+02 0.89860706307E+01
 0.71241333953E+01 0.70878251687E+01 0.75964423321E+01 0.80421703137E+01 0.16221106390E+02
 0.15338020357E+02 0.13188335144E+02 0.10792099611E+02 0.89860706307E+01 0.84869624770E+01
 0.10298283720E+02 0.15251388750E+02 0.22792531656E+02 0.30932602101E+02 0.40183028182E+02
 0.49235659980E+02 0.53144847510E+02 0.49235659980E+02 0.40183028182E+02 0.30932602101E+02
 0.22792531656E+02 0.15251388750E+02 0.10298283720E+02 0.84869624770E+01 0.89860706307E+01
 0.10792099611E+02 0.13188335144E+02 0.15338020357E+02 0.29856624726E+02 0.28443037004E+02
 0.24631405301E+02 0.19406180184E+02 0.14156635290E+02 0.10298283720E+02 0.88827708588E+01
 0.10298283720E+02 0.14156635290E+02 0.19406180184E+02 0.24631405301E+02 0.28443037004E+02
 0.29856624726E+02 0.28443037004E+02 0.24631405301E+02 0.19406180184E+02 0.14156635290E+02
 0.10298283720E+02 0.88827708588E+01 0.10298283720E+02 0.14156635290E+02 0.19406180184E+02
 0.24631405301E+02 0.28443037004E+02 0.53144847510E+02 0.49235659980E+02 0.40183028182E+02
 0.30932602101E+02 0.22792531656E+02 0.15251388750E+02 0.10298283720E+02 0.84869624770E+01
 0.89860706307E+01 0.10792099611E+02 0.13188335144E+02 0.15338020357E+02 0.16221106390E+02
 0.15338020357E+02 0.13188335144E+02 0.10792099611E+02 0.89860706307E+01 0.84869624770E+01
 0.10298283720E+02 0.15251388750E+02 0.22792531656E+02 0.30932602101E+02 0.40183028182E+02
 0.49235659980E+02 0.12337037262E+03 0.11110647016E+03 0.81972878751E+02 0.52332961687E+02
 0.33471635960E+02 0.22792531656E+02 0.14156635290E+02 0.89860706307E+01 0.71241333953E+01
 0.70878251687E+01 0.75964423321E+01 0.80421703137E+01 0.82102810660E+01 0.80421703137E+01
 0.75964423321E+01 0.70878251687E+01 0.71241333953E+01 0.89860706307E+01 0.14156635290E+02
 0.22792531656E+02 0.33471635960E+02 0.52332961687E+02 0.81972878751E+02 0.11110647016E+03
 0.26653450744E+03 0.23902506930E+03 0.17215031526E+03 0.10059160717E+03 0.52332961687E+02
 0.30932602101E+02 0.19406180184E+02 0.10792099611E+02 0.70878251687E+01 0.68418853436E+01
 0.72909832041E+01 0.71396102228E+01 0.69057453715E+01 0.71396102228E+01 0.72909832041E+01
 0.68418853436E+01 0.70878251687E+01 0.10792099611E+02 0.19406180184E+02 0.30932602101E+02
 0.52332961687E+02 0.10059160717E+03 0.17215031526E+03 0.23902506930E+03 0.46082027437E+03
 0.41400867787E+03 0.29887490609E+03 0.17215031526E+03 0.81972878751E+02 0.40183028182E+02
 0.24631405301E+02 0.13188335144E+02 0.75964423321E+01 0.72909832041E+01 0.81151072219E+01
 0.77483113711E+01 0.72465823406E+01 0.77483113711E+01 0.81151072219E+01 0.72909832041E+01
 0.75964423321E+01 0.13188335144E+02 0.24631405301E+02 0.40183028182E+02 0.81972878751E+02
 0.17215031526E+03 0.29887490609E+03 0.41400867787E+03 0.63435529302E+03 0.57090425662E+03
 0.41400867787E+03 0.23902506930E+03 0.11110647016E+03 0.49235659980E+02 0.28443037004E+02
 0.15338020357E+02 0.80421703137E+01 0.71396102228E+01 0.77483113711E+01 0.68845115921E+01
 0.60603207700E+01 0.68845115921E+01 0.77483113711E+01 0.71396102228E+01 0.80421703137E+01
 0.15338020357E+02 0.28443037004E+02 0.49235659980E+02 0.11110647016E+03 0.23902506930E+03
 0.41400867787E+03 0.57090425662E+03 0.51268095532E+03 0.46082027437E+03 0.33303248129E+03
 0.19174694121E+03 0.90311855144E+02 0.42735560618E+02 0.25903333691E+02 0.13950930004E+02
 0.77863528864E+01 0.71954968537E+01 0.78417273379E+01 0.72465823406E+01 0.66209348697E+01
 0.72465823406E+01 0.78417273379E+01 0.71954968537E+01 0.77863528864E+01 0.13950930004E+02
 0.25903333691E+02 0.42735560618E+02 0.90311855144E+02 0.19174694121E+03 0.33303248129E+03
 0.46082027437E+03 0.46082027437E+03 0.41400867787E+03 0.29887490609E+03 0.17215031526E+03
 0.81972878751E+02 0.40183028182E+02 0.24631405301E+02 0.13188335144E+02 0.75964423321E+01
 0.72909832041E+01 0.81151072219E+01 0.77483113711E+01 0.72465823406E+01 0.77483113711E+01
 0.81151072219E+01 0.72909832041E+01 0.75964423321E+01 0.13188335144E+02 0.24631405301E+02
 0.40183028182E+02 0.81972878751E+02 0.17215031526E+03 0.29887490609E+03 0.41400867787E+03
 0.33303248129E+03 0.29887490609E+03 0.21539602222E+03 0.12490959746E+03 0.62371963115E+02
 0.34194695614E+02 0.21240234637E+02 0.11397177976E+02 0.71620819904E+01 0.72415510421E+01
 0.81526866271E+01 0.81151072219E+01 0.78417273379E+01 0.81151072219E+01 0.81526866271E+01
 0.72415510421E+01 0.71620819904E+01 0.11397177976E+02 0.21240234637E+02 0.34194695614E+02
 0.62371963115E+02 0.12490959746E+03 0.21539602222E+03 0.29887490609E+03 0.19174694121E+03
 0.17215031526E+03 0.12490959746E+03 0.75306770695E+02 0.42747181103E+02 0.27481828180E+02
 0.16806087608E+02 0.95511659358E+01 0.67667286195E+01 0.67459642450E+01 0.72415510421E+01
 0.72909832041E+01 0.71954968537E+01 0.72909832041E+01 0.72415510421E+01 0.67459642450E+01
 0.67667286195E+01 0.95511659358E+01 0.16806087608E+02 0.27481828180E+02 0.42747181103E+02
 0.75306770695E+02 0.12490959746E+03 0.17215031526E+03 0.90311855144E+02 0.81972878751E+02
 0.62371963115E+02 0.42747181103E+02 0.29807403236E+02 0.20275185887E+02 0.12600892695E+02
 0.83204429313E+01 0.68394687095E+01 0.67667286195E+01 0.71620819904E+01 0.75964423321E+01
 0.77863528864E+01 0.75964423321E+01 0.71620819904E+01 0.67667286195E+01 0.68394687095E+01
 0.83204429313E+01 0.12600892695E+02 0.20275185887E+02 0.29807403236E+02 0.42747181103E+02
 0.62371963115E+02 0.81972878751E+02 0.42735560618E+02 0.40183028182E+02 0.34194695614E+02
 0.27481828180E+02 0.20275185887E+02 0.13776794377E+02 0.96676262900E+01 0.81206721089E+01
 0.83204429313E+01 0.95511659358E+01 0.11397177976E+02 0.13188335144E+02 0.13950930004E+02
 0.13188335144E+02 0.11397177976E+02 0.95511659358E+01 0.83204429313E+01 0.81206721089E+01
 0.96676262900E+01 0.13776794377E+02 0.20275185887E+02 0.27481828180E+02 0.34194695614E+02
 0.40183028182E+02 0.25903333691E+02 0.24631405301E+02 0.21240234637E+02 0.16806087608E+02
 0.12600892695E+02 0.96676262900E+01 0.86246500438E+01 0.96676262900E+01 0.12600892695E+02
 0.16806087608E+02 0.21240234637E+02 0.24631405301E+02 0.25903333691E+02 0.24631405301E+02
 0.21240234637E+02 0.16806087608E+02 0.12600892695E+02 0.96676262900E+01 0.86246500438E+01
 0.96676262900E+01 0.12600892695E+02 0.16806087608E+02 0.21240234637E+02 0.24631405301E+02
 0.13950930004E+02 0.13188335144E+02 0.11397177976E+02 0.95511659358E+01 0.83204429313E+01
 0.81206721089E+01 0.96676262900E+01 0.13776794377E+02 0.20275185887E+02 0.27481828180E+02
 0.34194695614E+02 0.40183028182E+02 0.42735560618E+02 0.40183028182E+02 0.34194695614E+02
 0.27481828180E+02 0.20275185887E+02 0.13776794377E+02 0.96676262900E+01 0.81206721089E+01
 0.83204429313E+01 0.95511659358E+01 0.11397177976E+02 0.13188335144E+02 0.77863528864E+01
 0.75964423321E+01 0.71620819904E+01 0.67667286195E+01 0.68394687095E+01 0.83204429313E+01
 0.12600892695E+02 0.20275185887E+02 0.29807403236E+02 0.42747181103E+02 0.62371963115E+02
 0.81972878751E+02 0.90311855144E+02 0.81972878751E+02 0.62371963115E+02 0.42747181103E+02
 0.29807403236E+02 0.20275185887E+02 0.12600892695E+02 0.83204429313E+01 0.68394687095E+01
 0.67667286195E+01 0.71620819904E+01 0.75964423321E+01 0.71954968537E+01 0.72909832041E+01
 0.72415510421E+01 0.67459642450E+01 0.67667286195E+01 0.95511659358E+01 0.16806087608E+02
 0.27481828180E+02 0.42747181103E+02 0.75306770695E+02 0.12490959746E+03 0.17215031526E+03
 0.19174694121E+03 0.17215031526E+03 0.12490959746E+03 0.75306770695E+02 0.42747181103E+02
 0.27481828180E+02 0.16806087608E+02 0.95511659358E+01 0.67667286195E+01 0.67459642450E+01
 0.72415510421E+01 0.72909832041E+01 0.78417273379E+01 0.81151072219E+01 0.81526866271E+01
 0.72415510421E+01 0.71620819904E+01 0.11397177976E+02 0.21240234637E+02 0.34194695614E+02
 0.62371963115E+02 0.12490959746E+03 0.21539602222E+03 0.29887490609E+03 0.33303248129E+03
 0.29887490609E+03 0.21539602222E+03 0.12490959746E+03 0.62371963115E+02 0.34194695614E+02
 0.21240234637E+02 0.11397177976E+02 0.71620819904E+01 0.72415510421E+01 0.81526866271E+01
 0.81151072219E+01 0.72465823406E+01 0.77483113711E+01 0.81151072219E+01 0.72909832041E+01
 0.75964423321E+01 0.13188335144E+02 0.24631405301E+02 0.40183028182E+02 0.81972878751E+02
 0.17215031526E+03 0.29887490609E+03 0.41400867787E+03 0.46082027437E+03 0.41400867787E+03
 0.29887490609E+03 0.17215031526E+03 0.81972878751E+02 0.40183028182E+02 0.24631405301E+02
 0.13188335144E+02 0.75964423321E+01 0.72909832041E+01 0.81151072219E+01 0.77483113711E+01
 0.66209348697E+01 0.72465823406E+01 0.78417273379E+01 0.71954968537E+01 0.77863528864E+01
 0.13950930004E+02 0.25903333691E+02 0.42735560618E+02 0.90311855144E+02 0.19174694121E+03
 0.33303248129E+03 0.46082027437E+03 0.51268095532E+03 0.46082027437E+03 0.33303248129E+03
 0.19174694121E+03 0.90311855144E+02 0.42735560618E+02 0.25903333691E+02 0.13950930004E+02
 0.77863528864E+01 0.71954968537E+01 0.78417273379E+01 0.72465823406E+01 0.72465823406E+01
 0.77483113711E+01 0.81151072219E+01 0.72909832041E+01 0.75964423321E+01 0.13188335144E+02
 0.24631405301E+02 0.40183028182E+02 0.81972878751E+02 0.17215031526E+03 0.29887490609E+03
 0.41400867787E+03 0.46082027437E+03 0.41400867787E+03 0.29887490609E+03 0.17215031526E+03
 0.81972878751E+02 0.40183028182E+02 0.24631405301E+02 0.13188335144E+02 0.75964423321E+01
 0.72909832041E+01 0.81151072219E+01 0.77483113711E+01 0.78417273379E+01 0.81151072219E+01
 0.81526866271E+01 0.72415510421E+01 0.71620819904E+01 0.11397177976E+02 0.21240234637E+02
 0.34194695614E+02 0.62371963115E+02 0.12490959746E+03 0.21539602222E+03 0.29887490609E+03
 0.33303248129E+03 0.29887490609E+03 0.21539602222E+03 0.12490959746E+03 0.62371963115E+02
 0.34194695614E+02 0.21240234637E+02 0.11397177976E+02 0.71620819904E+01 0.72415510421E+01
 0.81526866271E+01 0.81151072219E+01 0.71954968537E+01 0.72909832041E+01 0.72415510421E+01
 0.67459642450E+01 0.67667286195E+01 0.95511659358E+01 0.16806087608E+02 0.27481828180E+02
 0.42747181103E+02 0.75306770695E+02 0.12490959746E+03 0.17215031526E+03 0.19174694121E+03
 0.17215031526E+03 0.12490959746E+03 0.75306770695E+02 0.42747181103E+02 0.27481828180E+02
 0.16806087608E+02 0.95511659358E+01 0.67667286195E+01 0.67459642450E+01 0.72415510421E+01
 0.72909832041E+01 0.77863528864E+01 0.75964423321E+01 0.71620819904E+01 0.67667286195E+01
 0.68394687095E+01 0.83204429313E+01 0.12600892695E+02 0.20275185887E+02 0.29807403236E+02
 0.42747181103E+02 0.62371963115E+02 0.81972878751E+02 0.90311855144E+02 0.81972878751E+02
 0.62371963115E+02 0.42747181103E+02 0.29807403236E+02 0.20275185887E+02 0.12600892695E+02
 0.83204429313E+01 0.68394687095E+01 0.67667286195E+01 0.71620819904E+01 0.75964423321E+01
 0.13950930004E+02 0.13188335144E+02 0.11397177976E+02 0.95511659358E+01 0.83204429313E+01
 0.81206721089E+01 0.96676262900E+01 0.13776794377E+02 0.20275185887E+02 0.27481828180E+02
 0.34194695614E+02 0.40183028182E+02 0.42735560618E+02 0.40183028182E+02 0.34194695614E+02
 0.27481828180E+02 0.20275185887E+02 0.13776794377E+02 0.96676262900E+01 0.81206721089E+01
 0.83204429313E+01 0.95511659358E+01 0.11397177976E+02 0.13188335144E+02 0.25903333691E+02
 0.24631405301E+02 0.21240234637E+02 0.16806087608E+02 0.12600892695E+02 0.96676262900E+01
 0.86246500438E+01 0.96676262900E+01 0.12600892695E+02 0.16806087608E+02 0.21240234637E+02
 0.24631405301E+02 0.25903333691E+02 0.24631405301E+02 0.21240234637E+02 0.16806087608E+02
 0.12600892695E+02 0.96676262900E+01 0.86246500438E+01 0.96676262900E+01 0.12600892695E+02
 0.16806087608E+02 0.21240234637E+02 0.24631405301E+02 0.42735560618E+02 0.40183028182E+02
 0.34194695614E+02 0.27481828180E+02 0.20275185887E+02 0.13776794377E+02 0.96676262900E+01
 0.81206721089E+01 0.83204429313E+01 0.95511659358E+01 0.11397177976E+02 0.13188335144E+02
 0.13950930004E+02 0.13188335144E+02 0.11397177976E+02 0.95511659358E+01 0.83204429313E+01