   4   4   0   0
  0.1200752E+02  0.3635000E-09  0.3635000E-09  0.3635000E-09  0.5000000E-15
  1.000000000000000E-004
  CAR 
 unknown system                          
     27.45932935     -3.72891766  301      8.14620299      1.00000000
     -3.729  0.0000E+00  0.0000E+00
     -3.625  0.0000E+00  0.0000E+00
     -3.521  0.0000E+00  0.0000E+00
     -3.417 -0.4201E-31 -0.4367E-32
     -3.313 -0.1946E-27 -0.2024E-28
     -3.209 -0.5230E-24 -0.5439E-25
     -3.105 -0.8146E-21 -0.8474E-22
     -3.001 -0.7347E-18 -0.7646E-19
     -2.897 -0.3747E-15 -0.3903E-16
     -2.793 -0.1115E-12 -0.1163E-13
     -2.689 -0.1920E-10 -0.2008E-11
     -2.585 -0.1895E-08 -0.1990E-09
     -2.481 -0.1064E-06 -0.1126E-07
     -2.377 -0.3366E-05 -0.3612E-06
     -2.273 -0.5876E-04 -0.6469E-05
     -2.170 -0.5430E-03 -0.6292E-04
     -2.066 -0.2363E-02 -0.3086E-03
     -1.962 -0.2395E-02 -0.5576E-03
     -1.858  0.1472E-01  0.9732E-03
     -1.754  0.5040E-01  0.6213E-02
     -1.650  0.5598E-01  0.1203E-01
     -1.546  0.1214E-01  0.1329E-01
     -1.442  0.1813E-01  0.1518E-01
     -1.338  0.1876E+00  0.3468E-01
     -1.234  0.3708E+00  0.7322E-01
     -1.130  0.2751E+00  0.1018E+00
     -1.026  0.7160E-01  0.1093E+00
     -0.922  0.2234E+00  0.1325E+00
     -0.818  0.6559E+00  0.2007E+00
     -0.714  0.6999E+00  0.2734E+00
     -0.610  0.3049E+00  0.3051E+00
     -0.506  0.1883E+00  0.3247E+00
     -0.402  0.4329E+00  0.3697E+00
     -0.298  0.4487E+00  0.4163E+00
     -0.194  0.1586E+00  0.4328E+00
     -0.090  0.3869E-02  0.4332E+00
      0.014  0.1402E+00  0.4478E+00
      0.118  0.3008E+00  0.4791E+00
      0.222  0.2350E+00  0.5035E+00
      0.326  0.4099E+00  0.5461E+00
      0.430  0.1631E+01  0.7157E+00
      0.533  0.3344E+01  0.1063E+01
      0.637  0.3531E+01  0.1431E+01
      0.741  0.2553E+01  0.1696E+01
      0.845  0.3600E+01  0.2070E+01
      0.949  0.6173E+01  0.2712E+01
      1.053  0.6427E+01  0.3380E+01
      1.157  0.5134E+01  0.3914E+01
      1.261  0.5391E+01  0.4474E+01
      1.365  0.7456E+01  0.5249E+01
      1.469  0.1022E+02  0.6312E+01
      1.573  0.1211E+02  0.7570E+01
      1.677  0.1310E+02  0.8932E+01
      1.781  0.1460E+02  0.1045E+02
      1.885  0.1550E+02  0.1206E+02
      1.989  0.1414E+02  0.1353E+02
      2.093  0.1198E+02  0.1478E+02
      2.197  0.1109E+02  0.1593E+02
      2.301  0.1171E+02  0.1715E+02
      2.405  0.1332E+02  0.1853E+02
      2.509  0.1425E+02  0.2001E+02
      2.613  0.1221E+02  0.2128E+02
      2.717  0.7949E+01  0.2211E+02
      2.821  0.5648E+01  0.2270E+02
      2.925  0.7119E+01  0.2344E+02
      3.029  0.8795E+01  0.2435E+02
      3.132  0.6771E+01  0.2506E+02
      3.236  0.3145E+01  0.2538E+02
      3.340  0.2719E+01  0.2567E+02
      3.444  0.4938E+01  0.2618E+02
      3.548  0.7332E+01  0.2694E+02
      3.652  0.1045E+02  0.2803E+02
      3.756  0.1267E+02  0.2935E+02
      3.860  0.1054E+02  0.3044E+02
      3.964  0.5401E+01  0.3100E+02
      4.068  0.2170E+01  0.3123E+02
      4.172  0.2604E+01  0.3150E+02
      4.276  0.3806E+01  0.3189E+02
      4.380  0.3792E+01  0.3229E+02
      4.484  0.3856E+01  0.3269E+02
      4.588  0.4648E+01  0.3317E+02
      4.692  0.4816E+01  0.3367E+02
      4.796  0.4211E+01  0.3411E+02
      4.900  0.3908E+01  0.3452E+02
      5.004  0.3820E+01  0.3491E+02
      5.108  0.3434E+01  0.3527E+02
      5.212  0.3778E+01  0.3566E+02
      5.316  0.5528E+01  0.3624E+02
      5.420  0.6581E+01  0.3692E+02
      5.524  0.5314E+01  0.3748E+02
      5.628  0.3570E+01  0.3785E+02
      5.732  0.3367E+01  0.3820E+02
      5.835  0.3558E+01  0.3857E+02
      5.939  0.3570E+01  0.3894E+02
      6.043  0.4313E+01  0.3939E+02
      6.147  0.4145E+01  0.3982E+02
      6.251  0.2714E+01  0.4010E+02
      6.355  0.2951E+01  0.4041E+02
      6.459  0.4071E+01  0.4083E+02
      6.563  0.3490E+01  0.4119E+02
      6.667  0.2612E+01  0.4146E+02
      6.771  0.2965E+01  0.4177E+02
      6.875  0.3131E+01  0.4210E+02
      6.979  0.2499E+01  0.4236E+02
      7.083  0.1993E+01  0.4256E+02
      7.187  0.1161E+01  0.4269E+02
      7.291  0.2124E+00  0.4271E+02
      7.395  0.3236E+00  0.4274E+02
      7.499  0.1288E+01  0.4288E+02
      7.603  0.1757E+01  0.4306E+02
      7.707  0.1438E+01  0.4321E+02
      7.811  0.1460E+01  0.4336E+02
      7.915  0.1946E+01  0.4356E+02
      8.019  0.1782E+01  0.4375E+02
      8.123  0.1829E+01  0.4394E+02
      8.227  0.3448E+01  0.4430E+02
      8.331  0.4258E+01  0.4474E+02
      8.434  0.3108E+01  0.4506E+02
      8.538  0.2721E+01  0.4534E+02
      8.642  0.2686E+01  0.4562E+02
      8.746  0.1282E+01  0.4576E+02
      8.850  0.5276E+00  0.4581E+02
      8.954  0.1969E+01  0.4602E+02
      9.058  0.3214E+01  0.4635E+02
      9.162  0.2166E+01  0.4658E+02
      9.266  0.8829E+00  0.4667E+02
      9.370  0.8323E+00  0.4675E+02
      9.474  0.7113E+00  0.4683E+02
      9.578  0.2120E+00  0.4685E+02
      9.682  0.2017E+00  0.4687E+02
      9.786  0.7103E+00  0.4694E+02
      9.890  0.1090E+01  0.4706E+02
      9.994  0.9838E+00  0.4716E+02
     10.098  0.5117E+00  0.4721E+02
     10.202  0.3930E+00  0.4725E+02
     10.306  0.1092E+01  0.4737E+02
     10.410  0.1643E+01  0.4754E+02
     10.514  0.1327E+01  0.4768E+02
     10.618  0.7122E+00  0.4775E+02
     10.722  0.6756E+00  0.4782E+02
     10.826  0.1949E+01  0.4802E+02
     10.930  0.3073E+01  0.4834E+02
     11.034  0.2074E+01  0.4856E+02
     11.137  0.3922E+00  0.4860E+02
     11.241 -0.2808E+00  0.4857E+02
     11.345 -0.2050E+00  0.4855E+02
     11.449  0.8186E+00  0.4863E+02
     11.553  0.2821E+01  0.4893E+02
     11.657  0.3602E+01  0.4930E+02
     11.761  0.2091E+01  0.4952E+02
     11.865  0.3954E+00  0.4956E+02
     11.969 -0.1872E+00  0.4954E+02
     12.073 -0.1779E+00  0.4952E+02
     12.177  0.2533E+00  0.4955E+02
     12.281  0.1323E+01  0.4969E+02
     12.385  0.2032E+01  0.4990E+02
     12.489  0.1336E+01  0.5004E+02
     12.593  0.2473E+00  0.5006E+02
     12.697 -0.1961E+00  0.5004E+02
     12.801 -0.1479E+00  0.5003E+02
     12.905  0.6475E+00  0.5009E+02
     13.009  0.2380E+01  0.5034E+02
     13.113  0.3311E+01  0.5068E+02
     13.217  0.2315E+01  0.5093E+02
     13.321  0.1042E+01  0.5103E+02
     13.425  0.6643E+00  0.5110E+02
     13.529  0.7462E+00  0.5118E+02
     13.633  0.5506E+00  0.5124E+02
     13.737  0.1091E+00  0.5125E+02
     13.840 -0.9465E-01  0.5124E+02
     13.944  0.1586E+00  0.5126E+02
     14.048  0.9411E+00  0.5135E+02
     14.152  0.1885E+01  0.5155E+02
     14.256  0.2176E+01  0.5178E+02
     14.360  0.1487E+01  0.5193E+02
     14.464  0.7592E+00  0.5201E+02
     14.568  0.1380E+01  0.5215E+02
     14.672  0.2713E+01  0.5243E+02
     14.776  0.2700E+01  0.5272E+02
     14.880  0.1888E+01  0.5291E+02
     14.984  0.1488E+01  0.5307E+02
     15.088  0.8279E+00  0.5315E+02
     15.192  0.2641E+00  0.5318E+02
     15.296  0.7662E+00  0.5326E+02
     15.400  0.1477E+01  0.5341E+02
     15.504  0.1113E+01  0.5353E+02
     15.608  0.4287E+00  0.5357E+02
     15.712  0.4829E+00  0.5362E+02
     15.816  0.6839E+00  0.5369E+02
     15.920  0.5905E+00  0.5376E+02
     16.024  0.7501E+00  0.5383E+02
     16.128  0.1303E+01  0.5397E+02
     16.232  0.1888E+01  0.5417E+02
     16.336  0.2136E+01  0.5439E+02
     16.439  0.2030E+01  0.5460E+02
     16.543  0.2008E+01  0.5481E+02
     16.647  0.2024E+01  0.5502E+02
     16.751  0.1303E+01  0.5515E+02
     16.855  0.5541E+00  0.5521E+02
     16.959  0.9652E+00  0.5531E+02
     17.063  0.1451E+01  0.5546E+02
     17.167  0.8496E+00  0.5555E+02
     17.271  0.3098E+00  0.5558E+02
     17.375  0.8944E+00  0.5568E+02
     17.479  0.1733E+01  0.5586E+02
     17.583  0.2044E+01  0.5607E+02
     17.687  0.2142E+01  0.5629E+02
     17.791  0.1677E+01  0.5647E+02
     17.895  0.5423E+00  0.5652E+02
     17.999 -0.5006E-01  0.5652E+02
     18.103  0.9034E+00  0.5661E+02
     18.207  0.2623E+01  0.5688E+02
     18.311  0.2836E+01  0.5718E+02
     18.415  0.2061E+01  0.5739E+02
     18.519  0.2863E+01  0.5769E+02
     18.623  0.4171E+01  0.5812E+02
     18.727  0.3281E+01  0.5846E+02
     18.831  0.1064E+01  0.5858E+02
     18.935 -0.9393E-01  0.5857E+02
     19.039 -0.1590E+00  0.5855E+02
     19.142 -0.4482E-01  0.5854E+02
     19.246 -0.2103E-01  0.5854E+02
     19.350 -0.6674E-01  0.5854E+02
     19.454 -0.7636E-01  0.5853E+02
     19.558  0.3412E+00  0.5856E+02
     19.662  0.1381E+01  0.5871E+02
     19.766  0.2290E+01  0.5894E+02
     19.870  0.2210E+01  0.5917E+02
     19.974  0.1224E+01  0.5930E+02
     20.078  0.3016E+00  0.5933E+02
     20.182  0.7674E-01  0.5934E+02
     20.286  0.1267E+00  0.5935E+02
     20.390  0.7035E-01  0.5936E+02
     20.494  0.1456E-02  0.5936E+02
     20.598 -0.9442E-02  0.5936E+02
     20.702 -0.3084E-02  0.5936E+02
     20.806 -0.4301E-03  0.5936E+02
     20.910 -0.3089E-04  0.5936E+02
     21.014 -0.1217E-05  0.5936E+02
     21.118 -0.4932E-06  0.5936E+02
     21.222 -0.1903E-04  0.5936E+02
     21.326 -0.4327E-03  0.5936E+02
     21.430 -0.5329E-02  0.5936E+02
     21.534 -0.3311E-01  0.5936E+02
     21.638 -0.7957E-01  0.5935E+02
     21.741  0.9546E-01  0.5936E+02
     21.845  0.8412E+00  0.5945E+02
     21.949  0.1545E+01  0.5961E+02
     22.053  0.1166E+01  0.5973E+02
     22.157  0.2954E+00  0.5976E+02
     22.261 -0.6659E-01  0.5975E+02
     22.365 -0.5192E-01  0.5975E+02
     22.469 -0.1109E-01  0.5974E+02
     22.573 -0.1134E-02  0.5974E+02
     22.677 -0.6169E-04  0.5974E+02
     22.781 -0.1857E-05  0.5974E+02
     22.885 -0.3151E-07  0.5974E+02
     22.989 -0.3046E-09  0.5974E+02
     23.093 -0.1687E-11  0.5974E+02
     23.197 -0.5741E-14  0.5974E+02
     23.301  0.0000E+00  0.5974E+02
     23.405  0.0000E+00  0.5974E+02
     23.509  0.0000E+00  0.5974E+02
     23.613  0.0000E+00  0.5974E+02
     23.717  0.0000E+00  0.5974E+02
     23.821 -0.4000E-28  0.5974E+02
     23.925 -0.1430E-24  0.5974E+02
     24.029 -0.2964E-21  0.5974E+02
     24.133 -0.3560E-18  0.5974E+02
     24.237 -0.2474E-15  0.5974E+02
     24.341 -0.9628E-13  0.5974E+02
     24.444 -0.2217E-10  0.5974E+02
     24.548 -0.2932E-08  0.5974E+02
     24.652 -0.2214E-06  0.5974E+02
     24.756 -0.9478E-05  0.5974E+02
     24.860 -0.2267E-03  0.5974E+02
     24.964 -0.2945E-02  0.5974E+02
     25.068 -0.1949E-01  0.5974E+02
     25.172 -0.5218E-01  0.5974E+02
     25.276  0.4025E-01  0.5974E+02
     25.380  0.5078E+00  0.5979E+02
     25.484  0.1014E+01  0.5990E+02
     25.588  0.8244E+00  0.5998E+02
     25.692  0.2370E+00  0.6001E+02
     25.796 -0.3826E-01  0.6000E+02
     25.900 -0.3781E-01  0.6000E+02
     26.004 -0.8687E-02  0.6000E+02
     26.108 -0.9401E-03  0.6000E+02
     26.212 -0.5385E-04  0.6000E+02
     26.316 -0.1703E-05  0.6000E+02
     26.420 -0.3032E-07  0.6000E+02
     26.524 -0.3073E-09  0.6000E+02
     26.628 -0.1784E-11  0.6000E+02
     26.732 -0.6015E-14  0.6000E+02
     26.836  0.0000E+00  0.6000E+02
     26.940  0.0000E+00  0.6000E+02
     27.043  0.0000E+00  0.6000E+02
     27.147  0.0000E+00  0.6000E+02
     27.251  0.0000E+00  0.6000E+02
     27.355  0.0000E+00  0.6000E+02
     27.459  0.0000E+00  0.6000E+02
