    4    4    1    1
  0.1200752E+02  0.3635000E-09  0.3635000E-09  0.3635000E-09  0.5000000E-15
  1.000000000000000E-004
  CAR 
 unknown system                          
     44     10     30
 
  0.0000000E+00  0.0000000E+00  0.0000000E+00  0.8000000E-02
    1       -1.728918   1.000000
    2        0.407182   1.000000
    3        0.407182   1.000000
    4        0.407182   1.000000
    5        0.550117   1.000000
    6        0.550117   1.000000
    7        0.550117   1.000000
    8        1.704725   1.000000
    9        1.704725   1.000000
   10        2.327547   1.000000
   11        2.327547   1.000000
   12        2.327547   1.000000
   13        6.383306   1.000000
   14        6.383306   1.000000
   15        6.383306   1.000000
   16        6.430147   1.000000
   17        6.430147   1.000000
   18        6.430147   1.000000
   19        6.430147   1.000000
   20        6.430147   1.000000
   21        6.430147   1.000000
   22        9.008309  -0.000000
   23        9.008309  -0.000000
   24        9.008309  -0.000000
   25       12.916026  -0.000000
   26       12.916026  -0.000000
   27       12.916026  -0.000000
   28       20.195412   0.000000
   29       20.195412   0.000000
   30       20.195412   0.000000
 
  0.2000000E+00  0.0000000E+00  0.0000000E+00  0.4800000E-01
    1       -1.259235   1.000000
    2        0.364336   1.000000
    3        0.523912   1.000000
    4        0.523912   1.000000
    5        1.159387   1.000000
    6        1.159387   1.000000
    7        1.568003   1.000000
    8        1.568003   1.000000
    9        1.667680   1.000000
   10        1.775172   1.000000
   11        2.216515   1.000000
   12        2.465001   1.000000
   13        3.771137   1.000000
   14        3.771137   1.000000
   15        4.668306   1.000000
   16        4.668306   1.000000
   17        5.824875   1.000000
   18        5.824875   1.000000
   19        6.422538   1.000000
   20        7.024561   1.000000
   21        9.784633  -0.000000
   22        9.784633  -0.000000
   23        9.962549  -0.000000
   24        9.962549  -0.000000
   25       13.254561  -0.000000
   26       13.254561  -0.000000
   27       16.602211   0.000000
   28       17.586654   0.000000
   29       17.586654   0.000000
   30       18.421181   0.000000
 
  0.4000000E+00  0.0000000E+00  0.0000000E+00  0.4800000E-01
    1        0.095447   1.000000
    2        0.927848   1.000000
    3        1.215306   1.000000
    4        1.494646   1.000000
    5        1.494646   1.000000
    6        1.713435   1.000000
    7        1.860357   1.000000
    8        1.860357   1.000000
    9        1.979390   1.000000
   10        2.299070   1.000000
   11        2.988934   1.000000
   12        2.988934   1.000000
   13        3.327958   1.000000
   14        3.354521   1.000000
   15        3.354521   1.000000
   16        3.604444   1.000000
   17        3.604444   1.000000
   18        3.810911   1.000000
   19        4.569884   1.000000
   20        4.569884   1.000000
   21        5.900974   1.000000
   22        5.900974   1.000000
   23       11.676473  -0.000000
   24       11.676473  -0.000000
   25       14.171091   0.000000
   26       14.171091   0.000000
   27       14.327465   0.000000
   28       14.327465   0.000000
   29       16.023910   0.000000
   30       16.023910   0.000000
 
  0.2000000E+00  0.2000000E+00  0.0000000E+00  0.9600000E-01
    1       -0.809515   1.000000
    2        0.577435   1.000000
    3        1.237238   1.000000
    4        1.538106   1.000000
    5        1.613782   1.000000
    6        1.613782   1.000000
    7        1.683777   1.000000
    8        1.755200   1.000000
    9        1.875217   1.000000
   10        2.033171   1.000000
   11        2.311644   1.000000
   12        2.311644   1.000000
   13        3.585936   1.000000
   14        3.585936   1.000000
   15        4.530591   1.000000
   16        4.585470   1.000000
   17        6.112445   1.000000
   18        6.112445   1.000000
   19        6.410890   1.000000
   20        6.410890   1.000000
   21        7.508965   1.000032
   22        7.508965   1.000032
   23        7.675945   1.002193
   24       10.549296  -0.000000
   25       13.502582  -0.000000
   26       14.205270   0.000000
   27       17.004938   0.000000
   28       17.004938   0.000000
   29       18.212801   0.000000
   30       18.212801   0.000000
 
  0.4000000E+00  0.2000000E+00  0.0000000E+00  0.1920000E+00
    1        0.521116   1.000000
    2        1.002914   1.000000
    3        1.394981   1.000000
    4        1.650780   1.000000
    5        1.803654   1.000000
    6        1.843485   1.000000
    7        1.976393   1.000000
    8        2.047179   1.000000
    9        2.155467   1.000000
   10        2.271635   1.000000
   11        2.615940   1.000000
   12        2.953122   1.000000
   13        3.083026   1.000000
   14        3.672255   1.000000
   15        3.754722   1.000000
   16        3.852495   1.000000
   17        3.913175   1.000000
   18        4.208261   1.000000
   19        4.811983   1.000000
   20        5.439151   1.000000
   21        5.527749   1.000000
   22        6.585933   1.000000
   23        8.585927  -0.003996
   24       10.891456  -0.000000
   25       12.348216  -0.000000
   26       14.627408   0.000000
   27       14.934541   0.000000
   28       16.391133   0.000000
   29       18.207886   0.000000
   30       19.678153   0.000000
 
  0.4000000E+00  0.4000000E+00  0.0000000E+00  0.9600000E-01
    1        0.881948   1.000000
    2        1.144086   1.000000
    3        1.502107   1.000000
    4        1.771731   1.000000
    5        1.790890   1.000000
    6        2.009175   1.000000
    7        2.335656   1.000000
    8        2.367193   1.000000
    9        2.367193   1.000000
   10        2.684323   1.000000
   11        2.684323   1.000000
   12        3.027302   1.000000
   13        3.027302   1.000000
   14        3.407382   1.000000
   15        3.807404   1.000000
   16        4.609098   1.000000
   17        4.609098   1.000000
   18        4.776272   1.000000
   19        5.142733   1.000000
   20        5.696771   1.000000
   21        5.696771   1.000000
   22        7.047496   1.000000
   23        7.047496   1.000000
   24        7.970006   1.007965
   25       14.049938   0.000000
   26       15.743754   0.000000
   27       16.618195   0.000000
   28       16.618195   0.000000
   29       17.707237   0.000000
   30       17.707237   0.000000
 
  0.2000000E+00  0.2000000E+00  0.2000000E+00  0.6400000E-01
    1       -0.403024   1.000000
    2        0.667731   1.000000
    3        0.667731   1.000000
    4        1.328653   1.000000
    5        1.651424   1.000000
    6        1.651424   1.000000
    7        1.651424   1.000000
    8        1.765654   1.000000
    9        1.765654   1.000000
   10        2.527524   1.000000
   11        2.527524   1.000000
   12        2.527524   1.000000
   13        2.892891   1.000000
   14        2.892891   1.000000
   15        2.892891   1.000000
   16        5.284243   1.000000
   17        5.284243   1.000000
   18        5.284243   1.000000
   19        7.884560   1.034502
   20        7.884560   1.034502
   21        7.884560   1.034502
   22        8.289498   0.034507
   23        8.289498   0.034507
   24        8.289498   0.034507
   25       14.688643   0.000000
   26       14.688643   0.000000
   27       14.688643   0.000000
   28       17.422992   0.000000
   29       17.422992   0.000000
   30       17.422992   0.000000
 
  0.4000000E+00  0.2000000E+00  0.2000000E+00  0.1920000E+00
    1        0.881955   1.000000
    2        0.924132   1.000000
    3        1.364408   1.000000
    4        1.364408   1.000000
    5        1.827035   1.000000
    6        2.156368   1.000000
    7        2.157488   1.000000
    8        2.157488   1.000000
    9        2.456126   1.000000
   10        2.487916   1.000000
   11        2.536960   1.000000
   12        2.536960   1.000000
   13        2.838345   1.000000
   14        3.722998   1.000000
   15        3.722998   1.000000
   16        3.761158   1.000000
   17        4.305647   1.000000
   18        4.422613   1.000000
   19        4.991888   1.000000
   20        4.991888   1.000000
   21        5.757946   1.000000
   22        8.216731   0.221146
   23        9.006254  -0.000000
   24        9.006254  -0.000000
   25       11.567881  -0.000000
   26       11.567881  -0.000000
   27       16.211071   0.000000
   28       18.512216   0.000000
   29       18.624040   0.000000
   30       18.624040   0.000000
 
  0.4000000E+00  0.4000000E+00  0.2000000E+00  0.1920000E+00
    1        0.972289   1.000000
    2        1.489719   1.000000
    3        1.489719   1.000000
    4        1.537505   1.000000
    5        1.771132   1.000000
    6        1.937750   1.000000
    7        1.937750   1.000000
    8        1.952701   1.000000
    9        2.364749   1.000000
   10        2.364749   1.000000
   11        2.466447   1.000000
   12        3.080834   1.000000
   13        3.415748   1.000000
   14        3.415748   1.000000
   15        3.571770   1.000000
   16        3.621486   1.000000
   17        4.150984   1.000000
   18        5.231832   1.000000
   19        5.376478   1.000000
   20        5.376478   1.000000
   21        6.042916   1.000000
   22        6.042916   1.000000
   23        6.790493   1.000000
   24        8.260895   0.092250
   25       10.873080  -0.000000
   26       13.048091  -0.000000
   27       13.048091  -0.000000
   28       15.365026   0.000000
   29       19.840693   0.000000
   30       21.915866   0.000000
 
  0.4000000E+00  0.4000000E+00  0.4000000E+00  0.6400000E-01
    1        1.205342   1.000000
    2        1.205342   1.000000
    3        1.205342   1.000000
    4        2.169686   1.000000
    5        2.613509   1.000000
    6        2.613509   1.000000
    7        2.613509   1.000000
    8        2.762440   1.000000
    9        2.762440   1.000000
   10        2.970853   1.000000
   11        2.970853   1.000000
   12        2.970853   1.000000
   13        4.828046   1.000000
   14        6.375347   1.000000
   15        6.375347   1.000000
   16        6.375347   1.000000
   17        6.795492   1.000000
   18        6.795492   1.000000
   19        6.795492   1.000000
   20        8.542239  -0.008519
   21        8.542239  -0.008519
   22        8.542239  -0.008519
   23        9.348143  -0.000000
   24        9.348143  -0.000000
   25       10.338938  -0.000000
   26       10.338938  -0.000000
   27       10.338938  -0.000000
   28       12.287677  -0.000000
   29       25.459329   0.000000
   30       25.459329   0.000000
