 vasp.6.2.0 18Jan21 (build Mar 17 2021 09:06:54) complex                        
  
 executed on             LinuxIFC date 2021.08.03  10:19:33
 serial version


--------------------------------------------------------------------------------------------------------


 INCAR:
   ENCUT = 150.000000
   SIGMA = 0.200000
   EDIFF = 1.00e-06
   GGA = PE
   PREC = normal
   IBRION = -1
   ICHARG = 1
   ISMEAR = 1
   KPAR = 1
   NBANDS = 30
   NSW = 0
   NCORE = 1
   LCHARG = .TRUE.

 POTCAR:    PAW_PBE Cu 22Jun2005                  
 POTCAR:    PAW_PBE Cu 22Jun2005                  
   SHA256 =  0e71e558f37a4e8407882b4609ceaae59938afaad9ced71dfe8490308a0ab630 Cu/POTCAR             
   COPYR  = (c) Copyright 22Jun2005 Georg Kresse                                                    
   COPYR  = This file is part of the software VASP. Any use, copying, and all other rights are regul
   COPYR  = If you do not have a valid VASP license, you may not use, copy or distribute this file. 
   VRHFIN =Cu: d10 p1                                                                               
   LEXCH  = PE                                                                                      
   EATOM  =  1390.9808 eV,  102.2342 Ry                                                             
                                                                                                    
   TITEL  = PAW_PBE Cu 22Jun2005                                                                    
   LULTRA =        F    use ultrasoft PP ?                                                          
   IUNSCR =        1    unscreen: 0-lin 1-nonlin 2-no                                               
   RPACOR =    2.000    partial core radius                                                         
   POMASS =   63.546; ZVAL   =   11.000    mass and valenz                                          
   RCORE  =    2.300    outmost cutoff radius                                                       
   RWIGS  =    2.200; RWIGS  =    1.164    wigner-seitz radius (au A)                               
   ENMAX  =  295.446; ENMIN  =  221.585 eV                                                          
   ICORE  =        3    local potential                                                             
   LCOR   =        T    correct aug charges                                                         
   LPAW   =        T    paw PP                                                                      
   EAUG   =  586.980                                                                                
   DEXC   =    0.000                                                                                
   RMAX   =    2.344    core radius for proj-oper                                                   
   RAUG   =    1.300    factor for augmentation sphere                                              
   RDEP   =    2.302    radius for radial grids                                                     
   RDEPT  =    1.771    core radius for aug-charge                                                  
                                                                                                    
   Atomic configuration                                                                             
    9 entries                                                                                       
     n  l   j            E        occ.                                                              
     1  0  0.50     -8850.2468   2.0000                                                             
     2  0  0.50     -1062.3498   2.0000                                                             
     2  1  1.50      -916.8226   6.0000                                                             
     3  0  0.50      -114.6929   2.0000                                                             
     3  1  1.50       -72.1325   6.0000                                                             
     3  2  2.50        -5.0394  10.0000                                                             
     4  0  0.50        -4.6097   1.0000                                                             
     4  1  0.50        -4.0817   0.0000                                                             
     4  3  2.50        -1.3606   0.0000                                                             
   Description                                                                                      
     l       E           TYP  RCUT    TYP  RCUT                                                     
     2     -5.0393973     23  2.200                                                                 
     2     10.8846608     23  2.200                                                                 
     0     -4.6097109     23  2.200                                                                 
     0      8.2520465     23  2.200                                                                 
     1     -2.7211652     23  2.200                                                                 
     1     21.7055443     23  2.200                                                                 
     3      2.7211652     23  2.300                                                                 
  local pseudopotential read in
  partial core-charges read in
  partial kinetic energy density read in
  atomic valenz-charges read in
  non local Contribution for L=           2  read in
    real space projection operators read in
  non local Contribution for L=           2  read in
    real space projection operators read in
  non local Contribution for L=           0  read in
    real space projection operators read in
  non local Contribution for L=           0  read in
    real space projection operators read in
  non local Contribution for L=           1  read in
    real space projection operators read in
  non local Contribution for L=           1  read in
    real space projection operators read in
    PAW grid and wavefunctions read in
 
   number of l-projection  operators is LMAX  =           6
   number of lm-projection operators is LMMAX =          18
 
  PAW_PBE Cu 22Jun2005                  :
 energy of atom  1       EATOM=-1390.9808
 kinetic energy error for atom=    9.8681 (will be added to EATOM!!)
 
 
 POSCAR: Cu
  positions in cartesian coordinates
  No initial velocities read in
 exchange correlation table for  LEXCH =        8
   RHO(1)=    0.500       N(1)  =     2000
   RHO(2)=  100.500       N(2)  =     4000
 


--------------------------------------------------------------------------------------------------------


 ion  position               nearest neighbor table
   1  0.000  0.000  0.000-   2 2.57   3 2.57   4 2.57   3 2.57   4 2.57   2 2.57   4 2.57   4 2.57
                             2 2.57   3 2.57   3 2.57   2 2.57
   2  0.500  0.500  0.000-   1 2.57   3 2.57   4 2.57   3 2.57   4 2.57   1 2.57   3 2.57   3 2.57
                             1 2.57   4 2.57   4 2.57   1 2.57
   3  0.500  0.000  0.500-   1 2.57   2 2.57   4 2.57   1 2.57   2 2.57   2 2.57   4 2.57   2 2.57
                             1 2.57   4 2.57   1 2.57   4 2.57
   4  0.000  0.500  0.500-   1 2.57   2 2.57   3 2.57   1 2.57   2 2.57   1 2.57   3 2.57   1 2.57
                             2 2.57   3 2.57   2 2.57   3 2.57
 
  LATTYP: Found a simple cubic cell.
 ALAT       =     3.6350000000
  
  Lattice vectors:
  
 A1 = (   3.6350000000,   0.0000000000,   0.0000000000)
 A2 = (   0.0000000000,   3.6350000000,   0.0000000000)
 A3 = (   0.0000000000,   0.0000000000,   3.6350000000)


Analysis of symmetry for initial positions (statically):
=====================================================================
 Subroutine PRICEL returns following result:
 
  LATTYP: Found a face centered cubic cell.
 ALAT       =     3.6350000000
  
  Lattice vectors:
  
 A1 = (   1.8175000000,  -1.8175000000,   0.0000000000)
 A2 = (   1.8175000000,   0.0000000000,   1.8175000000)
 A3 = (   0.0000000000,  -1.8175000000,   1.8175000000)
 
   4 primitive cells build up your supercell.
 

 Routine SETGRP: Setting up the symmetry group for a 
 simple cubic supercell.


 Subroutine GETGRP returns: Found 48 space group operations
 (whereof 48 operations were pure point group operations)
 out of a pool of 48 trial point group operations.


The static configuration has the point symmetry O_h .


Analysis of symmetry for dynamics (positions and initial velocities):
=====================================================================
 Subroutine PRICEL returns following result:
 
  LATTYP: Found a face centered cubic cell.
 ALAT       =     3.6350000000
  
  Lattice vectors:
  
 A1 = (   1.8175000000,  -1.8175000000,   0.0000000000)
 A2 = (   1.8175000000,   0.0000000000,   1.8175000000)
 A3 = (   0.0000000000,  -1.8175000000,   1.8175000000)
 
   4 primitive cells build up your supercell.
 

 Routine SETGRP: Setting up the symmetry group for a 
 simple cubic supercell.


 Subroutine GETGRP returns: Found 48 space group operations
 (whereof 48 operations were pure point group operations)
 out of a pool of 48 trial point group operations.


The dynamic configuration has the point symmetry O_h .


 Subroutine INISYM returns: Found 48 space group operations
 (whereof 48 operations are pure point group operations),
 and found     4 'primitive' translations


----------------------------------------------------------------------------------------

                                     Primitive cell                                     

  volume of cell :      12.0075

  direct lattice vectors                    reciprocal lattice vectors
     1.817500000 -1.817500000  0.000000000     0.275103164 -0.275103164 -0.275103164
     1.817500000  0.000000000  1.817500000     0.275103164  0.275103164  0.275103164
     0.000000000 -1.817500000  1.817500000    -0.275103164 -0.275103164  0.275103164

  length of vectors
     2.570333150  2.570333150  2.570333150     0.476492657  0.476492657  0.476492657

  position of ions in fractional coordinates (direct lattice)
     0.000000000  0.000000000  0.000000000

  ion indices of the primitive-cell ions
   primitive index   ion index
                 1           1

----------------------------------------------------------------------------------------

 
 
 KPOINTS: KPOINTS created by Atomic Simulation Env

Automatic generation of k-mesh.
 Grid dimensions read from file:
 generate k-points for:    5    5    5

 Generating k-lattice:

  Cartesian coordinates                     Fractional coordinates (reciprocal lattice)
     0.055020633  0.000000000  0.000000000     0.200000000  0.000000000  0.000000000
     0.000000000  0.055020633  0.000000000     0.000000000  0.200000000  0.000000000
     0.000000000  0.000000000  0.055020633     0.000000000  0.000000000  0.200000000

  Length of vectors
     0.055020633  0.055020633  0.055020633

  Shift w.r.t. Gamma in fractional coordinates (k-lattice)
     0.000000000  0.000000000  0.000000000

 
 Subroutine IBZKPT returns following result:
 ===========================================
 
 Found     10 irreducible k-points:
 
 Following reciprocal coordinates:
            Coordinates               Weight
  0.000000  0.000000  0.000000      1.000000
  0.200000  0.000000  0.000000      6.000000
  0.400000  0.000000  0.000000      6.000000
  0.200000  0.200000  0.000000     12.000000
  0.400000  0.200000  0.000000     24.000000
  0.400000  0.400000  0.000000     12.000000
  0.200000  0.200000  0.200000      8.000000
  0.400000  0.200000  0.200000     24.000000
  0.400000  0.400000  0.200000     24.000000
  0.400000  0.400000  0.400000      8.000000
 
 Following cartesian coordinates:
            Coordinates               Weight
  0.000000  0.000000  0.000000      1.000000
  0.055021  0.000000  0.000000      6.000000
  0.110041  0.000000  0.000000      6.000000
  0.055021  0.055021  0.000000     12.000000
  0.110041  0.055021  0.000000     24.000000
  0.110041  0.110041  0.000000     12.000000
  0.055021  0.055021  0.055021      8.000000
  0.110041  0.055021  0.055021     24.000000
  0.110041  0.110041  0.055021     24.000000
  0.110041  0.110041  0.110041      8.000000
 


--------------------------------------------------------------------------------------------------------




 Dimension of arrays:
   k-points           NKPTS =     10   k-points in BZ     NKDIM =     10   number of bands    NBANDS=     30
   number of dos      NEDOS =    301   number of ions     NIONS =      4
   non local maximal  LDIM  =      6   non local SUM 2l+1 LMDIM =     18
   total plane-waves  NPLWV =   1728
   max r-space proj   IRMAX =      1   max aug-charges    IRDMAX=   1241
   dimension x,y,z NGX =    12 NGY =   12 NGZ =   12
   dimension x,y,z NGXF=    24 NGYF=   24 NGZF=   24
   support grid    NGXF=    24 NGYF=   24 NGZF=   24
   ions per type =               4
   NGX,Y,Z   is equivalent  to a cutoff of   5.49,  5.49,  5.49 a.u.
   NGXF,Y,Z  is equivalent  to a cutoff of  10.98, 10.98, 10.98 a.u.

 SYSTEM =  unknown system                          
 POSCAR =  Cu                                      

 Startparameter for this run:
   NWRITE =      2    write-flag & timer
   PREC   = normal    normal or accurate (medium, high low for compatibility)
   ISTART =      0    job   : 0-new  1-cont  2-samecut
   ICHARG =      1    charge: 1-file 2-atom 10-const
   ISPIN  =      1    spin polarized calculation?
   LNONCOLLINEAR =      F non collinear calculations
   LSORBIT =      F    spin-orbit coupling
   INIWAV =      1    electr: 0-lowe 1-rand  2-diag
   LASPH  =      F    aspherical Exc in radial PAW
   METAGGA=      F    non-selfconsistent MetaGGA calc.

 Electronic Relaxation 1
   ENCUT  =  150.0 eV  11.02 Ry    3.32 a.u.   3.63  3.63  3.63*2*pi/ulx,y,z
   ENINI  =  150.0     initial cutoff
   ENAUG  =  587.0 eV  augmentation charge cutoff
   NELM   =     60;   NELMIN=  2; NELMDL= -5     # of ELM steps 
   EDIFF  = 0.1E-05   stopping-criterion for ELM
   LREAL  =      F    real-space projection
   NLSPLINE    = F    spline interpolate recip. space projectors
   LCOMPAT=      F    compatible to vasp.4.4
   GGA_COMPAT  = T    GGA compatible to vasp.4.4-vasp.4.6
   LMAXPAW     = -100 max onsite density
   LMAXMIX     =    2 max onsite mixed and CHGCAR
   VOSKOWN=      0    Vosko Wilk Nusair interpolation
   ROPT   =    0.00000
 Ionic relaxation
   EDIFFG = 0.1E-04   stopping-criterion for IOM
   NSW    =      0    number of steps for IOM
   NBLOCK =      1;   KBLOCK =      1    inner block; outer block 
   IBRION =     -1    ionic relax: 0-MD 1-quasi-New 2-CG
   NFREE  =      0    steps in history (QN), initial steepest desc. (CG)
   ISIF   =      2    stress and relaxation
   IWAVPR =      0    prediction:  0-non 1-charg 2-wave 3-comb
   ISYM   =      2    0-nonsym 1-usesym 2-fastsym
   LCORR  =      T    Harris-Foulkes like correction to forces

   POTIM  = 0.5000    time-step for ionic-motion
   TEIN   =    0.0    initial temperature
   TEBEG  =    0.0;   TEEND  =   0.0 temperature during run
   SMASS  =  -3.00    Nose mass-parameter (am)
   estimated Nose-frequenzy (Omega)   =  0.10E-29 period in steps = 0.13E+47 mass=  -0.302E-27a.u.
   SCALEE = 1.0000    scale energy and forces
   NPACO  =    256;   APACO  = 16.0  distance and # of slots for P.C.
   PSTRESS=    0.0 pullay stress

  Mass of Ions in am
   POMASS =  63.55
  Ionic Valenz
   ZVAL   =  11.00
  Atomic Wigner-Seitz radii
   RWIGS  =  -1.00
  virtual crystal weights 
   VCA    =   1.00
   NELECT =      44.0000    total number of electrons
   NUPDOWN=      -1.0000    fix difference up-down

 DOS related values:
   EMIN   =  10.00;   EMAX   =-10.00  energy-range for DOS
   EFERMI =   0.00
   ISMEAR =     1;   SIGMA  =   0.20  broadening in eV -4-tet -1-fermi 0-gaus

 Electronic relaxation 2 (details)
   IALGO  =     38    algorithm
   LDIAG  =      T    sub-space diagonalisation (order eigenvalues)
   LSUBROT=      F    optimize rotation matrix (better conditioning)
   TURBO    =      0    0=normal 1=particle mesh
   IRESTART =      0    0=no restart 2=restart with 2 vectors
   NREBOOT  =      0    no. of reboots
   NMIN     =      0    reboot dimension
   EREF     =   0.00    reference energy to select bands
   IMIX   =      4    mixing-type and parameters
     AMIX     =   0.40;   BMIX     =  1.00
     AMIX_MAG =   1.60;   BMIX_MAG =  1.00
     AMIN     =   0.10
     WC   =   100.;   INIMIX=   1;  MIXPRE=   1;  MAXMIX= -45

 Intra band minimization:
   WEIMIN = 0.0000     energy-eigenvalue tresh-hold
   EBREAK =  0.83E-08  absolut break condition
   DEPER  =   0.30     relativ break condition  

   TIME   =   0.40     timestep for ELM

  volume/ion in A,a.u.               =      12.01        81.03
  Fermi-wavevector in a.u.,A,eV,Ry     =   1.589967  3.004601 34.395439  2.527993
  Thomas-Fermi vector in A             =   2.688734
 
 Write flags
   LWAVE        =      T    write WAVECAR
   LDOWNSAMPLE  =      F    k-point downsampling of WAVECAR
   LCHARG       =      T    write CHGCAR
   LVTOT        =      F    write LOCPOT, total local potential
   LVHAR        =      F    write LOCPOT, Hartree potential only
   LELF         =      F    write electronic localiz. function (ELF)
   LORBIT       =      0    0 simple, 1 ext, 2 COOP (PROOUT), +10 PAW based schemes


 Dipole corrections
   LMONO  =      F    monopole corrections only (constant potential shift)
   LDIPOL =      F    correct potential (dipole corrections)
   IDIPOL =      0    1-x, 2-y, 3-z, 4-all directions 
   EPSILON=  1.0000000 bulk dielectric constant

 Exchange correlation treatment:
   GGA     =    PE    GGA type
   LEXCH   =     8    internal setting for exchange type
   VOSKOWN=      0    Vosko Wilk Nusair interpolation
   LHFCALC =     F    Hartree Fock is set to
   LHFONE  =     F    Hartree Fock one center treatment
   AEXX    =    0.0000 exact exchange contribution

 Linear response parameters
   LEPSILON=     F    determine dielectric tensor
   LRPA    =     F    only Hartree local field effects (RPA)
   LNABLA  =     F    use nabla operator in PAW spheres
   LVEL    =     F    velocity operator in full k-point grid
   LINTERFAST=   F  fast interpolation
   KINTER  =     0    interpolate to denser k-point grid
   CSHIFT  =0.1000    complex shift for real part using Kramers Kronig
   OMEGAMAX=  -1.0    maximum frequency
   DEG_THRESHOLD= 0.2000000E-02 threshold for treating states as degnerate
   RTIME   =   -0.100 relaxation time in fs
  (WPLASMAI=    0.000 imaginary part of plasma frequency in eV, 0.658/RTIME)
   DFIELD  = 0.0000000 0.0000000 0.0000000 field for delta impulse in time
 
 Orbital magnetization related:
   ORBITALMAG=     F  switch on orbital magnetization
   LCHIMAG   =     F  perturbation theory with respect to B field
   DQ        =  0.001000  dq finite difference perturbation B field
   LLRAUG    =     F  two centre corrections for induced B field



--------------------------------------------------------------------------------------------------------


 Static calculation
 charge density and potential will be updated during run
 non-spin polarized calculation
 Variant of blocked Davidson
 Davidson routine will perform the subspace rotation
 perform sub-space diagonalisation
    after iterative eigenvector-optimisation
 modified Broyden-mixing scheme, WC =      100.0
 initial mixing is a Kerker type mixing with AMIX =  0.4000 and BMIX =      1.0000
 Hartree-type preconditioning will be used
 using additional bands            8
 reciprocal scheme for non local part
 use partial core corrections
 calculate Harris-corrections to forces 
   (improved forces if not selfconsistent)
 use gradient corrections 
 use of overlap-Matrix (Vanderbilt PP)
 Methfessel and Paxton  Order N= 1 SIGMA  =   0.20


--------------------------------------------------------------------------------------------------------


  energy-cutoff  :      150.00
  volume of cell :       48.03
      direct lattice vectors                 reciprocal lattice vectors
     3.635000000  0.000000000  0.000000000     0.275103164  0.000000000  0.000000000
     0.000000000  3.635000000  0.000000000     0.000000000  0.275103164  0.000000000
     0.000000000  0.000000000  3.635000000     0.000000000  0.000000000  0.275103164

  length of vectors
     3.635000000  3.635000000  3.635000000     0.275103164  0.275103164  0.275103164


 
 k-points in units of 2pi/SCALE and weight: KPOINTS created by Atomic Simulation Env
   0.00000000  0.00000000  0.00000000       0.008
   0.05502063  0.00000000  0.00000000       0.048
   0.11004127  0.00000000  0.00000000       0.048
   0.05502063  0.05502063  0.00000000       0.096
   0.11004127  0.05502063  0.00000000       0.192
   0.11004127  0.11004127  0.00000000       0.096
   0.05502063  0.05502063  0.05502063       0.064
   0.11004127  0.05502063  0.05502063       0.192
   0.11004127  0.11004127  0.05502063       0.192
   0.11004127  0.11004127  0.11004127       0.064
 
 k-points in reciprocal lattice and weights: KPOINTS created by Atomic Simulation Env
   0.00000000  0.00000000  0.00000000       0.008
   0.20000000  0.00000000  0.00000000       0.048
   0.40000000  0.00000000  0.00000000       0.048
   0.20000000  0.20000000  0.00000000       0.096
   0.40000000  0.20000000  0.00000000       0.192
   0.40000000  0.40000000  0.00000000       0.096
   0.20000000  0.20000000  0.20000000       0.064
   0.40000000  0.20000000  0.20000000       0.192
   0.40000000  0.40000000  0.20000000       0.192
   0.40000000  0.40000000  0.40000000       0.064
 
 position of ions in fractional coordinates (direct lattice) 
   0.00000000  0.00000000  0.00000000
   0.50000000  0.50000000  0.00000000
   0.50000000  0.00000000  0.50000000
   0.00000000  0.50000000  0.50000000
 
 position of ions in cartesian coordinates  (Angst):
   0.00000000  0.00000000  0.00000000
   1.81750000  1.81750000  0.00000000
   1.81750000  0.00000000  1.81750000
   0.00000000  1.81750000  1.81750000
 


--------------------------------------------------------------------------------------------------------


 k-point   1 :   0.0000 0.0000 0.0000  plane waves:     203
 k-point   2 :   0.2000 0.0000 0.0000  plane waves:     203
 k-point   3 :   0.4000 0.0000 0.0000  plane waves:     204
 k-point   4 :   0.2000 0.2000 0.0000  plane waves:     201
 k-point   5 :   0.4000 0.2000 0.0000  plane waves:     202
 k-point   6 :   0.4000 0.4000 0.0000  plane waves:     201
 k-point   7 :   0.2000 0.2000 0.2000  plane waves:     202
 k-point   8 :   0.4000 0.2000 0.2000  plane waves:     202
 k-point   9 :   0.4000 0.4000 0.2000  plane waves:     203
 k-point  10 :   0.4000 0.4000 0.4000  plane waves:     190

 maximum number of plane-waves:       204
 maximum index in each direction: 
   IXMAX=    3   IYMAX=    3   IZMAX=    3
   IXMIN=   -4   IYMIN=   -4   IZMIN=   -3


 total amount of memory used by VASP MPI-rank0    32463. kBytes
=======================================================================

   base      :      30000. kBytes
   nonl-proj :        306. kBytes
   grid      :        771. kBytes
   one-center:         62. kBytes
   wavefun   :       1324. kBytes
 
     INWAV:  cpu time    0.0000: real time    0.0000
 Broyden mixing: mesh for mixing (old mesh)
   NGX =  7   NGY =  7   NGZ =  7
  (NGX  = 24   NGY  = 24   NGZ  = 24)
  gives a total of    343 points

 initial charge density was supplied:
 charge density of overlapping atoms calculated
 number of electron      44.0000000 magnetization 
 keeping initial charge density in first step


--------------------------------------------------------------------------------------------------------


 Maximum index for augmentation-charges         1021 (set IRDMAX)


--------------------------------------------------------------------------------------------------------


 First call to EWALD:  gamma=   0.488
 Maximum number of real-space cells 3x 3x 3
 Maximum number of reciprocal cells 3x 3x 3

    FEWALD:  cpu time    0.0009: real time    0.0009


--------------------------------------- Iteration      1(   1)  ---------------------------------------


    POTLOK:  cpu time    0.0033: real time    0.0033
    SETDIJ:  cpu time    0.0034: real time    0.0034
     EDDAV:  cpu time    0.0643: real time    0.0819
       DOS:  cpu time    0.0009: real time    0.0009
    --------------------------------------------
      LOOP:  cpu time    0.0719: real time    0.0895

 eigenvalue-minimisations  :   614
 total energy-change (2. order) : 0.2003309E+03  (-0.9983111E+03)
 number of electron      44.0000000 magnetization 
 augmentation part       44.0000000 magnetization 

 Free energy of the ion-electron system (eV)
  ---------------------------------------------------
  alpha Z        PSCENC =       243.62337785
  Ewald energy   TEWEN  =     -4395.34838493
  -Hartree energ DENC   =     -1460.68396462
  -exchange      EXHF   =         0.00000000
  -V(xc)+E(xc)   XCENC  =       182.95351701
  PAW double counting   =      4912.82663951    -5336.19386850
  entropy T*S    EENTRO =         0.00949363
  eigenvalues    EBANDS =       528.69317206
  atomic energy  EATOM  =      5524.45088734
  Solvation  Ediel_sol  =         0.00000000
  ---------------------------------------------------
  free energy    TOTEN  =       200.33086934 eV

  energy without entropy =      200.32137571  energy(sigma->0) =      200.32770480


--------------------------------------------------------------------------------------------------------




--------------------------------------- Iteration      1(   2)  ---------------------------------------


     EDDAV:  cpu time    0.0551: real time    0.0551
       DOS:  cpu time    0.0012: real time    0.0012
    --------------------------------------------
      LOOP:  cpu time    0.0564: real time    0.0564

 eigenvalue-minimisations  :   642
 total energy-change (2. order) :-0.1501657E+03  (-0.1403008E+03)
 number of electron      44.0000000 magnetization 
 augmentation part       44.0000000 magnetization 

 Free energy of the ion-electron system (eV)
  ---------------------------------------------------
  alpha Z        PSCENC =       243.62337785
  Ewald energy   TEWEN  =     -4395.34838493
  -Hartree energ DENC   =     -1460.68396462
  -exchange      EXHF   =         0.00000000
  -V(xc)+E(xc)   XCENC  =       182.95351701
  PAW double counting   =      4912.82663951    -5336.19386850
  entropy T*S    EENTRO =         0.00341375
  eigenvalues    EBANDS =       378.53358803
  atomic energy  EATOM  =      5524.45088734
  Solvation  Ediel_sol  =         0.00000000
  ---------------------------------------------------
  free energy    TOTEN  =        50.16520543 eV

  energy without entropy =       50.16179168  energy(sigma->0) =       50.16406751


--------------------------------------------------------------------------------------------------------




--------------------------------------- Iteration      1(   3)  ---------------------------------------


     EDDAV:  cpu time    0.0577: real time    0.0577
       DOS:  cpu time    0.0010: real time    0.0010
    --------------------------------------------
      LOOP:  cpu time    0.0587: real time    0.0587

 eigenvalue-minimisations  :   656
 total energy-change (2. order) :-0.3603226E+01  (-0.3572905E+01)
 number of electron      44.0000000 magnetization 
 augmentation part       44.0000000 magnetization 

 Free energy of the ion-electron system (eV)
  ---------------------------------------------------
  alpha Z        PSCENC =       243.62337785
  Ewald energy   TEWEN  =     -4395.34838493
  -Hartree energ DENC   =     -1460.68396462
  -exchange      EXHF   =         0.00000000
  -V(xc)+E(xc)   XCENC  =       182.95351701
  PAW double counting   =      4912.82663951    -5336.19386850
  entropy T*S    EENTRO =         0.00439268
  eigenvalues    EBANDS =       374.92938353
  atomic energy  EATOM  =      5524.45088734
  Solvation  Ediel_sol  =         0.00000000
  ---------------------------------------------------
  free energy    TOTEN  =        46.56197986 eV

  energy without entropy =       46.55758719  energy(sigma->0) =       46.56051564


--------------------------------------------------------------------------------------------------------




--------------------------------------- Iteration      1(   4)  ---------------------------------------


     EDDAV:  cpu time    0.0556: real time    0.0556
       DOS:  cpu time    0.0009: real time    0.0009
    --------------------------------------------
      LOOP:  cpu time    0.0565: real time    0.0565

 eigenvalue-minimisations  :   650
 total energy-change (2. order) :-0.1738642E-01  (-0.1735757E-01)
 number of electron      44.0000000 magnetization 
 augmentation part       44.0000000 magnetization 

 Free energy of the ion-electron system (eV)
  ---------------------------------------------------
  alpha Z        PSCENC =       243.62337785
  Ewald energy   TEWEN  =     -4395.34838493
  -Hartree energ DENC   =     -1460.68396462
  -exchange      EXHF   =         0.00000000
  -V(xc)+E(xc)   XCENC  =       182.95351701
  PAW double counting   =      4912.82663951    -5336.19386850
  entropy T*S    EENTRO =         0.00444078
  eigenvalues    EBANDS =       374.91194901
  atomic energy  EATOM  =      5524.45088734
  Solvation  Ediel_sol  =         0.00000000
  ---------------------------------------------------
  free energy    TOTEN  =        46.54459345 eV

  energy without entropy =       46.54015267  energy(sigma->0) =       46.54311319


--------------------------------------------------------------------------------------------------------




--------------------------------------- Iteration      1(   5)  ---------------------------------------


     EDDAV:  cpu time    0.0562: real time    0.0562
       DOS:  cpu time    0.0009: real time    0.0009
    CHARGE:  cpu time    0.0052: real time    0.0052
    MIXING:  cpu time    0.0001: real time    0.0001
    --------------------------------------------
      LOOP:  cpu time    0.0625: real time    0.0625

 eigenvalue-minimisations  :   662
 total energy-change (2. order) :-0.1356131E-03  (-0.1356014E-03)
 number of electron      44.0003472 magnetization 
 augmentation part       20.1820590 magnetization 

 Broyden mixing:
  rms(total) = 0.44806E+01    rms(broyden)= 0.44452E+01
  rms(prec ) = 0.97317E+01
  weight for this iteration     100.00

 Free energy of the ion-electron system (eV)
  ---------------------------------------------------
  alpha Z        PSCENC =       243.62337785
  Ewald energy   TEWEN  =     -4395.34838493
  -Hartree energ DENC   =     -1460.68396462
  -exchange      EXHF   =         0.00000000
  -V(xc)+E(xc)   XCENC  =       182.95351701
  PAW double counting   =      4912.82663951    -5336.19386850
  entropy T*S    EENTRO =         0.00444132
  eigenvalues    EBANDS =       374.91181286
  atomic energy  EATOM  =      5524.45088734
  Solvation  Ediel_sol  =         0.00000000
  ---------------------------------------------------
  free energy    TOTEN  =        46.54445783 eV

  energy without entropy =       46.54001652  energy(sigma->0) =       46.54297739


--------------------------------------------------------------------------------------------------------




--------------------------------------- Iteration      1(   6)  ---------------------------------------


    POTLOK:  cpu time    0.0031: real time    0.0031
    SETDIJ:  cpu time    0.0035: real time    0.0035
     EDDAV:  cpu time    0.0520: real time    0.0520
       DOS:  cpu time    0.0009: real time    0.0009
    CHARGE:  cpu time    0.0048: real time    0.0048
    MIXING:  cpu time    0.0002: real time    0.0002
    --------------------------------------------
      LOOP:  cpu time    0.0646: real time    0.0646

 eigenvalue-minimisations  :   600
 total energy-change (2. order) : 0.3464844E+02  (-0.2220495E+02)
 number of electron      44.0004167 magnetization 
 augmentation part       27.6088634 magnetization 

 Broyden mixing:
  rms(total) = 0.12750E+01    rms(broyden)= 0.12242E+01
  rms(prec ) = 0.29955E+01
  weight for this iteration     100.00

 eigenvalues of (default mixing * dielectric matrix)
  average eigenvalue GAMMA=   0.7952
  0.7952

 Free energy of the ion-electron system (eV)
  ---------------------------------------------------
  alpha Z        PSCENC =       243.62337785
  Ewald energy   TEWEN  =     -4395.34838493
  -Hartree energ DENC   =     -1171.71761231
  -exchange      EXHF   =         0.00000000
  -V(xc)+E(xc)   XCENC  =       168.05511595
  PAW double counting   =      5333.66282119    -5665.22276585
  entropy T*S    EENTRO =         0.00092557
  eigenvalues    EBANDS =        43.68852827
  atomic energy  EATOM  =      5524.45088734
  Solvation  Ediel_sol  =         0.00000000
  ---------------------------------------------------
  free energy    TOTEN  =        81.19289309 eV

  energy without entropy =       81.19196751  energy(sigma->0) =       81.19258456


--------------------------------------------------------------------------------------------------------




--------------------------------------- Iteration      1(   7)  ---------------------------------------


    POTLOK:  cpu time    0.0031: real time    0.0031
    SETDIJ:  cpu time    0.0035: real time    0.0035
     EDDAV:  cpu time    0.0551: real time    0.0551
       DOS:  cpu time    0.0009: real time    0.0009
    CHARGE:  cpu time    0.0050: real time    0.0050
    MIXING:  cpu time    0.0002: real time    0.0002
    --------------------------------------------
      LOOP:  cpu time    0.0677: real time    0.0677

 eigenvalue-minimisations  :   642
 total energy-change (2. order) : 0.2936452E+01  (-0.1545546E+01)
 number of electron      44.0003980 magnetization 
 augmentation part       26.0996899 magnetization 

 Broyden mixing:
  rms(total) = 0.29095E+00    rms(broyden)= 0.28957E+00
  rms(prec ) = 0.59605E+00
  weight for this iteration     100.00

 eigenvalues of (default mixing * dielectric matrix)
  average eigenvalue GAMMA=   1.9882
  0.7945  3.1818

 Free energy of the ion-electron system (eV)
  ---------------------------------------------------
  alpha Z        PSCENC =       243.62337785
  Ewald energy   TEWEN  =     -4395.34838493
  -Hartree energ DENC   =     -1239.98771123
  -exchange      EXHF   =         0.00000000
  -V(xc)+E(xc)   XCENC  =       171.32730811
  PAW double counting   =      5704.85024922    -6052.79231110
  entropy T*S    EENTRO =        -0.00213375
  eigenvalues    EBANDS =       128.00806336
  atomic energy  EATOM  =      5524.45088734
  Solvation  Ediel_sol  =         0.00000000
  ---------------------------------------------------
  free energy    TOTEN  =        84.12934486 eV

  energy without entropy =       84.13147861  energy(sigma->0) =       84.13005611


--------------------------------------------------------------------------------------------------------




--------------------------------------- Iteration      1(   8)  ---------------------------------------


    POTLOK:  cpu time    0.0032: real time    0.0032
    SETDIJ:  cpu time    0.0035: real time    0.0035
     EDDAV:  cpu time    0.0524: real time    0.0524
       DOS:  cpu time    0.0009: real time    0.0009
    CHARGE:  cpu time    0.0050: real time    0.0050
    MIXING:  cpu time    0.0002: real time    0.0002
    --------------------------------------------
      LOOP:  cpu time    0.0651: real time    0.0651

 eigenvalue-minimisations  :   606
 total energy-change (2. order) :-0.1375483E+00  (-0.6848217E-01)
 number of electron      44.0003935 magnetization 
 augmentation part       25.7803777 magnetization 

 Broyden mixing:
  rms(total) = 0.15599E+00    rms(broyden)= 0.15392E+00
  rms(prec ) = 0.37013E+00
  weight for this iteration     100.00

 eigenvalues of (default mixing * dielectric matrix)
  average eigenvalue GAMMA=   1.4999
  0.8109  1.4060  2.2827

 Free energy of the ion-electron system (eV)
  ---------------------------------------------------
  alpha Z        PSCENC =       243.62337785
  Ewald energy   TEWEN  =     -4395.34838493
  -Hartree energ DENC   =     -1272.53178966
  -exchange      EXHF   =         0.00000000
  -V(xc)+E(xc)   XCENC  =       172.72647207
  PAW double counting   =      6818.33002393    -7161.82427952
  entropy T*S    EENTRO =         0.00366670
  eigenvalues    EBANDS =       154.56182274
  atomic energy  EATOM  =      5524.45088734
  Solvation  Ediel_sol  =         0.00000000
  ---------------------------------------------------
  free energy    TOTEN  =        83.99179651 eV

  energy without entropy =       83.98812981  energy(sigma->0) =       83.99057428


--------------------------------------------------------------------------------------------------------




--------------------------------------- Iteration      1(   9)  ---------------------------------------


    POTLOK:  cpu time    0.0031: real time    0.0031
    SETDIJ:  cpu time    0.0035: real time    0.0035
     EDDAV:  cpu time    0.0517: real time    0.0517
       DOS:  cpu time    0.0009: real time    0.0009
    CHARGE:  cpu time    0.0050: real time    0.0050
    MIXING:  cpu time    0.0002: real time    0.0002
    --------------------------------------------
      LOOP:  cpu time    0.0644: real time    0.0644

 eigenvalue-minimisations  :   600
 total energy-change (2. order) : 0.3126552E-01  (-0.1904154E-01)
 number of electron      44.0003958 magnetization 
 augmentation part       25.9690698 magnetization 

 Broyden mixing:
  rms(total) = 0.17489E-01    rms(broyden)= 0.16226E-01
  rms(prec ) = 0.19257E-01
  weight for this iteration     100.00

 eigenvalues of (default mixing * dielectric matrix)
  average eigenvalue GAMMA=   1.7488
  2.6659  2.6659  0.8317  0.8317

 Free energy of the ion-electron system (eV)
  ---------------------------------------------------
  alpha Z        PSCENC =       243.62337785
  Ewald energy   TEWEN  =     -4395.34838493
  -Hartree energ DENC   =     -1260.49605121
  -exchange      EXHF   =         0.00000000
  -V(xc)+E(xc)   XCENC  =       172.13868787
  PAW double counting   =      6553.80896662    -6896.48491579
  entropy T*S    EENTRO =        -0.00118961
  eigenvalues    EBANDS =       142.33168389
  atomic energy  EATOM  =      5524.45088734
  Solvation  Ediel_sol  =         0.00000000
  ---------------------------------------------------
  free energy    TOTEN  =        84.02306203 eV

  energy without entropy =       84.02425164  energy(sigma->0) =       84.02345856


--------------------------------------------------------------------------------------------------------




--------------------------------------- Iteration      1(  10)  ---------------------------------------


    POTLOK:  cpu time    0.0030: real time    0.0030
    SETDIJ:  cpu time    0.0035: real time    0.0035
     EDDAV:  cpu time    0.0531: real time    0.0531
       DOS:  cpu time    0.0009: real time    0.0009
    CHARGE:  cpu time    0.0050: real time    0.0050
    MIXING:  cpu time    0.0002: real time    0.0002
    --------------------------------------------
      LOOP:  cpu time    0.0657: real time    0.0657

 eigenvalue-minimisations  :   618
 total energy-change (2. order) :-0.8564342E-03  (-0.8891883E-04)
 number of electron      44.0003959 magnetization 
 augmentation part       25.9782925 magnetization 

 Broyden mixing:
  rms(total) = 0.94750E-02    rms(broyden)= 0.92800E-02
  rms(prec ) = 0.22562E-01
  weight for this iteration     100.00

 eigenvalues of (default mixing * dielectric matrix)
  average eigenvalue GAMMA=   1.5647
  2.6442  2.3265  0.8253  1.0138  1.0138

 Free energy of the ion-electron system (eV)
  ---------------------------------------------------
  alpha Z        PSCENC =       243.62337785
  Ewald energy   TEWEN  =     -4395.34838493
  -Hartree energ DENC   =     -1260.11685706
  -exchange      EXHF   =         0.00000000
  -V(xc)+E(xc)   XCENC  =       172.12138082
  PAW double counting   =      6500.65927168    -6843.23753398
  entropy T*S    EENTRO =        -0.00129514
  eigenvalues    EBANDS =       141.87135901
  atomic energy  EATOM  =      5524.45088734
  Solvation  Ediel_sol  =         0.00000000
  ---------------------------------------------------
  free energy    TOTEN  =        84.02220559 eV

  energy without entropy =       84.02350073  energy(sigma->0) =       84.02263731


--------------------------------------------------------------------------------------------------------




--------------------------------------- Iteration      1(  11)  ---------------------------------------


    POTLOK:  cpu time    0.0031: real time    0.0031
    SETDIJ:  cpu time    0.0034: real time    0.0034
     EDDAV:  cpu time    0.0527: real time    0.0527
       DOS:  cpu time    0.0009: real time    0.0009
    CHARGE:  cpu time    0.0050: real time    0.0050
    MIXING:  cpu time    0.0002: real time    0.0002
    --------------------------------------------
      LOOP:  cpu time    0.0654: real time    0.0654

 eigenvalue-minimisations  :   618
 total energy-change (2. order) : 0.1153853E-03  (-0.5696007E-04)
 number of electron      44.0003958 magnetization 
 augmentation part       25.9671921 magnetization 

 Broyden mixing:
  rms(total) = 0.65448E-03    rms(broyden)= 0.58056E-03
  rms(prec ) = 0.11484E-02
  weight for this iteration     100.00
  WARNING: grid for Broyden might be to small

 eigenvalues of (default mixing * dielectric matrix)
  average eigenvalue GAMMA=   1.6488
  2.8311  2.6090  0.8266  1.0007  1.0007  1.6246

 Free energy of the ion-electron system (eV)
  ---------------------------------------------------
  alpha Z        PSCENC =       243.62337785
  Ewald energy   TEWEN  =     -4395.34838493
  -Hartree energ DENC   =     -1260.78024806
  -exchange      EXHF   =         0.00000000
  -V(xc)+E(xc)   XCENC  =       172.15357492
  PAW double counting   =      6494.39209110    -6837.03323192
  entropy T*S    EENTRO =        -0.00113514
  eigenvalues    EBANDS =       142.56538982
  atomic energy  EATOM  =      5524.45088734
  Solvation  Ediel_sol  =         0.00000000
  ---------------------------------------------------
  free energy    TOTEN  =        84.02232098 eV

  energy without entropy =       84.02345612  energy(sigma->0) =       84.02269936


--------------------------------------------------------------------------------------------------------




--------------------------------------- Iteration      1(  12)  ---------------------------------------


    POTLOK:  cpu time    0.0031: real time    0.0031
    SETDIJ:  cpu time    0.0035: real time    0.0035
     EDDAV:  cpu time    0.0502: real time    0.0502
       DOS:  cpu time    0.0009: real time    0.0009
    CHARGE:  cpu time    0.0049: real time    0.0049
    MIXING:  cpu time    0.0002: real time    0.0002
    --------------------------------------------
      LOOP:  cpu time    0.0628: real time    0.0628

 eigenvalue-minimisations  :   588
 total energy-change (2. order) :-0.1148740E-05  (-0.4401803E-06)
 number of electron      44.0003958 magnetization 
 augmentation part       25.9666099 magnetization 

 Broyden mixing:
  rms(total) = 0.14685E-03    rms(broyden)= 0.10814E-03
  rms(prec ) = 0.16303E-03
  weight for this iteration     100.00
  WARNING: grid for Broyden might be to small

 eigenvalues of (default mixing * dielectric matrix)
  average eigenvalue GAMMA=   1.6940
  2.8709  2.7350  2.2683  0.8264  0.9756  0.9756  1.2064

 Free energy of the ion-electron system (eV)
  ---------------------------------------------------
  alpha Z        PSCENC =       243.62337785
  Ewald energy   TEWEN  =     -4395.34838493
  -Hartree energ DENC   =     -1260.80909214
  -exchange      EXHF   =         0.00000000
  -V(xc)+E(xc)   XCENC  =       172.15482803
  PAW double counting   =      6492.31596353    -6834.96351330
  entropy T*S    EENTRO =        -0.00112590
  eigenvalues    EBANDS =       142.59937936
  atomic energy  EATOM  =      5524.45088734
  Solvation  Ediel_sol  =         0.00000000
  ---------------------------------------------------
  free energy    TOTEN  =        84.02231983 eV

  energy without entropy =       84.02344573  energy(sigma->0) =       84.02269513


--------------------------------------------------------------------------------------------------------




--------------------------------------- Iteration      1(  13)  ---------------------------------------


    POTLOK:  cpu time    0.0031: real time    0.0031
    SETDIJ:  cpu time    0.0035: real time    0.0035
     EDDAV:  cpu time    0.0352: real time    0.0352
       DOS:  cpu time    0.0009: real time    0.0009
    --------------------------------------------
      LOOP:  cpu time    0.0427: real time    0.0427

 eigenvalue-minimisations  :   330
 total energy-change (2. order) :-0.4291478E-06  (-0.8104339E-08)
 number of electron      44.0003958 magnetization 
 augmentation part       25.9666099 magnetization 

 Free energy of the ion-electron system (eV)
  ---------------------------------------------------
  alpha Z        PSCENC =       243.62337785
  Ewald energy   TEWEN  =     -4395.34838493
  -Hartree energ DENC   =     -1260.80921453
  -exchange      EXHF   =         0.00000000
  -V(xc)+E(xc)   XCENC  =       172.15477670
  PAW double counting   =      6492.17334323    -6834.82365235
  entropy T*S    EENTRO =        -0.00112534
  eigenvalues    EBANDS =       142.60231143
  atomic energy  EATOM  =      5524.45088734
  Solvation  Ediel_sol  =         0.00000000
  ---------------------------------------------------
  free energy    TOTEN  =        84.02231940 eV

  energy without entropy =       84.02344474  energy(sigma->0) =       84.02269451


--------------------------------------------------------------------------------------------------------




 average (electrostatic) potential at core
  the test charge radii are     0.9430
  (the norm of the test charge is              1.0000)
       1 -69.3959       2 -69.3959       3 -69.3959       4 -69.3959
 
 
 
 E-fermi :   8.1462     XC(G=0): -12.4317     alpha+bet :-13.2037

 Fermi energy:         8.1462029868

 k-point     1 :       0.0000    0.0000    0.0000
  band No.  band energies     occupation 
      1      -1.7289      2.00000
      2       0.4072      2.00000
      3       0.4072      2.00000
      4       0.4072      2.00000
      5       0.5501      2.00000
      6       0.5501      2.00000
      7       0.5501      2.00000
      8       1.7047      2.00000
      9       1.7047      2.00000
     10       2.3275      2.00000
     11       2.3275      2.00000
     12       2.3275      2.00000
     13       6.3833      2.00000
     14       6.3833      2.00000
     15       6.3833      2.00000
     16       6.4301      2.00000
     17       6.4301      2.00000
     18       6.4301      2.00000
     19       6.4301      2.00000
     20       6.4301      2.00000
     21       6.4301      2.00000
     22       9.0083     -0.00000
     23       9.0083     -0.00000
     24       9.0083     -0.00000
     25      12.9160     -0.00000
     26      12.9160     -0.00000
     27      12.9160     -0.00000
     28      20.1954      0.00000
     29      20.1954      0.00000
     30      20.1954      0.00000

 k-point     2 :       0.2000    0.0000    0.0000
  band No.  band energies     occupation 
      1      -1.2592      2.00000
      2       0.3643      2.00000
      3       0.5239      2.00000
      4       0.5239      2.00000
      5       1.1594      2.00000
      6       1.1594      2.00000
      7       1.5680      2.00000
      8       1.5680      2.00000
      9       1.6677      2.00000
     10       1.7752      2.00000
     11       2.2165      2.00000
     12       2.4650      2.00000
     13       3.7711      2.00000
     14       3.7711      2.00000
     15       4.6683      2.00000
     16       4.6683      2.00000
     17       5.8249      2.00000
     18       5.8249      2.00000
     19       6.4225      2.00000
     20       7.0246      2.00000
     21       9.7846     -0.00000
     22       9.7846     -0.00000
     23       9.9625     -0.00000
     24       9.9625     -0.00000
     25      13.2546     -0.00000
     26      13.2546     -0.00000
     27      16.6022      0.00000
     28      17.5867      0.00000
     29      17.5867      0.00000
     30      18.4212      0.00000

 k-point     3 :       0.4000    0.0000    0.0000
  band No.  band energies     occupation 
      1       0.0954      2.00000
      2       0.9278      2.00000
      3       1.2153      2.00000
      4       1.4946      2.00000
      5       1.4946      2.00000
      6       1.7134      2.00000
      7       1.8604      2.00000
      8       1.8604      2.00000
      9       1.9794      2.00000
     10       2.2991      2.00000
     11       2.9889      2.00000
     12       2.9889      2.00000
     13       3.3280      2.00000
     14       3.3545      2.00000
     15       3.3545      2.00000
     16       3.6044      2.00000
     17       3.6044      2.00000
     18       3.8109      2.00000
     19       4.5699      2.00000
     20       4.5699      2.00000
     21       5.9010      2.00000
     22       5.9010      2.00000
     23      11.6765     -0.00000
     24      11.6765     -0.00000
     25      14.1711      0.00000
     26      14.1711      0.00000
     27      14.3275      0.00000
     28      14.3275      0.00000
     29      16.0239      0.00000
     30      16.0239      0.00000

 k-point     4 :       0.2000    0.2000    0.0000
  band No.  band energies     occupation 
      1      -0.8095      2.00000
      2       0.5774      2.00000
      3       1.2372      2.00000
      4       1.5381      2.00000
      5       1.6138      2.00000
      6       1.6138      2.00000
      7       1.6838      2.00000
      8       1.7552      2.00000
      9       1.8752      2.00000
     10       2.0332      2.00000
     11       2.3116      2.00000
     12       2.3116      2.00000
     13       3.5859      2.00000
     14       3.5859      2.00000
     15       4.5306      2.00000
     16       4.5855      2.00000
     17       6.1124      2.00000
     18       6.1124      2.00000
     19       6.4109      2.00000
     20       6.4109      2.00000
     21       7.5090      2.00006
     22       7.5090      2.00006
     23       7.6759      2.00439
     24      10.5493     -0.00000
     25      13.5026     -0.00000
     26      14.2053      0.00000
     27      17.0049      0.00000
     28      17.0049      0.00000
     29      18.2128      0.00000
     30      18.2128      0.00000

 k-point     5 :       0.4000    0.2000    0.0000
  band No.  band energies     occupation 
      1       0.5211      2.00000
      2       1.0029      2.00000
      3       1.3950      2.00000
      4       1.6508      2.00000
      5       1.8037      2.00000
      6       1.8435      2.00000
      7       1.9764      2.00000
      8       2.0472      2.00000
      9       2.1555      2.00000
     10       2.2716      2.00000
     11       2.6159      2.00000
     12       2.9531      2.00000
     13       3.0830      2.00000
     14       3.6723      2.00000
     15       3.7547      2.00000
     16       3.8525      2.00000
     17       3.9132      2.00000
     18       4.2083      2.00000
     19       4.8120      2.00000
     20       5.4392      2.00000
     21       5.5277      2.00000
     22       6.5859      2.00000
     23       8.5859     -0.00799
     24      10.8915     -0.00000
     25      12.3482     -0.00000
     26      14.6274      0.00000
     27      14.9345      0.00000
     28      16.3911      0.00000
     29      18.2079      0.00000
     30      19.6782      0.00000

 k-point     6 :       0.4000    0.4000    0.0000
  band No.  band energies     occupation 
      1       0.8819      2.00000
      2       1.1441      2.00000
      3       1.5021      2.00000
      4       1.7717      2.00000
      5       1.7909      2.00000
      6       2.0092      2.00000
      7       2.3357      2.00000
      8       2.3672      2.00000
      9       2.3672      2.00000
     10       2.6843      2.00000
     11       2.6843      2.00000
     12       3.0273      2.00000
     13       3.0273      2.00000
     14       3.4074      2.00000
     15       3.8074      2.00000
     16       4.6091      2.00000
     17       4.6091      2.00000
     18       4.7763      2.00000
     19       5.1427      2.00000
     20       5.6968      2.00000
     21       5.6968      2.00000
     22       7.0475      2.00000
     23       7.0475      2.00000
     24       7.9700      2.01593
     25      14.0499      0.00000
     26      15.7438      0.00000
     27      16.6182      0.00000
     28      16.6182      0.00000
     29      17.7072      0.00000
     30      17.7072      0.00000

 k-point     7 :       0.2000    0.2000    0.2000
  band No.  band energies     occupation 
      1      -0.4030      2.00000
      2       0.6677      2.00000
      3       0.6677      2.00000
      4       1.3287      2.00000
      5       1.6514      2.00000
      6       1.6514      2.00000
      7       1.6514      2.00000
      8       1.7657      2.00000
      9       1.7657      2.00000
     10       2.5275      2.00000
     11       2.5275      2.00000
     12       2.5275      2.00000
     13       2.8929      2.00000
     14       2.8929      2.00000
     15       2.8929      2.00000
     16       5.2842      2.00000
     17       5.2842      2.00000
     18       5.2842      2.00000
     19       7.8846      2.06900
     20       7.8846      2.06900
     21       7.8846      2.06900
     22       8.2895      0.06901
     23       8.2895      0.06901
     24       8.2895      0.06901
     25      14.6886      0.00000
     26      14.6886      0.00000
     27      14.6886      0.00000
     28      17.4230      0.00000
     29      17.4230      0.00000
     30      17.4230      0.00000

 k-point     8 :       0.4000    0.2000    0.2000
  band No.  band energies     occupation 
      1       0.8820      2.00000
      2       0.9241      2.00000
      3       1.3644      2.00000
      4       1.3644      2.00000
      5       1.8270      2.00000
      6       2.1564      2.00000
      7       2.1575      2.00000
      8       2.1575      2.00000
      9       2.4561      2.00000
     10       2.4879      2.00000
     11       2.5370      2.00000
     12       2.5370      2.00000
     13       2.8383      2.00000
     14       3.7230      2.00000
     15       3.7230      2.00000
     16       3.7612      2.00000
     17       4.3056      2.00000
     18       4.4226      2.00000
     19       4.9919      2.00000
     20       4.9919      2.00000
     21       5.7579      2.00000
     22       8.2167      0.44229
     23       9.0063     -0.00000
     24       9.0063     -0.00000
     25      11.5679     -0.00000
     26      11.5679     -0.00000
     27      16.2111      0.00000
     28      18.5122      0.00000
     29      18.6240      0.00000
     30      18.6240      0.00000

 k-point     9 :       0.4000    0.4000    0.2000
  band No.  band energies     occupation 
      1       0.9723      2.00000
      2       1.4897      2.00000
      3       1.4897      2.00000
      4       1.5375      2.00000
      5       1.7711      2.00000
      6       1.9377      2.00000
      7       1.9377      2.00000
      8       1.9527      2.00000
      9       2.3647      2.00000
     10       2.3647      2.00000
     11       2.4664      2.00000
     12       3.0808      2.00000
     13       3.4157      2.00000
     14       3.4157      2.00000
     15       3.5718      2.00000
     16       3.6215      2.00000
     17       4.1510      2.00000
     18       5.2318      2.00000
     19       5.3765      2.00000
     20       5.3765      2.00000
     21       6.0429      2.00000
     22       6.0429      2.00000
     23       6.7905      2.00000
     24       8.2609      0.18450
     25      10.8731     -0.00000
     26      13.0481     -0.00000
     27      13.0481     -0.00000
     28      15.3650      0.00000
     29      19.8407      0.00000
     30      21.9159      0.00000

 k-point    10 :       0.4000    0.4000    0.4000
  band No.  band energies     occupation 
      1       1.2053      2.00000
      2       1.2053      2.00000
      3       1.2053      2.00000
      4       2.1697      2.00000
      5       2.6135      2.00000
      6       2.6135      2.00000
      7       2.6135      2.00000
      8       2.7624      2.00000
      9       2.7624      2.00000
     10       2.9709      2.00000
     11       2.9709      2.00000
     12       2.9709      2.00000
     13       4.8280      2.00000
     14       6.3753      2.00000
     15       6.3753      2.00000
     16       6.3753      2.00000
     17       6.7955      2.00000
     18       6.7955      2.00000
     19       6.7955      2.00000
     20       8.5422     -0.01704
     21       8.5422     -0.01704
     22       8.5422     -0.01704
     23       9.3481     -0.00000
     24       9.3481     -0.00000
     25      10.3389     -0.00000
     26      10.3389     -0.00000
     27      10.3389     -0.00000
     28      12.2877     -0.00000
     29      25.4593      0.00000
     30      25.4593      0.00000


--------------------------------------------------------------------------------------------------------


 soft charge-density along one line, spin component           1
         0         1         2         3         4         5         6         7         8         9
x    18.0338    0.0000    0.0000    0.0000    1.4253    0.0000    0.0000   -0.0000   -0.5894   -0.0000
x     0.0000   -0.0000    0.0000    0.0000
y    18.0338    0.0000    0.0000    0.0000    1.4253    0.0000    0.0000   -0.0000   -0.5894   -0.0000
y     0.0000   -0.0000    0.0000    0.0000
z    18.0338    0.0000    0.0000    0.0000    1.4253    0.0000    0.0000   -0.0000   -0.5894   -0.0000
z     0.0000   -0.0000    0.0000    0.0000
 total charge-density along one line
x    44.0004    0.0000    0.0000    0.0000   18.1911   -0.0000    0.0000    0.0000    3.0996   -0.0000
x    -0.0000   -0.0000   -0.0633    0.0000   -0.0000   -0.0000    0.0205   -0.0000    0.0000    0.0000
x    -0.0077    0.0000   -0.0000   -0.0000    0.0054    0.0000
y    44.0004    0.0000    0.0000    0.0000   18.1911    0.0000   -0.0000    0.0000    3.0996   -0.0000
y    -0.0000    0.0000   -0.0633   -0.0000   -0.0000    0.0000    0.0205   -0.0000    0.0000    0.0000
y    -0.0077   -0.0000    0.0000    0.0000    0.0054    0.0000
z    44.0004    0.0000    0.0000    0.0000   18.1911    0.0000    0.0000    0.0000    3.0996   -0.0000
z    -0.0000    0.0000   -0.0633   -0.0000   -0.0000   -0.0000    0.0205   -0.0000    0.0000    0.0000
z    -0.0077   -0.0000   -0.0000    0.0000    0.0054    0.0000
 
 pseudopotential strength for first ion, spin component:           1
 -7.890  -0.000   0.000   0.000   0.000  -0.716   0.000  -0.000
 -0.000  -7.890   0.000  -0.000  -0.000   0.000  -0.716  -0.000
  0.000   0.000  -7.874  -0.000  -0.000  -0.000  -0.000  -0.727
  0.000  -0.000  -0.000  -7.890  -0.000  -0.000   0.000   0.000
  0.000  -0.000  -0.000  -0.000  -7.874  -0.000   0.000   0.000
 -0.716   0.000  -0.000  -0.000  -0.000   7.082  -0.000   0.000
  0.000  -0.716  -0.000   0.000   0.000  -0.000   7.082   0.000
 -0.000  -0.000  -0.727   0.000   0.000   0.000   0.000   7.088
 -0.000   0.000   0.000  -0.716   0.000   0.000  -0.000  -0.000
 -0.000   0.000   0.000   0.000  -0.727   0.000  -0.000  -0.000
  0.000  -0.000   0.000   0.000  -0.000   0.000  -0.000  -0.000
  0.000  -0.000   0.000   0.000   0.000   0.000  -0.000  -0.000
  0.000   0.000  -0.000  -0.000  -0.000   0.000  -0.000   0.000
 -0.000   0.000   0.000   0.000   0.000  -0.000  -0.000  -0.000
  0.000  -0.000  -0.000   0.000   0.000  -0.000  -0.000   0.000
  0.000   0.000  -0.000   0.000  -0.000   0.000   0.000  -0.000
  0.000   0.000   0.000   0.000  -0.000  -0.000   0.000   0.000
  0.000   0.000  -0.000   0.000   0.000  -0.000  -0.000  -0.000
 total augmentation occupancy for first ion, spin component:           1
  2.295   0.000   0.000  -0.000   0.000   0.344  -0.000  -0.000   0.000  -0.000  -0.000  -0.000   0.000  -0.000   0.000  -0.000
  0.000   2.295  -0.000   0.000  -0.000  -0.000   0.344   0.000  -0.000   0.000   0.000   0.000  -0.000  -0.000   0.000   0.000
 -0.000  -0.000   2.305  -0.000   0.000   0.000  -0.000   0.332  -0.000  -0.000  -0.000   0.000   0.000   0.000  -0.000   0.000
 -0.000  -0.000  -0.000   2.295  -0.000  -0.000  -0.000   0.000   0.344   0.000  -0.000  -0.000  -0.000  -0.000   0.000   0.000
  0.000   0.000  -0.000   0.000   2.305  -0.000  -0.000   0.000   0.000   0.332  -0.000   0.000  -0.000   0.000   0.000   0.000
  0.344  -0.000   0.000   0.000  -0.000   0.068  -0.000   0.000  -0.000   0.000  -0.000  -0.000  -0.000   0.000  -0.000  -0.000
  0.000   0.344   0.000  -0.000   0.000   0.000   0.068   0.000  -0.000   0.000  -0.000  -0.000  -0.000  -0.000  -0.000   0.000
  0.000   0.000   0.332   0.000  -0.000   0.000   0.000   0.065  -0.000   0.000  -0.000   0.000   0.000  -0.000  -0.000   0.000
 -0.000   0.000   0.000   0.344  -0.000   0.000  -0.000   0.000   0.068   0.000  -0.000   0.000  -0.000   0.000   0.000  -0.000
  0.000   0.000   0.000  -0.000   0.332   0.000   0.000  -0.000   0.000   0.065  -0.000  -0.000   0.000  -0.000   0.000   0.000
  0.000  -0.000   0.000  -0.000  -0.000   0.000   0.000  -0.000  -0.000  -0.000   3.695  -1.246   0.000   0.000   0.000   0.000
 -0.000   0.000  -0.000  -0.000  -0.000  -0.000  -0.000   0.000   0.000  -0.000  -1.246   0.691   0.000   0.000   0.000   0.000
  0.000  -0.000   0.000   0.000  -0.000  -0.000  -0.000   0.000  -0.000   0.000   0.000   0.000   0.731  -0.000  -0.000  -0.295
 -0.000  -0.000  -0.000  -0.000   0.000   0.000  -0.000   0.000   0.000  -0.000   0.000   0.000   0.000   0.731  -0.000  -0.000
  0.000   0.000  -0.000   0.000   0.000  -0.000  -0.000   0.000   0.000  -0.000   0.000   0.000   0.000   0.000   0.731  -0.000
 -0.000   0.000  -0.000   0.000  -0.000  -0.000   0.000   0.000  -0.000  -0.000   0.000   0.000  -0.295  -0.000  -0.000   0.163
 -0.000  -0.000  -0.000  -0.000  -0.000  -0.000   0.000   0.000   0.000  -0.000   0.000   0.000  -0.000  -0.295  -0.000  -0.000
  0.000  -0.000   0.000   0.000   0.000  -0.000   0.000   0.000   0.000  -0.000   0.000   0.000  -0.000   0.000  -0.295  -0.000


------------------------ aborting loop because EDIFF is reached ----------------------------------------


    CHARGE:  cpu time    0.0049: real time    0.0049
    FORLOC:  cpu time    0.0003: real time    0.0003
    FORNL :  cpu time    0.0158: real time    0.0158
    STRESS:  cpu time    0.0220: real time    0.0220
    FORCOR:  cpu time    0.0032: real time    0.0032
    FORHAR:  cpu time    0.0008: real time    0.0008
    MIXING:  cpu time    0.0002: real time    0.0002

  FORCE on cell =-STRESS in cart. coord.  units (eV):
  Direction    XX          YY          ZZ          XY          YZ          ZX
  --------------------------------------------------------------------------------------
  Alpha Z   243.62338   243.62338   243.62338
  Ewald   -1465.11677 -1465.11677 -1465.11677     0.00000     0.00000     0.00000
  Hartree   420.26903   420.26903   420.26903    -0.00000    -0.00000    -0.00000
  E(xc)    -252.80728  -252.80728  -252.80728    -0.00000     0.00000    -0.00000
  Local     297.09747   297.09747   297.09747     0.00000     0.00000     0.00000
  n-local  -795.66136  -802.85495  -798.18687    -3.91564     2.13549    -1.52634
  augment   397.00666   397.00666   397.00666     0.00000     0.00000     0.00000
  Kinetic   554.06911   546.15511   541.24060    -3.79396     1.49604     0.05752
  Fock        0.00000     0.00000     0.00000     0.00000     0.00000     0.00000
  -------------------------------------------------------------------------------------
  Total    -611.67363  -611.67363  -611.67363     0.00000     0.00000     0.00000
  in kB  -20404.08368-20404.08368-20404.08368     0.00000     0.00000     0.00000
  external pressure =   -20404.08 kB  Pullay stress =        0.00 kB


 VOLUME and BASIS-vectors are now :
 -----------------------------------------------------------------------------
  energy-cutoff  :      150.00
  volume of cell :       48.03
      direct lattice vectors                 reciprocal lattice vectors
     3.635000000  0.000000000  0.000000000     0.275103164  0.000000000  0.000000000
     0.000000000  3.635000000  0.000000000     0.000000000  0.275103164  0.000000000
     0.000000000  0.000000000  3.635000000     0.000000000  0.000000000  0.275103164

  length of vectors
     3.635000000  3.635000000  3.635000000     0.275103164  0.275103164  0.275103164


 FORCES acting on ions
    electron-ion (+dipol)            ewald-force                    non-local-force                 convergence-correction
 -----------------------------------------------------------------------------------------------
   -.291E-12 0.109E-13 0.603E-14   0.103E-13 0.597E-14 -.166E-13   -.199E-24 0.214E-24 -.531E-24   0.897E-13 -.115E-12 -.765E-13
   0.368E-12 0.682E-12 0.628E-14   0.175E-13 0.141E-13 -.168E-13   0.316E-23 -.986E-24 0.692E-26   0.108E-12 -.273E-13 -.471E-13
   0.348E-12 0.787E-14 0.672E-12   -.529E-14 -.138E-13 0.159E-13   0.399E-23 -.871E-24 -.119E-23   0.863E-13 -.667E-13 -.941E-13
   -.298E-12 0.680E-12 0.687E-12   -.204E-13 -.566E-14 0.157E-13   -.126E-24 -.906E-24 0.571E-24   0.777E-13 -.527E-13 -.142E-12
 -----------------------------------------------------------------------------------------------
   0.128E-12 0.138E-11 0.137E-11   0.207E-14 0.619E-15 -.180E-14   0.683E-23 -.255E-23 -.115E-23   0.361E-12 -.262E-12 -.360E-12
 
 
 POSITION                                       TOTAL-FORCE (eV/Angst)
 -----------------------------------------------------------------------------------
      0.00000      0.00000      0.00000        -0.000000      0.000000      0.000000
      1.81750      1.81750      0.00000         0.000000     -0.000000     -0.000000
      1.81750      0.00000      1.81750         0.000000      0.000000      0.000000
      0.00000      1.81750      1.81750         0.000000     -0.000000     -0.000000
 -----------------------------------------------------------------------------------
    total drift:                                0.000000      0.000000      0.000000


--------------------------------------------------------------------------------------------------------



  FREE ENERGIE OF THE ION-ELECTRON SYSTEM (eV)
  ---------------------------------------------------
  free  energy   TOTEN  =        84.02231940 eV

  energy  without entropy=       84.02344474  energy(sigma->0) =       84.02269451
 


--------------------------------------------------------------------------------------------------------


    POTLOK:  cpu time    0.0067: real time    0.0067


--------------------------------------------------------------------------------------------------------


 writing wavefunctions
     LOOP+:  cpu time    0.8726: real time    0.8903
    4ORBIT:  cpu time    0.0000: real time    0.0000

 total amount of memory used by VASP MPI-rank0    32463. kBytes
=======================================================================

   base      :      30000. kBytes
   nonl-proj :        306. kBytes
   grid      :        771. kBytes
   one-center:         62. kBytes
   wavefun   :       1324. kBytes
 
  
  
 General timing and accounting informations for this job:
 ========================================================
  
                  Total CPU time used (sec):        0.974
                            User time (sec):        0.966
                          System time (sec):        0.008
                         Elapsed time (sec):        0.980
  
                   Maximum memory used (kb):       36504.
                   Average memory used (kb):          N/A
  
                          Minor page faults:         2766
                          Major page faults:            0
                 Voluntary context switches:           27
