 vasp.6.2.0 18Jan21 (build Mar 17 2021 09:06:54) complex                        
  
 POSCAR found type information on POSCAR Cu
 POSCAR found :  1 types and       4 ions
 LDA part: xc-table for Pade appr. of Perdew
 POSCAR, INCAR and KPOINTS ok, starting setup
 FFT: planning ...
 WAVECAR not read
 WARNING: chargedensity file is incomplete
 entering main loop
       N       E                     dE             d eps       ncg     rms          rms(c)
DAV:   1     0.200330869338E+03    0.20033E+03   -0.99831E+03   614   0.576E+02
DAV:   2     0.501652054305E+02   -0.15017E+03   -0.14030E+03   642   0.179E+02
DAV:   3     0.465619798635E+02   -0.36032E+01   -0.35729E+01   656   0.317E+01
DAV:   4     0.465445934464E+02   -0.17386E-01   -0.17358E-01   650   0.196E+00
DAV:   5     0.465444578333E+02   -0.13561E-03   -0.13560E-03   662   0.130E-01    0.448E+01
DAV:   6     0.811928930896E+02    0.34648E+02   -0.22205E+02   600   0.135E+02    0.127E+01
DAV:   7     0.841293448603E+02    0.29365E+01   -0.15455E+01   642   0.273E+01    0.291E+00
DAV:   8     0.839917965111E+02   -0.13755E+00   -0.68482E-01   606   0.625E+00    0.156E+00
DAV:   9     0.840230620270E+02    0.31266E-01   -0.19042E-01   600   0.356E+00    0.175E-01
DAV:  10     0.840222055928E+02   -0.85643E-03   -0.88919E-04   618   0.189E-01    0.947E-02
DAV:  11     0.840223209781E+02    0.11539E-03   -0.56960E-04   618   0.198E-01    0.654E-03
DAV:  12     0.840223198294E+02   -0.11487E-05   -0.44018E-06   588   0.121E-02    0.147E-03
DAV:  13     0.840223194002E+02   -0.42915E-06   -0.81043E-08   330   0.142E-03
   1 F= 0.84022319E+02 E0= 0.84022695E+02  d E =-.112534E-02
 writing wavefunctions
