unknown system                          
   1.00000000000000     
     2.376600    0.000000    0.000000
    -1.188300    2.058196    0.000000
     0.000000    0.000000    4.349280
   Fe
     2
Direct
  0.000000  0.000000  0.000000
  0.333333  0.666667  0.500000
 
   20   20   36
 0.17893523604E+03 0.16918317118E+03 0.14305358928E+03 0.10821549781E+03 0.73175614540E+02
 0.44263346007E+02 0.24546567196E+02 0.14007355078E+02 0.10118477451E+02 0.89866905817E+01
 0.86152463299E+01 0.89871450250E+01 0.10118837084E+02 0.14007207139E+02 0.24546124758E+02
 0.44263139568E+02 0.73175831152E+02 0.10821582521E+03 0.14305369373E+03 0.16918310264E+03
 0.16919164548E+03 0.16918281408E+03 0.15128008660E+03 0.12101161583E+03 0.86562957113E+02
 0.55316344928E+02 0.31858593382E+02 0.17620080303E+02 0.11242037645E+02 0.93349774860E+01
 0.86180581616E+01 0.86172664182E+01 0.93341318236E+01 0.11242910184E+02 0.17621036388E+02
 0.31856983328E+02 0.55314498305E+02 0.86568223673E+02 0.12102767614E+03 0.15129950481E+03
 0.14306638800E+03 0.15126778793E+03 0.14305365633E+03 0.12101196496E+03 0.91533959169E+02
 0.61840052903E+02 0.37448220900E+02 0.21083684458E+02 0.12639203769E+02 0.96637484234E+01
 0.86575819700E+01 0.83118992545E+01 0.86557130185E+01 0.96632623322E+01 0.12640791901E+02
 0.21083385456E+02 0.37443533493E+02 0.61835906742E+02 0.91538546378E+02 0.12102587929E+03
 0.10821031497E+03 0.12095752676E+03 0.12095949870E+03 0.10821616903E+03 0.86562884291E+02
 0.61839765578E+02 0.39540602349E+02 0.23204830968E+02 0.13827433465E+02 0.99968266306E+01
 0.87181350959E+01 0.81004749975E+01 0.80998818462E+01 0.87174312851E+01 0.99975599776E+01
 0.13828880586E+02 0.23204011603E+02 0.39535323172E+02 0.61831077297E+02 0.86554170591E+02
 0.73158233181E+02 0.86472712137E+02 0.91419702594E+02 0.86486743359E+02 0.73175682878E+02
 0.55315770803E+02 0.37448299536E+02 0.23205028384E+02 0.14294767701E+02 0.10227344942E+02
 0.87732488673E+01 0.79809765152E+01 0.77183523256E+01 0.79814510132E+01 0.87734993414E+01
 0.10228096997E+02 0.14297869923E+02 0.23209521849E+02 0.37448437189E+02 0.55305955469E+02
 0.44261599986E+02 0.55244168419E+02 0.61716612657E+02 0.61721371087E+02 0.55252561593E+02
 0.44263027446E+02 0.31858555192E+02 0.21084109330E+02 0.13827340663E+02 0.10227234598E+02
 0.87956345290E+01 0.79312070421E+01 0.75069465391E+01 0.75077244578E+01 0.79317176236E+01
 0.87940315502E+01 0.10226557415E+02 0.13832851249E+02 0.21095264729E+02 0.31867065747E+02
 0.24558819032E+02 0.31843237030E+02 0.37386724854E+02 0.39455422672E+02 0.37381846163E+02
 0.31833285774E+02 0.24546344672E+02 0.17620388367E+02 0.12639203239E+02 0.99965536571E+01
 0.87733746845E+01 0.79312602112E+01 0.74405788059E+01 0.72861894295E+01 0.74418067999E+01
 0.79302302627E+01 0.87685956452E+01 0.99919975100E+01 0.12640791901E+02 0.17629631446E+02
 0.14006365429E+02 0.17639409020E+02 0.21097014696E+02 0.23199884554E+02 0.23194354377E+02
 0.21085111925E+02 0.17630855389E+02 0.14007336039E+02 0.11242214717E+02 0.96634708915E+01
 0.87181865699E+01 0.79811393017E+01 0.75067640265E+01 0.72861497726E+01 0.72870833614E+01
 0.75084223303E+01 0.79806093031E+01 0.87127627494E+01 0.96537643514E+01 0.11233525638E+02
 0.10104659162E+02 0.11260821679E+02 0.12684721898E+02 0.13883554492E+02 0.14350083832E+02
 0.13879620569E+02 0.12684650343E+02 0.11269986878E+02 0.10118658728E+02 0.93348797989E+01
 0.86574392094E+01 0.81007033268E+01 0.77182363208E+01 0.75076057366E+01 0.74420624526E+01
 0.75084861218E+01 0.77217723751E+01 0.81053920920E+01 0.86571966652E+01 0.93255889875E+01
 0.89864486877E+01 0.93586979282E+01 0.97153843332E+01 0.10074778217E+02 0.10321024787E+02
 0.10322662806E+02 0.10080512545E+02 0.97248979678E+01 0.93670222546E+01 0.89868484983E+01
 0.86178587882E+01 0.83120497874E+01 0.81000069895E+01 0.79812846745E+01 0.79319043268E+01
 0.79303637968E+01 0.79802801778E+01 0.81052889060E+01 0.83229352827E+01 0.86265055916E+01
 0.86279406047E+01 0.86621392931E+01 0.87274888991E+01 0.88125826834E+01 0.88891664323E+01
 0.89222898085E+01 0.88939652734E+01 0.88172557217E+01 0.87262188045E+01 0.86531226020E+01
 0.86152158870E+01 0.86171975267E+01 0.86559555627E+01 0.87173097839E+01 0.87733746845E+01
 0.87941300222E+01 0.87683451710E+01 0.87125897742E+01 0.86575819700E+01 0.86266360734E+01
 0.89860400441E+01 0.86620143758E+01 0.83968084333E+01 0.82163892489E+01 0.81214051343E+01
 0.80882012069E+01 0.80895557117E+01 0.81220060914E+01 0.82108286344E+01 0.83860259077E+01
 0.86538082154E+01 0.89868942980E+01 0.93342292614E+01 0.96632797190E+01 0.99972564164E+01
 0.10228123643E+02 0.10226694405E+02 0.99919669224E+01 0.96540592701E+01 0.93257841124E+01
 0.10104349274E+02 0.93585290201E+01 0.87278781309E+01 0.82164689226E+01 0.78704981741E+01
 0.76844847248E+01 0.76282242799E+01 0.76839305574E+01 0.78671289000E+01 0.82114791720E+01
 0.87276527064E+01 0.93677185920E+01 0.10118708473E+02 0.11243056427E+02 0.12640637141E+02
 0.13828880246E+02 0.14298237495E+02 0.13832943711E+02 0.12640637671E+02 0.11233494809E+02
 0.14006533297E+02 0.11260900619E+02 0.97156730563E+01 0.88126675695E+01 0.81210761423E+01
 0.76844790599E+01 0.74842328623E+01 0.74834247620E+01 0.76831087762E+01 0.81218348478E+01
 0.88180424271E+01 0.97250234117E+01 0.11269165097E+02 0.14007355968E+02 0.17621157927E+02
 0.21083391529E+02 0.23204206603E+02 0.23209519432E+02 0.21094845930E+02 0.17629444920E+02
 0.24559261471E+02 0.17639625958E+02 0.12684549429E+02 0.10074668953E+02 0.88889331581E+01
 0.80882397692E+01 0.76284672925E+01 0.74833543441E+01 0.76267903781E+01 0.80889619111E+01
 0.88939652734E+01 0.10079759471E+02 0.12683166696E+02 0.17630070416E+02 0.24546344672E+02
 0.31856958872E+02 0.37443395840E+02 0.39535148840E+02 0.37448220900E+02 0.31867079481E+02
 0.44261818073E+02 0.31843188221E+02 0.21096586747E+02 0.13883385557E+02 0.10321192582E+02
 0.89224093945E+01 0.80897109670E+01 0.76837729062E+01 0.76829567899E+01 0.80890786041E+01
 0.89238528192E+01 0.10321831208E+02 0.13878092635E+02 0.21085798149E+02 0.31834865931E+02
 0.44263039094E+02 0.55314242868E+02 0.61835783267E+02 0.61831241147E+02 0.55306274158E+02
 0.73158047235E+02 0.55243764098E+02 0.37386526743E+02 0.23199996430E+02 0.14350459994E+02
 0.10322720517E+02 0.88938061882E+01 0.81218979235E+01 0.78670590459E+01 0.81220556718E+01
 0.88940394624E+01 0.10321721125E+02 0.14346694448E+02 0.23195196088E+02 0.37386719193E+02
 0.55254101175E+02 0.73175713544E+02 0.86568394537E+02 0.91538832199E+02 0.86554414277E+02
 0.10821001267E+03 0.86472417057E+02 0.61716808263E+02 0.39455838831E+02 0.23194511295E+02
 0.13879428357E+02 0.10080210825E+02 0.88173309231E+01 0.82109837877E+01 0.82115546516E+01
 0.88180327424E+01 0.10079567014E+02 0.13878069357E+02 0.23195241129E+02 0.39460855585E+02
 0.61725316640E+02 0.86481258224E+02 0.10821619414E+03 0.12102778979E+03 0.12102564380E+03
 0.14306628356E+03 0.12095781037E+03 0.91419999161E+02 0.61721632258E+02 0.37381653713E+02
 0.21084749682E+02 0.12684549429E+02 0.97251604054E+01 0.87264442290E+01 0.83858487653E+01
 0.87274888991E+01 0.97249971262E+01 0.12683238252E+02 0.21085863856E+02 0.37386724854E+02
 0.61725382205E+02 0.91414798898E+02 0.12094367933E+03 0.14305365633E+03 0.15129893856E+03
 0.16919170161E+03 0.15126846222E+03 0.12095958907E+03 0.86486432621E+02 0.55252294526E+02
 0.31833129858E+02 0.17631038792E+02 0.11270252829E+02 0.93670594484E+01 0.86528334099E+01
 0.86536439406E+01 0.93679246939E+01 0.11269352107E+02 0.17630036882E+02 0.31834758824E+02
 0.55254238430E+02 0.86481242566E+02 0.12094348609E+03 0.15124891781E+03 0.16918280167E+03
 0.16882750341E+03 0.15963597262E+03 0.13498782698E+03 0.10208545012E+03 0.68973720213E+02
 0.41696692519E+02 0.23202385150E+02 0.13437764013E+02 0.98983038968E+01 0.88215967133E+01
 0.84613481502E+01 0.88220357850E+01 0.98986509630E+01 0.13437619957E+02 0.23201956042E+02
 0.41696491537E+02 0.68973928651E+02 0.10208576640E+03 0.13498792827E+03 0.15963590675E+03
 0.15964376398E+03 0.15963562573E+03 0.14274892268E+03 0.11416927672E+03 0.81614316156E+02
 0.52102016062E+02 0.30029747591E+02 0.16754505038E+02 0.10906477674E+02 0.91551628865E+01
 0.84590673719E+01 0.84583090619E+01 0.91543517537E+01 0.10907337037E+02 0.16755531845E+02
 0.30028401902E+02 0.52100354642E+02 0.81619122468E+02 0.11418402011E+03 0.14276679689E+03
 0.13499960929E+03 0.14274144987E+03 0.13498789144E+03 0.11416961561E+03 0.86308891624E+02
 0.58251363738E+02 0.35266490476E+02 0.19955987201E+02 0.12165132996E+02 0.94612622002E+01
 0.84935031748E+01 0.81598070237E+01 0.84917038337E+01 0.94607683726E+01 0.12166662116E+02
 0.19955841525E+02 0.35262248002E+02 0.58247514418E+02 0.86313038564E+02 0.11418238264E+03
 0.10208072410E+03 0.11412965510E+03 0.11413146351E+03 0.10208610163E+03 0.81614246351E+02
 0.58251085081E+02 0.37229673163E+02 0.21923858190E+02 0.13242762627E+02 0.97565512531E+01
 0.85495014528E+01 0.79539554449E+01 0.79533910339E+01 0.85488064965E+01 0.97571672927E+01
 0.13244035917E+02 0.21923050028E+02 0.37224769522E+02 0.58243062030E+02 0.81606222947E+02
 0.68957795865E+02 0.81547910497E+02 0.86226636023E+02 0.81560791435E+02 0.68973787335E+02
 0.52101459271E+02 0.35266565882E+02 0.21924049510E+02 0.13668106973E+02 0.99595433113E+01
 0.86013272739E+01 0.78378431468E+01 0.75860825248E+01 0.78383271889E+01 0.86015694528E+01
 0.99601510628E+01 0.13670823134E+02 0.21928092326E+02 0.35266699771E+02 0.52092497419E+02
 0.41695128988E+02 0.52056622433E+02 0.58171485733E+02 0.58175869670E+02 0.52064335395E+02
 0.41696383577E+02 0.30029709872E+02 0.19956399102E+02 0.13242673704E+02 0.99594366082E+01
 0.86224929885E+01 0.77895056912E+01 0.73833416649E+01 0.73841099510E+01 0.77900764492E+01
 0.86210676961E+01 0.99587885138E+01 0.13247715666E+02 0.19966698761E+02 0.30037621675E+02
 0.23213637059E+02 0.30037665637E+02 0.35249011830E+02 0.37196809727E+02 0.35244582250E+02
 0.30028571341E+02 0.23202169549E+02 0.16754804048E+02 0.12165133344E+02 0.97562868596E+01
 0.86014479716E+01 0.77895567230E+01 0.73198143915E+01 0.71724794105E+01 0.73209932991E+01
 0.77886785618E+01 0.85971176842E+01 0.97521603330E+01 0.12166662116E+02 0.16763353730E+02
 0.13436790095E+02 0.16792353340E+02 0.20006508568E+02 0.21968305537E+02 0.21963242175E+02
 0.19995625537E+02 0.16784570810E+02 0.13437746084E+02 0.10906649096E+02 0.94609925252E+01
 0.85495501181E+01 0.78380002849E+01 0.73831657998E+01 0.71724415136E+01 0.71732739347E+01
 0.73846426376E+01 0.78374973264E+01 0.85445940610E+01 0.94521035485E+01 0.10898649951E+02
 0.98855438141E+01 0.10940477995E+02 0.12240224575E+02 0.13339694031E+02 0.13768709576E+02
 0.13336049272E+02 0.12240154936E+02 0.10948953020E+02 0.98984787401E+01 0.91550669237E+01
 0.84933647104E+01 0.79541773276E+01 0.75859712667E+01 0.73839956623E+01 0.73212405233E+01
 0.73847042140E+01 0.75891081617E+01 0.79584333319E+01 0.84931299654E+01 0.91464945304E+01
 0.88213712545E+01 0.91909140954E+01 0.95362593329E+01 0.98666952018E+01 0.10090250745E+02
 0.10091710080E+02 0.98718711426E+01 0.95449400701E+01 0.91985588016E+01 0.88217491294E+01
 0.84588749942E+01 0.81599546225E+01 0.79535127970E+01 0.78381656169E+01 0.77902565919E+01
 0.77888076727E+01 0.78371786163E+01 0.79583332124E+01 0.81699662407E+01 0.84668308158E+01
 0.84730291673E+01 0.85121060827E+01 0.85815126918E+01 0.86689341366E+01 0.87461503113E+01
 0.87791031638E+01 0.87505028356E+01 0.86731525132E+01 0.85802924465E+01 0.85037983091E+01
 0.84613194693E+01 0.84582435017E+01 0.84919385786E+01 0.85486872176E+01 0.86014479716E+01
 0.86211634774E+01 0.85968755052E+01 0.85444261169E+01 0.84935031748E+01 0.84669576333E+01
 0.88209753771E+01 0.85119845058E+01 0.82602788418E+01 0.80896952011E+01 0.80001515066E+01
 0.79689149938E+01 0.79701842387E+01 0.80007480364E+01 0.80846033429E+01 0.82503637609E+01
 0.85044526832E+01 0.88217923239E+01 0.91544455875E+01 0.94607839988E+01 0.97568728574E+01
 0.99601778212E+01 0.99589219752E+01 0.97521302913E+01 0.94523888498E+01 0.91466843270E+01
 0.98852438978E+01 0.91907494546E+01 0.85818897116E+01 0.80897729648E+01 0.77571585619E+01
 0.75781613665E+01 0.75239809207E+01 0.75777664425E+01 0.77541807911E+01 0.80852246790E+01
 0.85816714283E+01 0.91992233322E+01 0.98985258901E+01 0.10907478959E+02 0.12166512326E+02
 0.13244036253E+02 0.13671179760E+02 0.13247804925E+02 0.12166511978E+02 0.10898620451E+02
 0.13436953344E+02 0.10940554096E+02 0.95365388145E+01 0.86690174415E+01 0.79998331206E+01
 0.75781555341E+01 0.73847265923E+01 0.73840143596E+01 0.75769557732E+01 0.80005587033E+01
 0.86739301446E+01 0.95450862089E+01 0.10948142351E+02 0.13437765277E+02 0.16755650055E+02
 0.19955847222E+02 0.21923238841E+02 0.21928089819E+02 0.19966292556E+02 0.16763172931E+02
 0.23214066167E+02 0.16792563827E+02 0.12240057077E+02 0.98665898100E+01 0.87459246792E+01
 0.79689516435E+01 0.75242158051E+01 0.73839460997E+01 0.75226019389E+01 0.79695327258E+01
 0.87505028356E+01 0.98712367888E+01 0.12238728805E+02 0.16783710770E+02 0.23202169549E+02
 0.30028377500E+02 0.35262114114E+02 0.37224600688E+02 0.35266490476E+02 0.30037634991E+02
 0.41695340128E+02 0.30037618463E+02 0.20006093587E+02 0.13339530072E+02 0.10090413453E+02
 0.87792185083E+01 0.79703342109E+01 0.75776138127E+01 0.75768089758E+01 0.79696460484E+01
 0.87804885924E+01 0.10091022220E+02 0.13334696881E+02 0.19996148065E+02 0.30029888393E+02
 0.41696393736E+02 0.52100106881E+02 0.58247395174E+02 0.58243221443E+02 0.52092806448E+02
 0.68957615061E+02 0.52056230253E+02 0.35248819855E+02 0.21968413706E+02 0.13769074026E+02
 0.10091765844E+02 0.87503488141E+01 0.80006437899E+01 0.77541134089E+01 0.80007728428E+01
 0.87505744461E+01 0.10090915276E+02 0.13765711572E+02 0.21964072038E+02 0.35249006385E+02
 0.52065697944E+02 0.68973814968E+02 0.81619288649E+02 0.86313315759E+02 0.81606458932E+02
 0.10208043065E+03 0.81547624448E+02 0.58171675672E+02 0.37197213267E+02 0.21963394231E+02
 0.13335862988E+02 0.98715791077E+01 0.86732262466E+01 0.80847534904E+01 0.80852970628E+01
 0.86739205731E+01 0.98710501457E+01 0.13334674557E+02 0.21964115925E+02 0.37201864540E+02
 0.58179526595E+02 0.81555771961E+02 0.10208612446E+03 0.11418412977E+03 0.11418215341E+03
 0.13499950799E+03 0.11412993094E+03 0.86226924126E+02 0.58176123008E+02 0.35244395720E+02
 0.19995274386E+02 0.12240057077E+02 0.95451949553E+01 0.85805107298E+01 0.82501906955E+01
 0.85815126918E+01 0.95450616124E+01 0.12238798443E+02 0.19996211895E+02 0.35249011830E+02
 0.58179589994E+02 0.86222184254E+02 0.11411695440E+03 0.13498789144E+03 0.14276624671E+03
 0.15964381851E+03 0.14274210496E+03 0.11413155186E+03 0.81560489810E+02 0.52064076140E+02
 0.30028420185E+02 0.16784748116E+02 0.10949210653E+02 0.91985953419E+01 0.85035172823E+01
 0.85042932333E+01 0.91994245133E+01 0.10948323883E+02 0.16783677590E+02 0.30029784411E+02
 0.52065830869E+02 0.81555756385E+02 0.11411676691E+03 0.14272410929E+03 0.15963561440E+03
 0.14183936385E+03 0.13412352380E+03 0.11339126874E+03 0.85645207200E+02 0.57719838340E+02
 0.34874606494E+02 0.19690129905E+02 0.11986848379E+02 0.93243689805E+01 0.83711678916E+01
 0.80441701410E+01 0.83715628102E+01 0.93246794253E+01 0.11986714532E+02 0.19689738866E+02
 0.34874422669E+02 0.57720025817E+02 0.85645493239E+02 0.11339136106E+03 0.13412346490E+03
 0.13412952973E+03 0.13412320623E+03 0.11991957459E+03 0.95826208663E+02 0.68346445528E+02
 0.43523178154E+02 0.25208919179E+02 0.14522746260E+02 0.10052440586E+02 0.86587992269E+01
 0.80247856865E+01 0.80241213514E+01 0.86580850405E+01 0.10053250905E+02 0.14523922060E+02
 0.25208231383E+02 0.43521990808E+02 0.68350057159E+02 0.95837517222E+02 0.11993341110E+03
 0.11340039146E+03 0.11992483323E+03 0.11339132593E+03 0.95826518265E+02 0.72297294112E+02
 0.48658076609E+02 0.29489849347E+02 0.17024776348E+02 0.10958656218E+02 0.89175185436E+01
 0.80424867470E+01 0.77432826448E+01 0.80408879651E+01 0.89170155433E+01 0.10960015691E+02
 0.17025001674E+02 0.29486753322E+02 0.48655010115E+02 0.72300305397E+02 0.95836292427E+02
 0.85641667583E+02 0.95824653797E+02 0.95826036624E+02 0.85645802366E+02 0.68346384317E+02
 0.48657822678E+02 0.31102719673E+02 0.18581445272E+02 0.11749458292E+02 0.91293989771E+01
 0.80835506106E+01 0.75511910728E+01 0.75507072938E+01 0.80828923542E+01 0.91297241301E+01
 0.11750291704E+02 0.18580679617E+02 0.31098809390E+02 0.48651546146E+02 0.68340166673E+02
 0.57707710038E+02 0.68342722352E+02 0.72299206214E+02 0.68352601350E+02 0.57719901879E+02
 0.43522670789E+02 0.29489915445E+02 0.18581619181E+02 0.12065081289E+02 0.92674628891E+01
 0.81245787228E+01 0.74429206064E+01 0.72214068692E+01 0.74434192067E+01 0.81247972804E+01
 0.92677133770E+01 0.12066820288E+02 0.18584505273E+02 0.29490038697E+02 0.43515925978E+02
 0.34873509220E+02 0.43548464448E+02 0.48693062913E+02 0.48696465572E+02 0.43554399697E+02
 0.34874324937E+02 0.25208882731E+02 0.17025151182E+02 0.11749380488E+02 0.92673665885E+01
 0.81417344701E+01 0.73976294244E+01 0.70414040144E+01 0.70421334290E+01 0.73983309661E+01
 0.81407600222E+01 0.92667999270E+01 0.11753203910E+02 0.17033204749E+02 0.25215209663E+02
 0.19698769269E+02 0.25279186443E+02 0.29589701130E+02 0.31209129304E+02 0.29586432237E+02
 0.25272319583E+02 0.19689934052E+02 0.14523019400E+02 0.10958659139E+02 0.91291591424E+01
 0.81246849281E+01 0.73976743999E+01 0.69852581476E+01 0.68570464506E+01 0.69862949472E+01
 0.73971745683E+01 0.81215119054E+01 0.91261414221E+01 0.10960015691E+02 0.14529743942E+02
 0.11985929849E+02 0.14612091053E+02 0.17177423210E+02 0.18760837460E+02 0.18756989116E+02
 0.17169191124E+02 0.14606305111E+02 0.11986833678E+02 0.10052595934E+02 0.89172714323E+01
 0.80835913785E+01 0.74430616649E+01 0.70412469806E+01 0.68570135093E+01 0.68575881857E+01
 0.70422621959E+01 0.74426345237E+01 0.80798513813E+01 0.89105106005E+01 0.10046401392E+02
 0.93143889903E+01 0.10131381062E+02 0.11119902191E+02 0.11964294769E+02 0.12296140449E+02
 0.11961412572E+02 0.11119838068E+02 0.10138039614E+02 0.93245255336E+01 0.86587083046E+01
 0.80423605532E+01 0.75513944599E+01 0.72213090044E+01 0.70420316636E+01 0.69865181790E+01
 0.70423174644E+01 0.72234322129E+01 0.75545329497E+01 0.80421479965E+01 0.86520202106E+01
 0.83709876967E+01 0.87330696065E+01 0.90667387909E+01 0.93415603227E+01 0.95154951975E+01
 0.95164990840E+01 0.93453003299E+01 0.90732577950E+01 0.87389384601E+01 0.83713045941E+01
 0.80246131165E+01 0.77434216415E+01 0.75508193463E+01 0.74432712344E+01 0.73984924614E+01
 0.73972910881E+01 0.74423454928E+01 0.75544416152E+01 0.77511473842E+01 0.80307612949E+01
 0.80532005446E+01 0.81093105889E+01 0.81939847027E+01 0.82919310999E+01 0.83740637302E+01
 0.84077819168E+01 0.83772635412E+01 0.82949796990E+01 0.81929079084E+01 0.81028606006E+01
 0.80441462379E+01 0.80240651178E+01 0.80411005218E+01 0.80827795806E+01 0.81246849281E+01
 0.81408481350E+01 0.81212933477E+01 0.80796978397E+01 0.80424867470E+01 0.80308776313E+01
 0.83706282847E+01 0.81091985609E+01 0.79016968288E+01 0.77656949825E+01 0.76977805696E+01
 0.76759520918E+01 0.76769921908E+01 0.76983541183E+01 0.77618236492E+01 0.78940507914E+01
 0.81034273224E+01 0.83713401008E+01 0.86581686977E+01 0.89170263561E+01 0.91294558014E+01
 0.92677404316E+01 0.92669232823E+01 0.91261129280E+01 0.89107685247E+01 0.86521947901E+01
 0.93141175412E+01 0.87329171317E+01 0.81943267294E+01 0.77657672632E+01 0.74797038809E+01
 0.73272743087E+01 0.72815147548E+01 0.73272687670E+01 0.74777212005E+01 0.77623632561E+01
 0.81941289440E+01 0.87395135737E+01 0.93245645293E+01 0.10053380617E+02 0.10959880174E+02
 0.11750293938E+02 0.12067145629E+02 0.11753283948E+02 0.10959877253E+02 0.10046375756E+02
 0.11986079875E+02 0.10131448987E+02 0.90669917736E+01 0.82920098582E+01 0.76974925825E+01
 0.73272680073E+01 0.71585725300E+01 0.71581038593E+01 0.73265002635E+01 0.76981252217E+01
 0.82957210877E+01 0.90734511849E+01 0.10137271110E+02 0.11986849857E+02 0.14524030852E+02
 0.17025006236E+02 0.18580850678E+02 0.18584502425E+02 0.17032834477E+02 0.14529579593E+02
 0.19699160309E+02 0.14612283038E+02 0.11119748898E+02 0.93414660100E+01 0.83738600149E+01
 0.76759832953E+01 0.72817263589E+01 0.71580418184E+01 0.72802937191E+01 0.76762147920E+01
 0.83772635412E+01 0.93449630083E+01 0.11118578037E+02 0.14605282636E+02 0.19689934052E+02
 0.25208207073E+02 0.29486630070E+02 0.31098656225E+02 0.29489849347E+02 0.25215221801E+02
 0.34873700558E+02 0.25279143950E+02 0.17177045351E+02 0.11964145082E+02 0.95156433697E+01
 0.84078851584E+01 0.76771270227E+01 0.73271305753E+01 0.73263683732E+01 0.76763184204E+01
 0.84087149671E+01 0.95161682621E+01 0.11960506637E+02 0.17169312376E+02 0.25272982571E+02
 0.34874332451E+02 0.43521764853E+02 0.48654902958E+02 0.48651692919E+02 0.43516207388E+02
 0.57707543975E+02 0.43548107035E+02 0.29589526690E+02 0.18760935064E+02 0.12296471381E+02
 0.95165493052E+01 0.83771239764E+01 0.76982610860E+01 0.74776609551E+01 0.76983201765E+01
 0.83773276917E+01 0.95160703111E+01 0.12294136519E+02 0.18757773799E+02 0.29589696199E+02
 0.43555313147E+02 0.57719923293E+02 0.68350209973E+02 0.72300558074E+02 0.68340380698E+02
 0.85641399437E+02 0.68342462098E+02 0.48693236559E+02 0.31209496738E+02 0.18757127301E+02
 0.11961243255E+02 0.93450359810E+01 0.82950491177E+01 0.77619595003E+01 0.77624268265E+01
 0.82957117479E+01 0.93447929721E+01 0.11960487006E+02 0.18757814380E+02 0.31213180015E+02
 0.48699359885E+02 0.68348793587E+02 0.85645820259E+02 0.95837615654E+02 0.95836081256E+02
 0.11340029915E+03 0.95824907250E+02 0.72299469940E+02 0.48696696463E+02 0.29586262728E+02
 0.17168871748E+02 0.11119748898E+02 0.90734909370E+01 0.81931056937E+01 0.78938895551E+01
 0.81939847027E+01 0.90734313442E+01 0.11118642160E+02 0.17169370860E+02 0.29589701130E+02
 0.48699417130E+02 0.72295920839E+02 0.95814943301E+02 0.11339132593E+03 0.11993290709E+03
 0.13412957969E+03 0.11992543321E+03 0.95826119036E+02 0.68352325742E+02 0.43554162916E+02
 0.25272182133E+02 0.14606464949E+02 0.10138273372E+02 0.87389730131E+01 0.81026030727E+01
 0.81032818224E+01 0.87397006014E+01 0.10137436943E+02 0.14605250489E+02 0.25272887613E+02
 0.43555433779E+02 0.68348778233E+02 0.95814772260E+02 0.11991148772E+03 0.13412319728E+03
 0.10608763160E+03 0.10028726399E+03 0.84677178770E+02 0.63771392859E+02 0.42838660892E+02
 0.26026770981E+02 0.15307610923E+02 0.10262746513E+02 0.85650965410E+01 0.77481878490E+01
 0.74735469448E+01 0.77485167303E+01 0.85653514919E+01 0.10262626854E+02 0.15307277356E+02
 0.26026616299E+02 0.42838821937E+02 0.63771636795E+02 0.84677257514E+02 0.10028721407E+03
 0.10029102870E+03 0.10028699104E+03 0.89586634498E+02 0.71415624336E+02 0.50739155720E+02
 0.32284388346E+02 0.19074980582E+02 0.11814158648E+02 0.90172665060E+01 0.79595129640E+01
 0.74241706465E+01 0.74236431020E+01 0.79589400065E+01 0.90179748678E+01 0.11815420873E+02
 0.19075025355E+02 0.32283767911E+02 0.50741291610E+02 0.71422642983E+02 0.89595398154E+02
 0.84682955787E+02 0.89608362601E+02 0.84677225233E+02 0.71415889617E+02 0.53686838059E+02
 0.36038276941E+02 0.22064504930E+02 0.13407564751E+02 0.95197600139E+01 0.81560040640E+01
 0.74118505106E+01 0.71645946377E+01 0.74105553428E+01 0.81555198772E+01 0.95208624786E+01
 0.13408171573E+02 0.22062801434E+02 0.36036213098E+02 0.53688467510E+02 0.71421925118E+02
 0.63769319944E+02 0.71462954769E+02 0.71463808652E+02 0.63771902786E+02 0.50739107385E+02
 0.36038060247E+02 0.23202391114E+02 0.14422663432E+02 0.99640519372E+01 0.83042519488E+01
 0.74256226321E+01 0.69873263920E+01 0.69869585247E+01 0.74250468468E+01 0.83042549183E+01
 0.99643736850E+01 0.14421988646E+02 0.23199760973E+02 0.36033997455E+02 0.50735160129E+02
 0.42831260806E+02 0.50815721684E+02 0.53796669906E+02 0.50821847174E+02 0.42838718744E+02
 0.32283955372E+02 0.22064556773E+02 0.14422811065E+02 0.10144446605E+02 0.83841534609E+01
 0.74467479754E+01 0.68857533120E+01 0.67072940381E+01 0.68862405696E+01 0.74469310980E+01
 0.83840117462E+01 0.10145049627E+02 0.14424305497E+02 0.22064664293E+02 0.32279953281E+02
 0.26026228627E+02 0.32400744963E+02 0.36221082527E+02 0.36223247122E+02 0.32404450376E+02
 0.26026530447E+02 0.19074945862E+02 0.13407883632E+02 0.99639909669E+01 0.83840728662E+01
 0.74564973628E+01 0.68421344776E+01 0.65557902791E+01 0.65564331626E+01 0.68429272895E+01
 0.74560519116E+01 0.83836240742E+01 0.99663028638E+01 0.13413091739E+02 0.19079227657E+02
 0.15312975629E+02 0.19227590219E+02 0.22318009287E+02 0.23490780574E+02 0.22316159409E+02
 0.19223482793E+02 0.15307444892E+02 0.11814392679E+02 0.95197669442E+01 0.83040493171E+01
 0.74468326878E+01 0.68421704702E+01 0.65086852093E+01 0.64063175257E+01 0.65095061281E+01
 0.68420950285E+01 0.74450682387E+01 0.83023826565E+01 0.95208624786E+01 0.11818790914E+02
 0.10261938164E+02 0.11975354573E+02 0.13700035398E+02 0.14785325689E+02 0.14782987372E+02
 0.13695088784E+02 0.11972020223E+02 0.10262736761E+02 0.90173978200E+01 0.81557913426E+01
 0.74256518726E+01 0.68858702755E+01 0.65556612129E+01 0.64062918379E+01 0.64065616260E+01
 0.65561321453E+01 0.68855518802E+01 0.74234186854E+01 0.81516760727E+01 0.90134715487E+01
 0.85586450256E+01 0.91638385049E+01 0.98083714268E+01 0.10351157228E+02 0.10565308890E+02
 0.10349250929E+02 0.98083157635E+01 0.91681825858E+01 0.85652257520E+01 0.79594300161E+01
 0.74117428433E+01 0.69875016167E+01 0.67072158963E+01 0.65563499022E+01 0.65096934031E+01
 0.65561779511E+01 0.67081487036E+01 0.69892753755E+01 0.74115635366E+01 0.79551253767E+01
 0.77480708612E+01 0.80967321781E+01 0.84255508004E+01 0.86809848958E+01 0.88211079379E+01
 0.88215730522E+01 0.86829897277E+01 0.84294007571E+01 0.81003745498E+01 0.77483008511E+01
 0.74240274737E+01 0.71647199907E+01 0.69870557476E+01 0.68861130958E+01 0.68430609283E+01
 0.68421926747E+01 0.68853074429E+01 0.69891973737E+01 0.71695730006E+01 0.74279036009E+01
 0.74792452174E+01 0.75644880856E+01 0.76751557810E+01 0.77918250754E+01 0.78837614466E+01
 0.79197263507E+01 0.78855542333E+01 0.77934587117E+01 0.76742963493E+01 0.75603829933E+01
 0.74735295558E+01 0.74236003991E+01 0.74107346495E+01 0.74249443886E+01 0.74468326878E+01
 0.74561284854E+01 0.74448851160E+01 0.74232869868E+01 0.74118505106E+01 0.74280040708E+01
 0.77477664772E+01 0.75643905057E+01 0.74296533308E+01 0.73523155166E+01 0.73232375241E+01
 0.73196085149E+01 0.73203433771E+01 0.73237501261E+01 0.73499623729E+01 0.74248593818E+01
 0.75608231597E+01 0.77483253484E+01 0.79590086443E+01 0.81555240250E+01 0.83040260999E+01
 0.83840391664E+01 0.83837320891E+01 0.83023564699E+01 0.81518929420E+01 0.79552769624E+01
 0.85584164984E+01 0.80965980639E+01 0.76754447188E+01 0.73523794251E+01 0.71454178997E+01
 0.70400085769E+01 0.70096058588E+01 0.70404152911E+01 0.71446034775E+01 0.73503837448E+01
 0.76752781195E+01 0.81008204189E+01 0.85652521757E+01 0.90180865094E+01 0.95207487143E+01
 0.99643786389E+01 0.10145327694E+02 0.99663687879E+01 0.95207417840E+01 0.90134518762E+01
 0.10262068172E+02 0.91638939209E+01 0.84257635471E+01 0.77918968344E+01 0.73229956781E+01
 0.70400016080E+01 0.69142640324E+01 0.69140810812E+01 0.70397369500E+01 0.73234931568E+01
 0.77941182582E+01 0.84296332291E+01 0.91675042447E+01 0.10262747110E+02 0.11815515609E+02
 0.13408174301E+02 0.14422132724E+02 0.14424301942E+02 0.13412775586E+02 0.11818651619E+02
 0.15313309196E+02 0.11975518425E+02 0.98082396236E+01 0.86809073339E+01 0.78835910384E+01
 0.73196315493E+01 0.70097821735E+01 0.69140285717E+01 0.70086240887E+01 0.73194791249E+01
 0.78855542333E+01 0.86829867389E+01 0.98073075697E+01 0.11970888653E+02 0.15307444892E+02
 0.19075001070E+02 0.22062693914E+02 0.23199631383E+02 0.22064504930E+02 0.19079238092E+02
 0.26026390186E+02 0.19227554824E+02 0.13699713783E+02 0.10351029263E+02 0.88212341321E+01
 0.79198113683E+01 0.73204552247E+01 0.70402991540E+01 0.70396277818E+01 0.73195679381E+01
 0.79201259403E+01 0.88216381262E+01 0.10348870134E+02 0.13694780890E+02 0.19223418999E+02
 0.26026537324E+02 0.32283574577E+02 0.36036124191E+02 0.36034125243E+02 0.32280192921E+02
 0.42831117170E+02 0.32400440247E+02 0.22317861367E+02 0.14785407408E+02 0.10565589084E+02
 0.88216149272E+01 0.78854364877E+01 0.73236740192E+01 0.71445542205E+01 0.73236588959E+01
 0.78856068959E+01 0.88215538070E+01 0.10564471634E+02 0.14783676062E+02 0.22318004858E+02
 0.32404838048E+02 0.42838736154E+02 0.50741424236E+02 0.53688683508E+02 0.50735341090E+02
 0.63769090111E+02 0.50815500371E+02 0.36221231265E+02 0.23491093350E+02 0.14783104660E+02
 0.10349107311E+02 0.86827672012E+01 0.77935212409E+01 0.73500766776E+01 0.73504341408E+01
 0.77941090284E+01 0.86828417742E+01 0.10348854480E+02 0.14783711630E+02 0.23493527910E+02
 0.36225162198E+02 0.50819544427E+02 0.63771916890E+02 0.71422724859E+02 0.71421741714E+02
 0.84682877042E+02 0.71463173909E+02 0.53796896294E+02 0.36223443925E+02 0.22316015918E+02
 0.13694817580E+02 0.98082396236E+01 0.84296006139E+01 0.76744629487E+01 0.74247165510E+01
 0.76751557810E+01 0.84296203392E+01 0.98073632330E+01 0.13694831301E+02 0.22318009287E+02
 0.36225210262E+02 0.53794807047E+02 0.71456976393E+02 0.84677225233E+02 0.89594964536E+02
 0.10029107170E+03 0.89608878584E+02 0.71463881610E+02 0.50821610826E+02 0.32404247954E+02
 0.19223366322E+02 0.11972153598E+02 0.91683799691E+01 0.81004057709E+01 0.75601614268E+01
 0.75606991731E+01 0.81009857542E+01 0.91676462120E+01 0.11970858177E+02 0.19223337923E+02
 0.32404940342E+02 0.50819529391E+02 0.71456830211E+02 0.89600022401E+02 0.10028698412E+03
 0.70440078161E+02 0.66534157211E+02 0.56038641585E+02 0.42072797858E+02 0.28339200927E+02
 0.17740529680E+02 0.11474239809E+02 0.88225493695E+01 0.77351323463E+01 0.70848386979E+01
 0.68735414755E+01 0.70850913335E+01 0.77353234771E+01 0.88224472828E+01 0.11473975442E+02
 0.17740412875E+02 0.28339335383E+02 0.42072994921E+02 0.56038703994E+02 0.66534116356E+02
 0.66535919991E+02 0.66533938637E+02 0.59324324773E+02 0.47130782952E+02 0.33427527077E+02
 0.21549044362E+02 0.13527653786E+02 0.95343265542E+01 0.80383551244E+01 0.72011711457E+01