   2   2   0   0
  0.1063727E+02  0.2376600E-09  0.2376600E-09  0.4349280E-09  0.5000000E-15
  1.000000000000000E-004
  CAR 
 unknown system                          
     70.61951198     -5.68856876  301      6.43994001      1.00000000
     -5.689  0.0000E+00  0.0000E+00
     -5.434  0.0000E+00  0.0000E+00
     -5.180  0.0000E+00  0.0000E+00
     -4.925  0.0000E+00  0.0000E+00
     -4.671  0.0000E+00  0.0000E+00
     -4.417  0.0000E+00  0.0000E+00
     -4.162  0.0000E+00  0.0000E+00
     -3.908 -0.1631E-32 -0.4149E-33
     -3.654 -0.5826E-24 -0.1482E-24
     -3.399 -0.7679E-17 -0.1953E-17
     -3.145 -0.4035E-11 -0.1026E-11
     -2.891 -0.7864E-07 -0.2000E-07
     -2.636 -0.5356E-04 -0.1364E-04
     -2.382 -0.4242E-03 -0.1215E-03
     -2.128  0.8973E-02  0.2161E-02
     -1.873  0.5648E-01  0.1653E-01
     -1.619  0.1093E+00  0.4432E-01
     -1.364  0.5966E-01  0.5949E-01
     -1.110  0.1557E+00  0.9910E-01
     -0.856  0.1892E+00  0.1472E+00
     -0.601  0.1985E+00  0.1977E+00
     -0.347  0.9685E-01  0.2224E+00
     -0.093  0.2332E+00  0.2817E+00
      0.162  0.3067E+00  0.3597E+00
      0.416  0.3343E+00  0.4447E+00
      0.670  0.2904E+00  0.5186E+00
      0.925  0.2752E+00  0.5886E+00
      1.179  0.3502E+00  0.6777E+00
      1.434  0.7225E+00  0.8614E+00
      1.688  0.9091E+00  0.1093E+01
      1.942  0.1359E+01  0.1438E+01
      2.197  0.2045E+01  0.1959E+01
      2.451  0.2787E+01  0.2668E+01
      2.705  0.2291E+01  0.3250E+01
      2.960  0.2972E+01  0.4006E+01
      3.214  0.2605E+01  0.4669E+01
      3.468  0.3363E+01  0.5524E+01
      3.723  0.3428E+01  0.6396E+01
      3.977  0.3329E+01  0.7243E+01
      4.231  0.2544E+01  0.7890E+01
      4.486  0.2865E+01  0.8619E+01
      4.740  0.4347E+01  0.9725E+01
      4.995  0.3880E+01  0.1071E+02
      5.249  0.3807E+01  0.1168E+02
      5.503  0.3216E+01  0.1250E+02
      5.758  0.3800E+01  0.1346E+02
      6.012  0.3866E+01  0.1445E+02
      6.266  0.3724E+01  0.1540E+02
      6.521  0.3454E+01  0.1627E+02
      6.775  0.3823E+01  0.1725E+02
      7.029  0.4984E+01  0.1851E+02
      7.284  0.4748E+01  0.1972E+02
      7.538  0.4267E+01  0.2081E+02
      7.793  0.1660E+01  0.2123E+02
      8.047  0.4412E+00  0.2134E+02
      8.301  0.4574E+00  0.2146E+02
      8.556  0.6442E+00  0.2162E+02
      8.810  0.1001E+01  0.2188E+02
      9.064  0.6972E+00  0.2205E+02
      9.319  0.3492E+00  0.2214E+02
      9.573  0.4333E+00  0.2225E+02
      9.827  0.5811E+00  0.2240E+02
     10.082  0.3340E+00  0.2249E+02
     10.336  0.4309E+00  0.2260E+02
     10.590  0.7263E+00  0.2278E+02
     10.845  0.5192E+00  0.2291E+02
     11.099  0.5230E+00  0.2305E+02
     11.354  0.4409E+00  0.2316E+02
     11.608  0.1407E+00  0.2319E+02
     11.862  0.4633E+00  0.2331E+02
     12.117  0.3353E+00  0.2340E+02
     12.371  0.4161E+00  0.2350E+02
     12.625  0.2152E+00  0.2356E+02
     12.880  0.3693E+00  0.2365E+02
     13.134  0.4622E+00  0.2377E+02
     13.388  0.7628E+00  0.2396E+02
     13.643  0.4057E+00  0.2407E+02
     13.897  0.1759E+00  0.2411E+02
     14.152  0.1944E+00  0.2416E+02
     14.406  0.8456E-01  0.2418E+02
     14.660  0.1842E+00  0.2423E+02
     14.915  0.3374E+00  0.2431E+02
     15.169  0.1949E+00  0.2436E+02
     15.423  0.1855E+00  0.2441E+02
     15.678  0.6482E+00  0.2458E+02
     15.932  0.8208E+00  0.2478E+02
     16.186  0.1098E+01  0.2506E+02
     16.441  0.7727E+00  0.2526E+02
     16.695  0.6121E+00  0.2542E+02
     16.949  0.4218E+00  0.2552E+02
     17.204  0.7802E+00  0.2572E+02
     17.458  0.7411E+00  0.2591E+02
     17.713  0.5858E+00  0.2606E+02
     17.967  0.1133E+01  0.2635E+02
     18.221  0.6611E+00  0.2652E+02
     18.476  0.6678E+00  0.2669E+02
     18.730  0.2756E+00  0.2676E+02
     18.984  0.7140E+00  0.2694E+02
     19.239  0.7694E+00  0.2713E+02
     19.493  0.8318E+00  0.2734E+02
     19.747  0.4084E+00  0.2745E+02
     20.002  0.4648E+00  0.2757E+02
     20.256  0.7278E+00  0.2775E+02
     20.511  0.5297E+00  0.2789E+02
     20.765  0.6035E+00  0.2804E+02
     21.019  0.8284E+00  0.2825E+02
     21.274  0.6512E+00  0.2842E+02
     21.528  0.6948E+00  0.2859E+02
     21.782  0.6286E+00  0.2875E+02
     22.037  0.5251E+00  0.2889E+02
     22.291  0.1028E+01  0.2915E+02
     22.545  0.1009E+01  0.2940E+02
     22.800  0.8936E+00  0.2963E+02
     23.054  0.7109E+00  0.2981E+02
     23.309  0.1040E+01  0.3008E+02
     23.563  0.9673E+00  0.3032E+02
     23.817  0.6975E+00  0.3050E+02
     24.072  0.8653E+00  0.3072E+02
     24.326  0.1149E+01  0.3101E+02
     24.580  0.7246E+00  0.3120E+02
     24.835  0.9737E+00  0.3145E+02
     25.089  0.9021E+00  0.3167E+02
     25.343  0.1291E+01  0.3200E+02
     25.598  0.1352E+01  0.3235E+02
     25.852  0.8974E+00  0.3258E+02
     26.106  0.5615E+00  0.3272E+02
     26.361  0.8888E+00  0.3294E+02
     26.615  0.6990E+00  0.3312E+02
     26.870  0.8630E+00  0.3334E+02
     27.124  0.7829E+00  0.3354E+02
     27.378  0.8254E+00  0.3375E+02
     27.633  0.7018E+00  0.3393E+02
     27.887  0.1110E+01  0.3421E+02
     28.141  0.1017E+01  0.3447E+02
     28.396  0.1948E+00  0.3452E+02
     28.650  0.6015E+00  0.3467E+02
     28.904  0.5942E+00  0.3482E+02
     29.159  0.5350E+00  0.3496E+02
     29.413  0.8183E+00  0.3517E+02
     29.668  0.8592E+00  0.3539E+02
     29.922  0.8278E+00  0.3560E+02
     30.176  0.7127E+00  0.3578E+02
     30.431  0.9071E+00  0.3601E+02
     30.685  0.7665E+00  0.3620E+02
     30.939  0.1150E+01  0.3650E+02
     31.194  0.8887E+00  0.3672E+02
     31.448  0.6257E+00  0.3688E+02
     31.702  0.8362E+00  0.3709E+02
     31.957  0.6886E+00  0.3727E+02
     32.211  0.5716E+00  0.3742E+02
     32.465  0.1023E+01  0.3768E+02
     32.720  0.1355E+01  0.3802E+02
     32.974  0.5832E+00  0.3817E+02
     33.229  0.6212E+00  0.3833E+02
     33.483  0.1129E+01  0.3861E+02
     33.737  0.1177E+01  0.3891E+02
     33.992  0.9179E+00  0.3915E+02
     34.246  0.1241E+01  0.3946E+02
     34.500  0.1300E+01  0.3979E+02
     34.755  0.9043E+00  0.4002E+02
     35.009  0.1256E+01  0.4034E+02
     35.263  0.1305E+01  0.4067E+02
     35.518  0.5930E+00  0.4082E+02
     35.772  0.9374E+00  0.4106E+02
     36.027  0.1131E+01  0.4135E+02
     36.281  0.6214E+00  0.4151E+02
     36.535  0.5181E+00  0.4164E+02
     36.790  0.8665E+00  0.4186E+02
     37.044  0.4297E+00  0.4197E+02
     37.298  0.5103E+00  0.4210E+02
     37.553  0.8858E+00  0.4233E+02
     37.807  0.1131E+01  0.4261E+02
     38.061  0.1101E+01  0.4289E+02
     38.316  0.7157E+00  0.4308E+02
     38.570  0.8724E+00  0.4330E+02
     38.824  0.7388E+00  0.4349E+02
     39.079  0.8340E+00  0.4370E+02
     39.333  0.6786E+00  0.4387E+02
     39.588  0.8229E+00  0.4408E+02
     39.842  0.1202E+01  0.4439E+02
     40.096  0.1200E+01  0.4469E+02
     40.351  0.1293E+01  0.4502E+02
     40.605  0.1089E+01  0.4530E+02
     40.859  0.8168E+00  0.4550E+02
     41.114  0.1216E+01  0.4581E+02
     41.368  0.1143E+01  0.4610E+02
     41.622  0.1053E+01  0.4637E+02
     41.877  0.1287E+01  0.4670E+02
     42.131  0.1009E+01  0.4696E+02
     42.386  0.7080E+00  0.4714E+02
     42.640  0.1312E+01  0.4747E+02
     42.894  0.1232E+01  0.4778E+02
     43.149  0.1085E+01  0.4806E+02
     43.403  0.6996E+00  0.4824E+02
     43.657  0.7299E+00  0.4842E+02
     43.912  0.9709E+00  0.4867E+02
     44.166  0.9897E+00  0.4892E+02
     44.420  0.1170E+01  0.4922E+02
     44.675  0.1384E+01  0.4957E+02
     44.929  0.7964E+00  0.4977E+02
     45.183  0.1031E+01  0.5004E+02
     45.438  0.1213E+01  0.5034E+02
     45.692  0.1219E+01  0.5065E+02
     45.947  0.5362E+00  0.5079E+02
     46.201  0.7859E+00  0.5099E+02
     46.455  0.1288E+01  0.5132E+02
     46.710  0.8066E+00  0.5152E+02
     46.964  0.1123E+01  0.5181E+02
     47.218  0.9718E+00  0.5206E+02
     47.473  0.8770E+00  0.5228E+02
     47.727  0.6644E+00  0.5245E+02
     47.981  0.1425E+01  0.5281E+02
     48.236  0.1135E+01  0.5310E+02
     48.490  0.1361E+01  0.5345E+02
     48.745  0.1700E+01  0.5388E+02
     48.999  0.1214E+01  0.5419E+02
     49.253  0.1121E+01  0.5447E+02
     49.508  0.1193E+01  0.5478E+02
     49.762  0.1026E+01  0.5504E+02
     50.016  0.1172E+01  0.5533E+02
     50.271  0.1031E+01  0.5560E+02
     50.525  0.1164E+01  0.5589E+02
     50.779  0.8868E+00  0.5612E+02
     51.034  0.8568E+00  0.5634E+02
     51.288  0.1010E+01  0.5659E+02
     51.542  0.1168E+01  0.5689E+02
     51.797  0.1135E+01  0.5718E+02
     52.051  0.1282E+01  0.5751E+02
     52.306  0.1407E+01  0.5786E+02
     52.560  0.1399E+01  0.5822E+02
     52.814  0.1301E+01  0.5855E+02
     53.069  0.1542E+01  0.5894E+02
     53.323  0.1268E+01  0.5926E+02
     53.577  0.1460E+01  0.5964E+02
     53.832  0.8724E+00  0.5986E+02
     54.086  0.1298E+01  0.6019E+02
     54.340  0.1119E+01  0.6047E+02
     54.595  0.1220E+01  0.6078E+02
     54.849  0.1577E+01  0.6118E+02
     55.104  0.1576E+01  0.6159E+02
     55.358  0.1015E+01  0.6184E+02
     55.612  0.1375E+01  0.6219E+02
     55.867  0.1376E+01  0.6254E+02
     56.121  0.1402E+01  0.6290E+02
     56.375  0.1430E+01  0.6326E+02
     56.630  0.1995E+01  0.6377E+02
     56.884  0.1476E+01  0.6415E+02
     57.138  0.1234E+01  0.6446E+02
     57.393  0.1562E+01  0.6486E+02
     57.647  0.1478E+01  0.6523E+02
     57.901  0.1408E+01  0.6559E+02
     58.156  0.1732E+01  0.6603E+02
     58.410  0.1564E+01  0.6643E+02
     58.665  0.1724E+01  0.6687E+02
     58.919  0.1638E+01  0.6728E+02
     59.173  0.1820E+01  0.6775E+02
     59.428  0.1532E+01  0.6814E+02
     59.682  0.1717E+01  0.6857E+02
     59.936  0.1731E+01  0.6901E+02
     60.191  0.1569E+01  0.6941E+02
     60.445  0.1064E+01  0.6968E+02
     60.699  0.1979E+01  0.7019E+02
     60.954  0.1711E+01  0.7062E+02
     61.208  0.1533E+01  0.7101E+02
     61.463  0.1085E+01  0.7129E+02
     61.717  0.2026E+01  0.7180E+02
     61.971  0.1605E+01  0.7221E+02
     62.226  0.1801E+01  0.7267E+02
     62.480  0.1807E+01  0.7313E+02
     62.734  0.1807E+01  0.7359E+02
     62.989  0.1562E+01  0.7399E+02
     63.243  0.1869E+01  0.7446E+02
     63.497  0.2180E+01  0.7502E+02
     63.752  0.1453E+01  0.7539E+02
     64.006  0.2094E+01  0.7592E+02
     64.261  0.1892E+01  0.7640E+02
     64.515  0.1694E+01  0.7683E+02
     64.769  0.2090E+01  0.7736E+02
     65.024  0.2250E+01  0.7793E+02
     65.278  0.1382E+01  0.7829E+02
     65.532  0.1647E+01  0.7871E+02
     65.787  0.1601E+01  0.7911E+02
     66.041  0.1515E+01  0.7950E+02
     66.295  0.1026E+01  0.7976E+02
     66.550  0.6182E+00  0.7992E+02
     66.804  0.1215E+00  0.7995E+02
     67.058  0.7463E-01  0.7997E+02
     67.313  0.1370E+00  0.8000E+02
     67.567 -0.1930E-02  0.8000E+02
     67.822 -0.7194E-03  0.8000E+02
     68.076 -0.1102E-05  0.8000E+02
     68.330 -0.5543E-10  0.8000E+02
     68.585 -0.1102E-15  0.8000E+02
     68.839  0.0000E+00  0.8000E+02
     69.093  0.0000E+00  0.8000E+02
     69.348  0.0000E+00  0.8000E+02
     69.602  0.0000E+00  0.8000E+02
     69.856  0.0000E+00  0.8000E+02
     70.111  0.0000E+00  0.8000E+02
     70.365  0.0000E+00  0.8000E+02
     70.620  0.0000E+00  0.8000E+02
