 vasp.6.2.0 18Jan21 (build Mar 17 2021 09:06:54) complex                        
  
 POSCAR found type information on POSCAR Fe
 POSCAR found :  1 types and       2 ions
 LDA part: xc-table for Pade appr. of Perdew
 POSCAR, INCAR and KPOINTS ok, starting setup
 FFT: planning ...
 WAVECAR not read
 WARNING: chargedensity file is incomplete
 entering main loop
       N       E                     dE             d eps       ncg     rms          rms(c)
DAV:   1     0.607484734135E+02    0.60748E+02   -0.27953E+03  9312   0.317E+02
DAV:   2    -0.143798018257E+02   -0.75128E+02   -0.63711E+02  8000   0.946E+01
DAV:   3    -0.189929671509E+02   -0.46132E+01   -0.43549E+01  9480   0.245E+01
DAV:   4    -0.190156757597E+02   -0.22709E-01   -0.22692E-01  9208   0.180E+00
DAV:   5    -0.190157097751E+02   -0.34015E-04   -0.34014E-04  9312   0.659E-02    0.163E+01
DAV:   6    -0.161973443198E+02    0.28184E+01   -0.20702E+00 11184   0.256E+01    0.310E+00
DAV:   7    -0.159515552225E+02    0.24579E+00   -0.15899E-01 10168   0.623E+00    0.106E+00
DAV:   8    -0.159255650023E+02    0.25990E-01   -0.44213E-03 10152   0.454E-01    0.473E-01
DAV:   9    -0.159154765947E+02    0.10088E-01   -0.87043E-04 11176   0.164E-01    0.598E-02
DAV:  10    -0.159155046488E+02   -0.28054E-04   -0.40263E-05  9184   0.256E-02    0.287E-02
DAV:  11    -0.159154991345E+02    0.55143E-05   -0.72551E-07  9448   0.623E-03    0.183E-03
DAV:  12    -0.159154986043E+02    0.53021E-06   -0.21973E-08  5912   0.762E-04
   1 F= -.15915499E+02 E0= -.15916344E+02  d E =0.253518E-02
 writing wavefunctions
