unknown system                          
   1.00000000000000     
     2.353300    0.000000    0.000000
    -1.176650    2.038018    0.000000
     0.000000    0.000000    4.058180
   Fe
     2
Direct
  0.000000  0.000000  0.000000
  0.333333  0.666667  0.500000
 
   20   20   36
  163.31      154.58      131.16      99.803      68.067      41.646      23.396      13.445      9.6697      8.6201    
  8.2846      8.6204      9.6700      13.445      23.395      41.646      68.067      99.804      131.16      154.58    
  154.59      154.58      138.55      111.35      80.237      51.791      30.199      16.877      10.759      8.9152    
  8.2732      8.2727      8.9147      10.760      16.878      30.197      51.789      80.241      111.37      138.57    
  131.17      138.52      131.16      111.35      84.749      57.763      35.376      20.141      12.108      9.2077    
  8.2926      7.9793      8.2913      9.2074      12.109      20.140      35.372      57.760      84.752      111.37    
  99.799      111.28      111.28      99.804      80.237      57.763      37.310      22.130      13.246      9.5238    
  8.3306      7.7711      7.7707      8.3301      9.5245      13.247      22.130      37.306      57.756      80.230    
  68.053      80.128      84.603      80.139      68.067      51.791      35.376      22.131      13.692      9.7454    
  8.3673      7.6498      7.4077      7.6500      8.3675      9.7462      13.695      22.134      35.376      51.783    
  41.645      51.710      57.618      57.621      51.716      41.646      30.199      20.141      13.246      9.7453    
  8.3826      7.5976      7.2046      7.2051      7.5977      8.3812      9.7448      13.251      20.150      30.205    
  23.405      30.186      35.314      37.223      35.310      30.178      23.395      16.877      12.108      9.5237    
  8.3674      7.5976      7.1405      6.9948      7.1414      7.5966      8.3634      9.5198      12.109      16.885    
  13.444      16.912      20.178      22.153      22.148      20.168      16.905      13.445      10.759      9.2076    
  8.3307      7.6499      7.2044      6.9948      6.9956      7.2059      7.6495      8.3262      9.1997      10.752    
  9.6588      10.803      12.194      13.353      13.803      13.350      12.194      10.810      9.6699      8.9152    
  8.2925      7.7712      7.4077      7.2050      7.1416      7.2059      7.4107      7.7751      8.2923      8.9079    
  8.6199      8.9632      9.3047      9.6622      9.9070      9.9084      9.6669      9.3125      8.9699      8.6202    
  8.2731      7.9794      7.7707      7.6499      7.5979      7.5967      7.6493      7.7751      7.9881      8.2800    
  8.2948      8.3366      8.4028      8.4824      8.5511      8.5801      8.5550      8.4863      8.4019      8.3294    
  8.2846      8.2726      8.2914      8.3301      8.3674      8.3812      8.3633      8.3261      8.2926      8.2801    
  8.6196      8.3365      8.1008      7.9394      7.8542      7.8242      7.8252      7.8546      7.9349      8.0922    
  8.3299      8.6202      8.9148      9.2075      9.5244      9.7462      9.7449      9.5198      9.1999      8.9080    
  9.6586      8.9631      8.4030      7.9395      7.6222      7.4505      7.3982      7.4497      7.6192      7.9354    
  8.4029      8.9704      9.6699      10.760      12.109      13.247      13.695      13.251      12.109      10.752    
  13.444      10.803      9.3049      8.4824      7.8540      7.4505      7.2633      7.2626      7.4492      7.8546    
  8.4868      9.3125      10.809      13.445      16.878      20.140      22.130      22.134      20.149      16.885    
  23.406      16.912      12.194      9.6621      8.5509      7.8242      7.3984      7.2625      7.3972      7.8250    
  8.5550      9.6662      12.193      16.905      23.395      30.197      35.372      37.306      35.376      30.205    
  41.645      30.186      20.177      13.353      9.9071      8.5802      7.8253      7.4496      7.4491      7.8251    
  8.5815      9.9076      13.349      20.169      30.180      41.646      51.789      57.760      57.756      51.783    
  68.053      51.709      35.314      22.153      13.803      9.9085      8.5550      7.8546      7.6191      7.8547    
  8.5551      9.9075      13.800      22.149      35.314      51.718      68.067      80.241      84.753      80.230    
  99.799      80.127      57.618      37.223      22.148      13.350      9.6667      8.4863      7.9350      7.9355    
  8.4868      9.6661      13.349      22.149      37.227      57.624      80.134      99.804      111.37      111.37    
  131.17      111.28      84.603      57.621      35.310      20.168      12.194      9.3126      8.4020      8.0921    
  8.4028      9.3125      12.193      20.169      35.314      57.624      84.599      111.27      131.16      138.57    
  154.59      138.53      111.28      80.139      51.716      30.178      16.905      10.810      8.9699      8.3292    
  8.3298      8.9705      10.809      16.905      30.180      51.718      80.134      111.27      138.51      154.58    
  155.22      146.94      124.69      94.864      64.664      39.554      22.291      12.975      9.4968      8.4984    
  8.1711      8.4987      9.4971      12.975      22.291      39.554      64.664      94.864      124.69      146.94    
  146.95      146.94      131.71      105.85      76.234      49.174      28.698      16.160      10.483      8.7797    
  8.1527      8.1521      8.7792      10.483      16.160      28.696      49.173      76.238      105.86      131.72    
  124.70      131.69      124.69      105.85      80.524      54.844      33.587      19.206      11.712      9.0467    
  8.1661      7.8618      8.1648      9.0465      11.713      19.205      33.583      54.841      80.528      105.86    
  94.860      105.79      105.79      94.864      76.234      54.844      35.416      21.069      12.757      9.3269    
  8.1995      7.6567      7.6563      8.1991      9.3275      12.758      21.068      35.412      54.837      76.228    
  64.651      76.150      80.412      76.160      64.664      49.174      33.587      21.069      13.167      9.5234    
  8.2333      7.5375      7.3040      7.5377      8.2335      9.5241      13.170      21.073      33.587      49.167    
  39.553      49.122      54.745      54.749      49.128      39.554      28.698      19.206      12.756      9.5233    
  8.2475      7.4862      7.1075      7.1080      7.4864      8.2463      9.5229      12.761      19.214      28.704    
  22.300      28.711      33.574      35.386      33.570      28.704      22.291      16.160      11.712      9.3267    
  8.2334      7.4862      7.0456      6.9056      7.0465      7.4854      8.2297      9.3232      11.713      16.167    
  12.974      16.217      19.286      21.148      21.144      19.277      16.210      12.975      10.483      9.0466    
  8.1996      7.5376      7.1073      6.9056      6.9063      7.1086      7.5372      8.1955      9.0393      10.476    
  9.4866      10.545      11.835      12.914      13.333      12.911      11.835      10.552      9.4969      8.7797    
  8.1660      7.6569      7.3039      7.1079      7.0466      7.1087      7.3067      7.6605      8.1659      8.7728    
  8.4982      8.8441      9.1756      9.5091      9.7357      9.7369      9.5135      9.1828      8.8504      8.4985    
  8.1525      7.8619      7.6564      7.5376      7.4865      7.4854      7.5370      7.6604      7.8701      8.1590    
  8.1806      8.2304      8.3046      8.3906      8.4632      8.4935      8.4669      8.3942      8.3037      8.2237    
  8.1711      8.1521      8.1650      8.1990      8.2334      8.2463      8.2296      8.1954      8.1661      8.1591    
  8.4980      8.2303      8.0098      7.8610      7.7842      7.7581      7.7591      7.7846      7.8569      8.0018    
  8.2241      8.4985      8.7793      9.0465      9.3273      9.5241      9.5230      9.3232      9.0395      8.7729    
  9.4864      8.8441      8.3048      7.8611      7.5589      7.3962      7.3468      7.3956      7.5562      7.8573    
  8.3047      8.8509      9.4970      10.483      11.713      12.758      13.170      12.761      11.713      10.476    
  12.974      10.545      9.1757      8.3906      7.7840      7.3962      7.2168      7.2162      7.3951      7.7846    
  8.3947      9.1828      10.551      12.975      16.160      19.205      21.069      21.073      19.214      16.167    
  22.300      16.217      11.835      9.5090      8.4631      7.7581      7.3470      7.2161      7.3459      7.7588    
  8.4669      9.5128      11.834      16.210      22.291      28.696      33.583      35.412      33.587      28.704    
  39.553      28.711      19.286      12.914      9.7358      8.4935      7.7592      7.3955      7.3950      7.7589    
  8.4947      9.7362      12.910      19.278      28.705      39.554      49.173      54.841      54.837      49.167    
  64.651      49.122      33.574      21.148      13.333      9.7370      8.4668      7.7846      7.5562      7.7847    
  8.4669      9.7362      13.330      21.144      33.574      49.129      64.664      76.238      80.528      76.228    
  94.860      76.150      54.745      35.386      21.144      12.911      9.5133      8.3942      7.8570      7.8574    
  8.3947      9.5127      12.910      21.144      35.389      54.752      76.156      94.864      105.86      105.86    
  124.70      105.79      80.413      54.749      33.570      19.277      11.835      9.1829      8.3038      8.0017    
  8.3046      9.1828      11.834      19.278      33.574      54.752      80.409      105.78      124.69      131.72    
  146.95      131.69      105.79      76.160      49.128      28.704      16.210      10.552      8.8504      8.2235    
  8.2241      8.8510      10.552      16.210      28.705      49.129      76.156      105.78      131.67      146.94    
  133.35      126.25      107.13      81.450      55.432      33.915      19.358      11.758      9.0474      8.1654    
  7.8627      8.1657      9.0476      11.758      19.358      33.915      55.432      81.450      107.13      126.25    
  126.26      126.25      113.16      90.896      65.366      42.097      24.680      14.278      9.7722      8.4052    
  7.8231      7.8226      8.4047      9.7727      14.279      24.679      42.096      65.369      90.906      113.17    
  107.14      113.16      107.13      90.896      69.052      46.936      28.779      16.735      10.689      8.6178    
  7.8181      7.5400      7.8169      8.6175      10.690      16.735      28.776      46.934      69.055      90.905    
  81.447      90.880      90.881      81.450      65.366      46.936      30.318      18.253      11.484      8.8119    
  7.8366      7.3421      7.3417      7.8362      8.8123      11.485      18.252      30.315      46.931      65.361    
  55.422      65.351      69.035      65.360      55.432      42.097      28.779      18.253      11.800      8.9461    
  7.8604      7.2270      7.0175      7.2273      7.8606      8.9465      11.802      18.256      28.779      42.091    
  33.914      42.123      46.967      46.969      42.129      33.915      24.680      16.735      11.484      8.9460    
  7.8710      7.1773      6.8383      6.8388      7.1776      7.8701      8.9456      11.487      16.742      24.685    
  19.366      24.766      28.900      30.447      28.897      24.760      19.358      14.278      10.689      8.8118    
  7.8605      7.1773      6.7821      6.6576      6.7829      7.1767      7.8576      8.8090      10.690      14.284    
  11.757      14.397      16.935      18.489      18.486      16.928      14.392      11.758      9.7722      8.6177    
  7.8367      7.2271      6.8382      6.6576      6.6582      6.8391      7.2267      7.8334      8.6118      9.7670    
  9.0390      9.8882      10.916      11.783      12.122      11.780      10.916      9.8937      9.0475      8.4052    
  7.8180      7.3422      7.0174      6.8387      6.7830      6.8392      7.0194      7.3450      7.8179      8.3996    
  8.1653      8.5171      8.8382      9.1204      9.3039      9.3049      9.1238      8.8439      8.5222      8.1655    
  7.8230      7.5401      7.3417      7.2272      7.1778      7.1768      7.2266      7.3449      7.5466      7.8282    
  7.8703      7.9430      8.0395      8.1434      8.2268      8.2602      8.2297      8.1461      8.0387      7.9375    
  7.8626      7.8226      7.8171      7.8361      7.8605      7.8701      7.8575      7.8333      7.8181      7.8283    
  8.1650      7.9429      7.7667      7.6542      7.6016      7.5869      7.5878      7.6020      7.6509      7.7602    
  7.9380      8.1656      8.4048      8.6175      8.8122      8.9465      8.9457      8.8090      8.6120      8.3997    
  9.0388      8.5171      8.0397      7.6542      7.3964      7.2599      7.2191      7.2596      7.3944      7.6513    
  8.0396      8.5226      9.0475      9.7728      10.690      11.485      11.802      11.487      10.690      9.7670    
  11.757      9.8882      8.8384      8.1434      7.6015      7.2599      7.1034      7.1030      7.2591      7.6019    
  8.1466      8.8440      9.8932      11.758      14.279      16.735      18.252      18.256      16.741      14.284    
  19.366      14.397      10.915      9.1204      8.2267      7.5870      7.2192      7.1029      7.2182      7.5874    
  8.2297      9.1234      10.915      14.391      19.358      24.679      28.776      30.315      28.779      24.685    
  33.914      24.766      16.935      11.783      9.3040      8.2603      7.5879      7.2595      7.2590      7.5874    
  8.2612      9.3044      11.780      16.928      24.761      33.915      42.096      46.934      46.931      42.091    
  55.421      42.123      28.900      18.489      12.122      9.3049      8.2296      7.6020      7.3944      7.6020    
  8.2297      9.3044      12.120      18.486      28.900      42.129      55.432      65.369      69.055      65.361    
  81.446      65.351      46.967      30.447      18.486      11.780      9.1236      8.1462      7.6509      7.6513    
  8.1466      9.1233      11.780      18.486      30.450      46.972      65.356      81.450      90.906      90.905    
  107.14      90.880      69.035      46.970      28.897      16.928      10.915      8.8440      8.0388      7.7601    
  8.0395      8.8440      10.915      16.928      28.900      46.972      69.032      90.871      107.13      113.17    
  126.26      113.16      90.881      65.360      42.128      24.760      14.392      9.8938      8.5222      7.9374    
  7.9379      8.5227      9.8933      14.391      24.761      42.130      65.356      90.871      113.15      126.25    
  103.61      98.081      83.177      63.130      42.885      26.374      15.567      10.264      8.4660      7.7016    
  7.4383      7.7018      8.4662      10.264      15.567      26.374      42.885      63.130      83.177      98.081    
  98.084      98.080      87.870      70.476      50.551      32.550      19.395      11.909      8.9008      7.8744    
  7.3660      7.3656      7.8740      8.9014      11.910      19.394      32.550      50.553      70.482      87.878    
  83.182      87.889      83.177      70.476      53.402      36.232      22.396      13.571      9.4334      8.0297    
  7.3298      7.0922      7.3288      8.0294      9.4342      13.571      22.395      36.230      53.404      70.481    
  63.128      70.520      70.521      63.130      50.551      36.232      23.533      14.619      9.9096      8.1440    
  7.3215      6.9005      6.9002      7.3211      8.1442      9.9100      14.618      23.530      36.228      50.547    
  42.878      50.632      53.516      50.638      42.885      32.550      22.396      14.619      10.103      8.2118    
  7.3265      6.7873      6.6126      6.7876      7.3267      8.2118      10.103      14.621      22.396      32.546    
  26.374      32.685      36.440      36.442      32.689      26.374      19.395      13.571      9.9096      8.2117    
  7.3303      6.7372      6.4549      6.4554      6.7377      7.3298      8.2114      9.9118      13.576      19.398    
  15.572      19.580      22.702      23.879      22.700      19.576      15.567      11.909      9.4333      8.1439    
  7.3266      6.7372      6.4055      6.3023      6.4062      6.7370      7.3248      8.1422      9.4342      11.913    
  10.263      12.113      13.938      15.073      15.070      13.933      12.110      10.264      8.9009      8.0296    
  7.3216      6.7874      6.4548      6.3023      6.3026      6.4553      6.7871      7.3194      8.0257      8.8973    
  8.4602      9.0934      9.8070      10.408      10.644      10.407      9.8070      9.0973      8.4661      7.8744    
  7.3297      6.9006      6.6126      6.4553      6.4063      6.4554      6.6137      6.9024      7.3296      7.8704    
  7.7014      8.0562      8.3845      8.6374      8.7825      8.7830      8.6395      8.3882      8.0597      7.7017    
  7.3659      7.0922      6.9003      6.7876      6.7378      6.7371      6.7870      6.9024      7.0967      7.3695    
  7.4435      7.5491      7.6757      7.8026      7.8995      7.9368      7.9013      7.8043      7.6750      7.5453    
  7.4383      7.3655      7.3289      7.3210      7.3266      7.3298      7.3247      7.3193      7.3298      7.3695    
  7.7013      7.5490      7.4382      7.3783      7.3605      7.3622      7.3628      7.3609      7.3761      7.4337    
  7.5457      7.7017      7.8740      8.0294      8.1440      8.2118      8.2114      8.1422      8.0258      7.8705    
  8.4600      8.0562      7.6758      7.3784      7.1863      7.0885      7.0603      7.0886      7.1853      7.3764    
  7.6758      8.0600      8.4661      8.9014      9.4341      9.9100      10.104      9.9118      9.4341      8.8973    
  10.263      9.0934      8.3847      7.8026      7.3604      7.0885      6.9663      6.9661      7.0881      7.3608    
  7.8048      8.3884      9.0968      10.264      11.910      13.571      14.619      14.621      13.576      11.913    
  15.573      12.113      9.8069      8.6374      7.8994      7.3622      7.0604      6.9660      7.0595      7.3623    
  7.9013      8.6393      9.8062      12.109      15.567      19.394      22.395      23.530      22.396      19.398    
  26.374      19.580      13.938      10.408      8.7826      7.9368      7.3629      7.0885      7.0881      7.3623    
  7.9373      8.7829      10.406      13.933      19.576      26.374      32.550      36.230      36.228      32.546    
  42.878      32.685      22.702      15.073      10.644      8.7830      7.9012      7.3609      7.1852      7.3609    
  7.9013      8.7829      10.643      15.071      22.702      32.689      42.885      50.553      53.404      50.547    
  63.128      50.632      36.440      23.879      15.071      10.406      8.6393      7.8043      7.3762      7.3765    
  7.8047      8.6392      10.406      15.071      23.882      36.444      50.636      63.130      70.482      70.481    
  83.182      70.520      53.517      36.442      22.700      13.933      9.8069      8.3884      7.6751      7.4337    
  7.6757      8.3884      9.8062      13.933      22.702      36.444      53.515      70.515      83.177      87.878    
  98.084      87.889      70.521      50.638      32.689      19.576      12.110      9.0974      8.0597      7.5452    
  7.5456      8.0601      9.0969      12.109      19.576      32.689      50.636      70.514      87.881      98.080    
  72.729      68.820      58.284      44.159      30.071      18.919      12.040      8.9667      7.8414      7.2009    
  6.9876      7.2010      7.8416      8.9666      12.039      18.919      30.071      44.159      58.284      68.820    
  68.822      68.820      61.586      49.286      35.312      22.956      14.325      9.7948      8.0999      7.2906    
  6.8769      6.8766      7.2903      8.1003      9.7956      14.325      22.956      35.313      49.289      61.590    
  58.287      61.628      58.284      49.286      37.273      25.400      16.175      10.676      8.3291      7.3745    
  6.8006      6.6118      6.7998      7.3742      8.3298      10.677      16.174      25.398      37.274      49.289    
  44.158      49.392      49.393      44.160      35.312      25.399      16.886      11.251      8.5273      7.4357    
  6.7554      6.4218      6.4216      6.7550      7.4356      8.5274      11.251      16.885      25.397      35.310    
  30.067      35.490      37.519      35.493      30.071      22.956      16.175      11.251      8.6092      7.4668    
  6.7336      6.3048      6.1692      6.3051      6.7337      7.4666      8.6093      11.252      16.175      22.954    
  18.919      23.199      25.784      25.785      23.201      18.919      14.325      10.676      8.5273      7.4667    
  6.7275      6.2506      6.0301      6.0305      6.2511      6.7274      7.4665      8.5284      10.679      14.327    
  12.042      14.609      16.664      17.449      16.663      14.607      12.039      9.7949      8.3291      7.4356    
  6.7337      6.2506      5.9862      5.9050      5.9868      6.2507      6.7329      7.4348      8.3298      9.7972    
  8.9662      10.085      11.211      11.923      11.922      11.208      10.084      8.9667      8.0999      7.3744    
  6.7554      6.3049      6.0300      5.9050      5.9051      6.0302      6.3047      6.7543      7.3724      8.0979    
  7.8380      8.3730      8.8560      9.2331      9.3788      9.2321      8.8560      8.3753      7.8415      7.2906    
  6.8005      6.4219      6.1691      6.0304      5.9869      6.0302      6.1695      6.4228      6.8004      7.2883    
  7.2008      7.5483      7.8750      8.1288      8.2672      8.2673      8.1297      7.8768      7.5502      7.2009    
  6.8768      6.6119      6.4216      6.3051      6.2512      6.2507      6.3046      6.4227      6.6144      6.8788    
  6.9905      7.1300      7.2842      7.4297      7.5361      7.5758      7.5369      7.4304      7.2837      7.1279    
  6.9876      6.8766      6.7999      6.7549      6.7337      6.7274      6.7328      6.7542      6.8006      6.8789    
  7.2006      7.1300      7.0913      7.0865      7.1036      7.1211      7.1215      7.1039      7.0853      7.0888    
  7.1282      7.2010      7.2903      7.3742      7.4354      7.4666      7.4665      7.4348      7.3725      7.2884    
  7.8379      7.5483      7.2843      7.0865      6.9661      6.9094      6.8942      6.9097      6.9659      7.0856    
  7.2842      7.5505      7.8415      8.1004      8.3297      8.5274      8.6095      8.5285      8.3297      8.0979    
  8.9662      8.3730      7.8751      7.4297      7.1035      6.9094      6.8245      6.8244      6.9093      7.1037    
  7.4308      7.8770      8.3749      8.9667      9.7957      10.677      11.251      11.252      10.679      9.7971    
  12.042      10.085      8.8559      8.1288      7.5360      7.1211      6.8943      6.8244      6.8936      7.1209    
  7.5369      8.1298      8.8553      10.083      12.039      14.325      16.174      16.885      16.175      14.327    
  18.919      14.609      11.210      9.2330      8.2673      7.5758      7.1216      6.9097      6.9093      7.1210    
  7.5759      8.2675      9.2320      11.208      14.607      18.919      22.956      25.398      25.397      22.954    
  30.067      23.199      16.664      11.923      9.3790      8.2674      7.5369      7.1039      6.9659      7.1038    
  7.5370      8.2675      9.3786      11.923      16.664      23.201      30.071      35.313      37.274      35.310    
  44.158      35.489      25.784      17.449      11.922      9.2320      8.1296      7.4304      7.0854      7.0856    
  7.4308      8.1297      9.2320      11.923      17.450      25.786      35.491      44.160      49.289      49.289    
  58.286      49.392      37.519      25.785      16.663      11.208      8.8559      7.8769      7.2837      7.0887    
  7.2842      7.8770      8.8554      11.208      16.664      25.786      37.518      49.389      58.284      61.590    
  68.822      61.628      49.393      35.492      23.201      14.607      10.084      8.3754      7.5502      7.1278    
  7.1281      7.5506      8.3750      10.083      14.607      23.201      35.491      49.389      61.623      68.820    
  46.028      43.545      36.884      28.073      19.535      13.143      9.5540      8.0583      7.2393      6.7425    
  6.5822      6.7426      7.2394      8.0582      9.5539      13.143      19.535      28.073      36.884      43.545    
  43.546      43.545      38.949      31.208      22.600      15.308      10.589      8.3641      7.3885      6.7462    
  6.4340      6.4338      6.7460      7.3888      8.3648      10.590      15.308      22.600      31.209      38.951    
  36.885      39.008      36.884      31.208      23.761      16.654      11.474      8.6793      7.4931      6.7524    
  6.3152      6.1757      6.3147      6.7521      7.4936      8.6799      11.474      16.653      23.761      31.209    
  28.073      31.359      31.359      28.073      22.600      16.654      11.823      8.8938      7.5491      6.7551    
  6.2293      5.9823      5.9822      6.2290      6.7549      7.5490      8.8934      11.822      16.653      22.599    
  19.534      22.848      24.103      22.849      19.535      15.308      11.474      8.8938      7.5674      6.7551    
  6.1775      5.8561      5.7567      5.8564      6.1776      6.7548      7.5670      8.8938      11.474      15.307    
  13.143      15.629      17.167      17.168      15.630      13.143      10.589      8.6794      7.5491      6.7551    
  6.1602      5.7945      5.6295      5.6298      5.7950      6.1603      6.7549      7.5495      8.6806      10.591    
  9.5551      10.948      12.098      12.546      12.098      10.947      9.5540      8.3641      7.4931      6.7550    
  6.1775      5.7945      5.5886      5.5257      5.5890      5.7947      6.1774      6.7549      7.4936      8.3652    
  8.0579      8.7237      9.3446      9.7351      9.7348      9.3438      8.7233      8.0583      7.3885      6.7523    
  6.2293      5.8562      5.6294      5.5256      5.5256      5.6293      5.8561      6.2289      6.7516      7.3877    
  7.2379      7.7309      8.1488      8.4268      8.5252      8.4263      8.1488      7.7319      7.2394      6.7462    
  6.3152      5.9824      5.7567      5.6297      5.5891      5.6294      5.7565      5.9826      6.3151      6.7452    
  6.7424      7.0722      7.3828      7.6257      7.7590      7.7589      7.6257      7.3833      7.0729      6.7425    
  6.4340      6.1758      5.9822      5.8564      5.7950      5.7947      5.8560      5.9825      6.1768      6.4347    
  6.5833      6.7523      6.9264      7.0825      7.1924      7.2323      7.1926      7.0825      6.9260      6.7514    
  6.5822      6.4338      6.3148      6.2289      6.1775      6.1604      6.1773      6.2289      6.3152      6.4348    
  6.7423      6.7522      6.7807      6.8245      6.8705      6.9005      6.9007      6.8708      6.8241      6.7798    
  6.7516      6.7425      6.7460      6.7521      6.7548      6.7548      6.7549      6.7549      6.7517      6.7453    
  7.2378      7.0722      6.9265      6.8245      6.7698      6.7492      6.7453      6.7497      6.7700      6.8243    
  6.9264      7.0731      7.2394      7.3889      7.4935      7.5490      7.5671      7.5495      7.4936      7.3877    
  8.0580      7.7309      7.3829      7.0825      6.8704      6.7492      6.6983      6.6983      6.7494      6.8706    
  7.0828      7.3834      7.7316      8.0583      8.3648      8.6799      8.8935      8.8938      8.6805      8.3651    
  9.5552      8.7237      8.1488      7.6257      7.1924      6.9005      6.7453      6.6983      6.7449      6.9002    
  7.1926      7.6259      8.1484      8.7226      9.5540      10.590      11.474      11.822      11.474      10.591    
  13.143      10.948      9.3445      8.4267      7.7590      7.2324      6.9008      6.7496      6.7493      6.9002    
  7.2322      7.7592      8.4264      9.3434      10.947      13.143      15.308      16.653      16.653      15.307    
  19.534      15.629      12.098      9.7352      8.5253      7.7589      7.1925      6.8707      6.7700      6.8707    
  7.1926      7.7591      8.5254      9.7351      12.098      15.630      19.535      22.600      23.761      22.599    
  28.072      22.847      17.167      12.546      9.7348      8.4263      7.6257      7.0825      6.8242      6.8243    
  7.0828      7.6259      8.4264      9.7351      12.546      17.168      22.848      28.073      31.209      31.209    
  36.885      31.359      24.103      17.168      12.098      9.3438      8.1488      7.3834      6.9261      6.7797    
  6.9264      7.3834      8.1484      9.3434      12.098      17.168      24.103      31.358      36.884      38.951    
  43.546      39.008      31.359      22.849      15.630      10.947      8.7234      7.7320      7.0730      6.7513    
  6.7515      7.0732      7.7316      8.7226      10.947      15.630      22.848      31.358      39.006      43.545    
  26.497      25.133      21.521      16.881      12.624      9.7100      8.2112      7.3594      6.7365      6.3801    
  6.2680      6.3802      6.7365      7.3594      8.2111      9.7100      12.624      16.881      21.521      25.133    
  25.133      25.133      22.616      18.464      14.038      10.552      8.5151      7.4995      6.7754      6.3041    
  6.0841      6.0840      6.3039      6.7756      7.5001      8.5156      10.552      14.038      18.464      22.616    
  21.521      22.681      21.521      18.464      14.586      11.102      8.7831      7.5811      6.7975      6.2383    