    2    2    1    1
  0.9731651E+01  0.2353300E-09  0.2353300E-09  0.4058180E-09  0.5000000E-15
  1.000000000000000E-004
  CAR 
 unknown system                          
     16     96     40
 
  0.0000000E+00  0.0000000E+00  0.0000000E+00  0.7513148E-03
    1       -1.738658   1.000000
    2        2.186745   1.000000
    3        5.220658   1.000000
    4        5.735663   1.000000
    5        5.735757   1.000000
    6        6.094454   1.000000
    7        6.094568   1.000000
    8        6.918781   1.001416
    9        6.979570   1.004772
   10        6.979596   1.004774
   11        8.211586  -0.000000
   12        8.211613  -0.000000
   13       15.442196   0.000000
   14       30.941126   0.000000
   15       32.041482   0.000000
   16       34.173617   0.000000
   17       36.453253   0.000000
   18       36.453315   0.000000
   19       37.275348   0.000000
   20       37.275517   0.000000
   21       39.175540   0.000000
   22       40.192473   0.000000
   23       40.192497   0.000000
   24       41.275705   0.000000
   25       44.095493   0.000000
   26       44.095504   0.000000
   27       45.291412   0.000000
   28       47.982201   0.000000
   29       47.982582   0.000000
   30       49.913702   0.000000
   31       49.913832   0.000000
   32       52.784790   0.000000
   33       60.810178   0.000000
   34       62.857943   0.000000
   35       62.858912   0.000000
   36       62.954346   0.000000
   37       64.150158   0.000000
   38       65.471847   0.000000
   39       65.473032   0.000000
   40       67.241275   0.000000
 
  0.9090909E-01 -0.6771466E-18  0.0000000E+00  0.4507889E-02
    1       -1.401316   1.000000
    2        2.433215   1.000000
    3        5.173326   1.000000
    4        5.723759   1.000000
    5        5.933536   1.000000
    6        5.934264   1.000000
    7        5.981838   1.000000
    8        6.277526   1.000000
    9        6.846939   1.000255
   10        6.859196   1.000349
   11        8.250833  -0.000000
   12        9.452016  -0.000000
   13       15.459934   0.000000
   14       29.733670   0.000000
   15       32.341142   0.000000
   16       32.453695   0.000000
   17       33.617530   0.000000
   18       36.032172   0.000000
   19       36.170370   0.000000
   20       38.950264   0.000000
   21       39.665973   0.000000
   22       40.204836   0.000000
   23       40.958164   0.000000
   24       40.964327   0.000000
   25       45.220533   0.000000
   26       45.375647   0.000000
   27       45.558520   0.000000
   28       45.649626   0.000000
   29       49.336146   0.000000
   30       51.356326   0.000000
   31       52.275105   0.000000
   32       54.570269   0.000000
   33       59.845885   0.000000
   34       61.780160   0.000000
   35       62.175995   0.000000
   36       62.577219   0.000000
   37       62.620659   0.000000
   38       66.195351   0.000000
   39       67.170633   0.000000
   40       67.475284   0.000000
 
  0.1818182E+00  0.5719215E-17  0.0000000E+00  0.4507889E-02
    1       -0.448004   1.000000
    2        3.011841   1.000000
    3        4.768540   1.000000
    4        4.894076   1.000000
    5        5.565159   1.000000
    6        6.170835   1.000000
    7        6.493458   1.000000
    8        6.509568   1.000000
    9        6.573464   1.000000
   10        6.788843   1.000052
   11        8.319928  -0.000000
   12       11.380812  -0.000000
   13       15.549505   0.000000
   14       26.040520   0.000000
   15       30.753064   0.000000
   16       31.222108   0.000000
   17       31.780585   0.000000
   18       33.136399   0.000000
   19       36.812397   0.000000
   20       38.200524   0.000000
   21       38.761505   0.000000
   22       38.828373   0.000000
   23       41.487125   0.000000
   24       42.743666   0.000000
   25       45.086488   0.000000
   26       46.173781   0.000000
   27       47.818289   0.000000
   28       50.139508   0.000000
   29       52.312720   0.000000
   30       54.662202   0.000000
   31       55.193066   0.000000
   32       57.952984   0.000000
   33       58.261486   0.000000
   34       59.322977   0.000000
   35       60.130469   0.000000
   36       61.594996   0.000000
   37       63.343293   0.000000
   38       67.021481   0.000000
   39       67.154033   0.000000
   40       68.684738   0.000000
 
  0.2727273E+00  0.9529451E-17  0.0000000E+00  0.4507889E-02
    1        0.901198   1.000000
    2        3.292614   1.000000
    3        3.866258   1.000000
    4        4.802714   1.000000
    5        5.398238   1.000000
    6        6.086713   1.000000
    7        6.250994   1.000000
    8        6.946092   1.002513
    9        7.285599   0.928926
   10        7.501594   0.152862
   11        8.367856  -0.000000
   12       13.533209   0.000000
   13       15.740403   0.000000
   14       22.050078   0.000000
   15       28.161275   0.000000
   16       28.276497   0.000000
   17       29.681457   0.000000
   18       32.782654   0.000000
   19       35.026074   0.000000
   20       38.214570   0.000000
   21       38.845069   0.000000
   22       38.984213   0.000000
   23       39.143152   0.000000
   24       43.180352   0.000000
   25       48.603636   0.000000
   26       50.339456   0.000000
   27       51.308443   0.000000
   28       52.967528   0.000000
   29       54.347712   0.000000
   30       55.182259   0.000000
   31       56.756285   0.000000
   32       58.167947   0.000000
   33       59.583559   0.000000
   34       60.242484   0.000000
   35       60.683775   0.000000
   36       62.346223   0.000000
   37       63.889490   0.000000
   38       66.808275   0.000000
   39       67.748092   0.000000
   40       68.212500   0.000000
 
  0.3636364E+00 -0.5381003E-18  0.0000000E+00  0.4507889E-02
    1        2.107606   1.000000
    2        3.028445   1.000000
    3        3.262321   1.000000
    4        5.017211   1.000000
    5        5.709729   1.000000
    6        5.752191   1.000000
    7        5.984878   1.000000
    8        8.083484  -0.000010
    9        8.200189  -0.000000
   10        8.224141  -0.000000
   11        8.387405  -0.000000
   12       15.487141   0.000000
   13       15.818643   0.000000
   14       19.269706   0.000000
   15       24.899378   0.000000
   16       26.384349   0.000000
   17       26.990363   0.000000
   18       31.813426   0.000000
   19       33.866948   0.000000
   20       37.093637   0.000000
   21       37.835856   0.000000
   22       39.940018   0.000000
   23       40.955200   0.000000
   24       43.606169   0.000000
   25       51.333557   0.000000
   26       52.087543   0.000000
   27       52.254081   0.000000
   28       55.479230   0.000000
   29       55.796868   0.000000
   30       56.541669   0.000000
   31       58.899691   0.000000
   32       59.515465   0.000000
   33       59.911407   0.000000
   34       60.785067   0.000000
   35       62.494206   0.000000
   36       64.172570   0.000000
   37       66.384559   0.000000
   38       66.999429   0.000000
   39       67.575210   0.000000
   40       67.831813   0.000000
 
  0.4545455E+00  0.1279716E-16  0.0000000E+00  0.4507889E-02
    1        2.576095   1.000000
    2        2.803777   1.000000
    3        2.960888   1.000000
    4        5.490192   1.000000
    5        5.550416   1.000000
    6        5.835365   1.000000
    7        6.003745   1.000000
    8        8.390206  -0.000000
    9        8.574052  -0.000000
   10        8.713665  -0.000000
   11        9.906647  -0.000000
   12       13.438182   0.000000
   13       17.968389   0.000000
   14       19.372250   0.000000
   15       22.271814   0.000000
   16       24.353234   0.000000
   17       25.323107   0.000000
   18       31.162887   0.000000
   19       33.501767   0.000000
   20       35.949796   0.000000
   21       37.628506   0.000000
   22       40.730179   0.000000
   23       43.147457   0.000000
   24       43.772883   0.000000
   25       47.961621   0.000000
   26       52.802147   0.000000
   27       54.026696   0.000000
   28       57.688840   0.000000
   29       58.463790   0.000000
   30       58.660157   0.000000
   31       59.966851   0.000000
   32       61.110796   0.000000
   33       61.122989   0.000000
   34       63.152760   0.000000
   35       63.296277   0.000000
   36       64.669856   0.000000
   37       66.102234   0.000000
   38       66.460145   0.000000
   39       67.322721   0.000000
   40       67.884004   0.000000
 
  0.9090909E-01  0.9090909E-01  0.0000000E+00  0.4507889E-02
    1       -0.753209   1.000000
    2        2.864254   1.000000
    3        4.945447   1.000000
    4        5.075801   1.000000
    5        5.765328   1.000000
    6        5.860626   1.000000
    7        6.343378   1.000000
    8        6.431845   1.000000
    9        6.676349   1.000001
   10        6.842951   1.000230
   11        8.274429  -0.000000
   12       10.846217  -0.000000
   13       15.519443   0.000000
   14       27.743531   0.000000
   15       29.116475   0.000000
   16       32.679079   0.000000
   17       33.366544   0.000000
   18       34.672214   0.000000
   19       35.072267   0.000000
   20       37.125620   0.000000
   21       38.467198   0.000000
   22       42.195673   0.000000
   23       42.514204   0.000000
   24       43.327559   0.000000
   25       44.186563   0.000000
   26       44.314607   0.000000
   27       44.480228   0.000000
   28       50.575357   0.000000
   29       52.875592   0.000000
   30       53.238157   0.000000
   31       53.324307   0.000000
   32       57.216633   0.000000
   33       58.715018   0.000000
   34       60.162106   0.000000
   35       60.721042   0.000000
   36       61.631097   0.000000
   37       62.721980   0.000000
   38       67.086974   0.000000
   39       67.322169   0.000000
   40       69.093172   0.000000
 
  0.1818182E+00  0.9090909E-01  0.0000000E+00  0.9015778E-02
    1        0.423558   1.000000
    2        3.411449   1.000000
    3        4.194704   1.000000
    4        4.592463   1.000000
    5        5.487955   1.000000
    6        6.001784   1.000000
    7        6.313753   1.000000
    8        6.587718   1.000000
    9        7.072104   1.019082
   10        7.415382   0.475814
   11        8.290499  -0.000000
   12       12.778674  -0.000000
   13       15.707139   0.000000
   14       24.078944   0.000000
   15       26.697256   0.000000
   16       29.937549   0.000000
   17       32.227596   0.000000
   18       32.518005   0.000000
   19       35.723009   0.000000
   20       36.660385   0.000000
   21       37.239735   0.000000
   22       41.948348   0.000000
   23       41.957707   0.000000
   24       42.862639   0.000000
   25       45.994426   0.000000
   26       46.943273   0.000000
   27       48.769930   0.000000
   28       53.258982   0.000000
   29       55.197871   0.000000
   30       56.070251   0.000000
   31       56.111876   0.000000
   32       58.317441   0.000000
   33       59.021788   0.000000
   34       59.442184   0.000000
   35       60.396480   0.000000
   36       60.706551   0.000000
   37       63.297166   0.000000
   38       67.000170   0.000000
   39       67.743734   0.000000
   40       68.853575   0.000000
 
  0.2727273E+00  0.9090909E-01  0.0000000E+00  0.9015778E-02
    1        1.790765   1.000000
    2        3.358404   1.000000
    3        3.527250   1.000000
    4        4.655298   1.000000
    5        5.556125   1.000000
    6        5.665266   1.000000
    7        6.209051   1.000000
    8        7.089007   1.022914
    9        7.878295  -0.002267
   10        8.296194  -0.000000
   11        8.381345  -0.000000
   12       14.967100   0.000000
   13       15.977414   0.000000
   14       20.426318   0.000000
   15       24.954971   0.000000
   16       26.598801   0.000000
   17       29.284191   0.000000
   18       31.000715   0.000000
   19       35.052755   0.000000
   20       36.146560   0.000000
   21       38.012488   0.000000
   22       41.620130   0.000000
   23       41.669129   0.000000
   24       44.254210   0.000000
   25       48.036516   0.000000
   26       50.758195   0.000000
   27       52.482927   0.000000
   28       53.392339   0.000000
   29       54.121482   0.000000
   30       56.973318   0.000000
   31       58.290855   0.000000
   32       59.420081   0.000000
   33       60.212343   0.000000
   34       60.455841   0.000000
   35       61.958419   0.000000
   36       63.626786   0.000000
   37       65.514520   0.000000
   38       66.622111   0.000000
   39       67.096746   0.000000
   40       68.911306   0.000000
 
  0.3636364E+00  0.9090909E-01  0.0000000E+00  0.9015778E-02
    1        2.650654   1.000000
    2        3.049076   1.000000
    3        3.122735   1.000000
    4        5.078352   1.000000
    5        5.483976   1.000000
    6        5.860441   1.000000
    7        5.913973   1.000000
    8        8.006867  -0.000101
    9        8.290137  -0.000000
   10        8.445200  -0.000000
   11        9.623032  -0.000000
   12       14.900739   0.000000
   13       17.258446   0.000000
   14       19.141247   0.000000
   15       23.605594   0.000000
   16       23.624190   0.000000
   17       26.086931   0.000000
   18       30.075160   0.000000
   19       34.071994   0.000000
   20       35.599557   0.000000
   21       38.882057   0.000000
   22       42.028172   0.000000
   23       42.995004   0.000000
   24       44.129563   0.000000
   25       49.902919   0.000000
   26       50.845258   0.000000
   27       53.032599   0.000000
   28       54.624873   0.000000
   29       56.222136   0.000000
   30       58.374364   0.000000
   31       58.791749   0.000000
   32       60.389915   0.000000
   33       61.241878   0.000000
   34       63.353277   0.000000
   35       63.930062   0.000000
   36       65.003156   0.000000
   37       65.200180   0.000000
   38       66.976098   0.000000
   39       68.048321   0.000000
   40       68.385961   0.000000
 
  0.4545455E+00  0.9090909E-01  0.0000000E+00  0.4507889E-02
    1        2.785459   1.000000
    2        2.967767   1.000000
    3        2.988039   1.000000
    4        5.446047   1.000000
    5        5.449830   1.000000
    6        5.702543   1.000000
    7        6.042424   1.000000
    8        8.286020  -0.000000
    9        8.523373  -0.000000
   10        8.542549  -0.000000
   11       10.877013  -0.000000
   12       13.111305   0.000000
   13       18.811387   0.000000
   14       19.817363   0.000000
   15       21.846045   0.000000
   16       22.836814   0.000000
   17       24.579641   0.000000
   18       29.756331   0.000000
   19       33.669294   0.000000
   20       35.422093   0.000000
   21       39.023295   0.000000
   22       42.882004   0.000000
   23       43.118030   0.000000
   24       44.828454   0.000000
   25       47.612723   0.000000
   26       52.742183   0.000000
   27       52.933999   0.000000
   28       55.820697   0.000000
   29       57.676877   0.000000
   30       57.935599   0.000000
   31       61.277790   0.000000
   32       61.304906   0.000000
   33       61.403387   0.000000
   34       61.424794   0.000000
   35       64.133448   0.000000
   36       66.623626   0.000000
   37       66.795118   0.000000
   38       66.948845   0.000000
   39       67.292564   0.000000
   40       69.527012   0.000000
 
  0.1818182E+00  0.1818182E+00  0.0000000E+00  0.4507889E-02
    1        1.693444   1.000000
    2        3.683026   1.000000
    3        3.849971   1.000000
    4        4.125328   1.000000
    5        5.551006   1.000000
    6        5.551412   1.000000
    7        6.369150   1.000000
    8        6.573855   1.000000
    9        7.854134  -0.003654
   10        8.200338  -0.000000
   11        8.445107  -0.000000
   12       14.695167   0.000000
   13       16.151530   0.000000
   14       22.063278   0.000000
   15       22.895585   0.000000
   16       28.054503   0.000000
   17       29.598608   0.000000
   18       31.607977   0.000000
   19       32.392481   0.000000
   20       37.724687   0.000000
   21       38.846705   0.000000
   22       42.754322   0.000000
   23       42.986733   0.000000
   24       45.373385   0.000000
   25       45.991989   0.000000
   26       48.075879   0.000000
   27       49.583648   0.000000
   28       54.859114   0.000000
   29       54.945831   0.000000
   30       56.794184   0.000000
   31       56.917379   0.000000
   32       59.798137   0.000000
   33       59.830795   0.000000
   34       62.523233   0.000000
   35       62.530433   0.000000
   36       62.810570   0.000000
   37       62.937852   0.000000
   38       66.760426   0.000000
   39       67.055611   0.000000
   40       69.958332   0.000000
 
  0.2727273E+00  0.1818182E+00  0.0000000E+00  0.9015778E-02
    1        2.901264   1.000000
    2        3.338111   1.000000
    3        3.585556   1.000000
    4        4.317779   1.000000
    5        5.305223   1.000000
    6        5.836153   1.000000
    7        5.972758   1.000000
    8        7.145393   1.034201
    9        8.122055  -0.000003
   10        8.392966  -0.000000
   11        9.750542  -0.000000
   12       16.512614   0.000000
   13       16.913044   0.000000
   14       19.289593   0.000000
   15       21.263583   0.000000
   16       25.492080   0.000000
   17       27.951635   0.000000
   18       28.186740   0.000000
   19       31.052830   0.000000
   20       39.323454   0.000000
   21       39.776658   0.000000
   22       42.987359   0.000000
   23       45.037989   0.000000
   24       45.947919   0.000000
   25       47.542122   0.000000
   26       49.316543   0.000000
   27       50.832445   0.000000
   28       52.602752   0.000000
   29       55.749606   0.000000
   30       56.354784   0.000000
   31       58.222206   0.000000
   32       60.283639   0.000000
   33       61.583771   0.000000
   34       62.713494   0.000000
   35       64.767155   0.000000
   36       64.976544   0.000000
   37       66.212372   0.000000
   38       67.266514   0.000000
   39       68.245797   0.000000
   40       69.527158   0.000000
 
  0.3636364E+00  0.1818182E+00  0.0000000E+00  0.9015778E-02
    1        3.171319   1.000000
    2        3.281389   1.000000
    3        3.404885   1.000000
    4        4.818203   1.000000
    5        5.316012   1.000000
    6        5.570947   1.000000
    7        6.110555   1.000000
    8        7.852835  -0.003745
    9        8.077956  -0.000012
   10        8.434009  -0.000000
   11       11.380399  -0.000000
   12       14.517170   0.000000
   13       19.175295   0.000000
   14       19.619978   0.000000
   15       20.528028   0.000000
   16       22.842390   0.000000
   17       25.273836   0.000000
   18       27.325179   0.000000
   19       30.395616   0.000000
   20       39.203112   0.000000
   21       41.454606   0.000000
   22       43.496109   0.000000
   23       45.162583   0.000000
   24       45.890602   0.000000
   25       49.813320   0.000000
   26       49.813453   0.000000
   27       51.923171   0.000000
   28       52.128688   0.000000
   29       55.933354   0.000000
   30       57.039833   0.000000
   31       57.482875   0.000000
   32       60.719470   0.000000
   33       61.196167   0.000000
   34       61.760271   0.000000
   35       65.996381   0.000000
   36       66.288707   0.000000
   37       67.882807   0.000000
   38       68.246402   0.000000
   39       68.490249   0.000000
   40       69.073010   0.000000
 
  0.2727273E+00  0.2727273E+00  0.0000000E+00  0.4507889E-02
    1        3.298388   1.000000
    2        3.663590   1.000000
    3        4.011377   1.000000
    4        4.017730   1.000000
    5        5.150265   1.000000
    6        5.589353   1.000000
    7        6.159925   1.000000
    8        7.420281   0.455147
    9        7.969766  -0.000273
   10        8.406039  -0.000000
   11       11.511059  -0.000000
   12       16.660670   0.000000
   13       17.169724   0.000000
   14       19.206275   0.000000
   15       20.459481   0.000000
   16       24.784749   0.000000
   17       24.971884   0.000000
   18       26.963385   0.000000
   19       27.869322   0.000000
   20       41.331068   0.000000
   21       42.334078   0.000000
   22       45.295278   0.000000
   23       46.295085   0.000000
   24       47.543441   0.000000
   25       47.653056   0.000000
   26       47.872562   0.000000
   27       50.540429   0.000000
   28       53.107736   0.000000
   29       53.463158   0.000000
   30       56.448538   0.000000
   31       57.366083   0.000000
   32       59.867266   0.000000
   33       61.072810   0.000000
   34       61.931882   0.000000
   35       65.681264   0.000000
   36       66.767808   0.000000
   37       66.865155   0.000000
   38       68.522788   0.000000
   39       69.274847   0.000000
   40       69.807670   0.000000
 
  0.3636364E+00  0.2727273E+00  0.0000000E+00  0.4507889E-02
    1        3.308201   1.000000
    2        3.813056   1.000000
    3        3.857922   1.000000
    4        4.373589   1.000000
    5        5.217569   1.000000
    6        5.296834   1.000000
    7        6.313472   1.000000
    8        7.796292  -0.009863
    9        7.911203  -0.001119
   10        8.103527  -0.000005
   11       13.281976   0.000000
   12       14.630521   0.000000
   13       16.787348   0.000000
   14       21.197183   0.000000
   15       21.425325   0.000000
   16       22.655672   0.000000
   17       24.631135   0.000000
   18       25.332422   0.000000
   19       27.250113   0.000000
   20       41.766898   0.000000
   21       44.480211   0.000000
   22       45.598100   0.000000
   23       46.009575   0.000000
   24       46.870793   0.000000
   25       48.525427   0.000000
   26       48.929181   0.000000
   27       51.865708   0.000000
   28       52.093053   0.000000
   29       52.393788   0.000000
   30       55.863189   0.000000
   31       57.372247   0.000000
   32       57.873773   0.000000
   33       60.959438   0.000000
   34       61.376136   0.000000
   35       66.175109   0.000000
   36       66.957732   0.000000
   37       68.777369   0.000000
   38       68.903077   0.000000
   39       68.905000   0.000000
   40       69.091621   0.000000
 
  0.0000000E+00  0.0000000E+00  0.9090909E-01  0.1502630E-02
    1       -1.653400   1.000000
    2        2.161762   1.000000
    3        5.195361   1.000000
    4        5.722882   1.000000
    5        5.722975   1.000000
    6        6.073326   1.000000
    7        6.073439   1.000000
    8        6.679746   1.000002
    9        7.026153   1.010339
   10        7.026181   1.010343
   11        8.202838  -0.000000
   12        8.202866  -0.000000
   13       15.840565   0.000000
   14       30.671302   0.000000
   15       31.757176   0.000000
   16       33.988607   0.000000
   17       36.505328   0.000000
   18       36.505383   0.000000
   19       37.286414   0.000000
   20       37.286578   0.000000
   21       39.592496   0.000000
   22       40.107933   0.000000
   23       40.107951   0.000000
   24       41.548899   0.000000
   25       43.737454   0.000000
   26       43.737469   0.000000
   27       45.577256   0.000000
   28       48.253360   0.000000
   29       48.253721   0.000000
   30       50.350285   0.000000
   31       50.350405   0.000000
   32       52.654939   0.000000
   33       60.006378   0.000000
   34       62.630213   0.000000
   35       62.631133   0.000000
   36       63.102838   0.000000
   37       64.080923   0.000000
   38       64.081541   0.000000
   39       65.063314   0.000000
   40       67.421464   0.000000
 
  0.9090909E-01 -0.6771466E-18  0.9090909E-01  0.9015778E-02
    1       -1.318065   1.000000
    2        2.413064   1.000000
    3        5.167358   1.000000
    4        5.677409   1.000000
    5        5.725021   1.000000
    6        5.916483   1.000000
    7        6.063213   1.000000
    8        6.254212   1.000000
    9        6.899971   1.000930
   10        6.914733   1.001296
   11        8.237622  -0.000000
   12        9.282745  -0.000000
   13       15.892935   0.000000
   14       29.718864   0.000000
   15       31.710335   0.000000
   16       32.510248   0.000000
   17       33.696982   0.000000
   18       35.329861   0.000000
   19       36.809304   0.000000
   20       39.094929   0.000000
   21       39.339634   0.000000
   22       40.308439   0.000000
   23       40.888934   0.000000
   24       41.446828   0.000000
   25       44.833956   0.000000
   26       45.151829   0.000000
   27       46.183206   0.000000
   28       46.206368   0.000000
   29       49.212572   0.000000
   30       51.663068   0.000000
   31       52.630909   0.000000
   32       54.510814   0.000000
   33       58.704804   0.000000
   34       61.305944   0.000000
   35       62.119085   0.000000
   36       62.724024   0.000000
   37       63.478281   0.000000
   38       65.097530   0.000000
   39       66.306671   0.000000
   40       67.430056   0.000000
 
  0.1818182E+00  0.5719215E-17  0.9090909E-01  0.9015778E-02
    1       -0.372943   1.000000
    2        3.007036   1.000000
    3        4.675506   1.000000
    4        4.914529   1.000000
    5        5.530478   1.000000
    6        6.069503   1.000000
    7        6.404396   1.000000
    8        6.654677   1.000001
    9        6.662399   1.000001
   10        6.808157   1.000090
   11        8.301719  -0.000000
   12       11.015416  -0.000000
   13       16.106944   0.000000
   14       26.100119   0.000000
   15       30.732692   0.000000
   16       30.849336   0.000000
   17       32.088235   0.000000
   18       32.597182   0.000000
   19       36.644197   0.000000
   20       38.060288   0.000000
   21       38.331520   0.000000
   22       39.377138   0.000000
   23       41.852184   0.000000
   24       43.411014   0.000000
   25       45.377867   0.000000
   26       46.169631   0.000000
   27       47.605452   0.000000
   28       50.193589   0.000000
   29       52.185321   0.000000
   30       54.748560   0.000000
   31       55.517289   0.000000
   32       56.870936   0.000000
   33       57.741466   0.000000
   34       59.636947   0.000000
   35       60.645965   0.000000
   36       61.763995   0.000000
   37       63.381068   0.000000
   38       66.191081   0.000000
   39       67.562895   0.000000
   40       68.286400   0.000000
 
  0.2727273E+00  0.9529451E-17  0.9090909E-01  0.9015778E-02
    1        0.952655   1.000000
    2        3.299880   1.000000
    3        3.834995   1.000000
    4        4.814929   1.000000
    5        5.342238   1.000000
    6        6.111262   1.000000
    7        6.274537   1.000000
    8        6.985803   1.005336
    9        7.298233   0.899861
   10        7.482843   0.212136
   11        8.344096  -0.000000
   12       12.820567  -0.000000
   13       16.588826   0.000000
   14       22.120180   0.000000
   15       27.679121   0.000000
   16       28.390935   0.000000
   17       30.046865   0.000000
   18       32.584280   0.000000
   19       34.999628   0.000000
   20       37.167690   0.000000
   21       37.623006   0.000000
   22       39.999677   0.000000
   23       40.217356   0.000000
   24       44.051901   0.000000
   25       48.723120   0.000000
   26       50.191417   0.000000
   27       50.958107   0.000000
   28       51.527882   0.000000
   29       55.015816   0.000000
   30       55.588015   0.000000
   31       57.062640   0.000000
   32       58.564150   0.000000
   33       59.249008   0.000000
   34       59.319484   0.000000
   35       61.333362   0.000000
   36       62.194007   0.000000
   37       64.132204   0.000000
   38       66.623851   0.000000
   39       67.036600   0.000000
   40       68.227426   0.000000
 
  0.3636364E+00 -0.5381003E-18  0.9090909E-01  0.9015778E-02
    1        2.094050   1.000000
    2        2.999269   1.000000
    3        3.355869   1.000000
    4        4.811812   1.000000
    5        5.755697   1.000000
    6        5.970711   1.000000
    7        6.022514   1.000000
    8        8.088416  -0.000009
    9        8.156856  -0.000001
   10        8.160216  -0.000001
   11        8.394510  -0.000000
   12       14.224539   0.000000
   13       17.056500   0.000000
   14       19.417903   0.000000
   15       24.462833   0.000000
   16       26.511305   0.000000
   17       27.437790   0.000000
   18       31.774376   0.000000
   19       33.844800   0.000000
   20       35.895374   0.000000
   21       38.704141   0.000000
   22       39.064091   0.000000
   23       41.322882   0.000000
   24       44.684061   0.000000
   25       49.671235   0.000000
   26       52.164153   0.000000
   27       53.518260   0.000000
   28       54.548057   0.000000
   29       55.717677   0.000000
   30       57.404726   0.000000
   31       58.587962   0.000000
   32       59.369938   0.000000
   33       60.427246   0.000000
   34       60.659006   0.000000
   35       62.559906   0.000000
   36       64.116377   0.000000
   37       66.118569   0.000000
   38       66.396349   0.000000
   39       67.817620   0.000000
   40       68.038434   0.000000
 
  0.4545455E+00  0.1279716E-16  0.9090909E-01  0.9015778E-02
    1        2.492995   1.000000
    2        2.687770   1.000000
    3        3.228483   1.000000
    4        4.894962   1.000000
    5        5.878571   1.000000
    6        5.983604   1.000000
    7        6.251889   1.000000
    8        8.317084  -0.000000
    9        8.582597  -0.000000
   10        8.716085  -0.000000
   11        9.813808  -0.000000
   12       13.254524   0.000000
   13       17.778002   0.000000
   14       19.438072   0.000000
   15       22.380010   0.000000
   16       24.768004   0.000000
   17       25.460301   0.000000
   18       31.164456   0.000000
   19       33.483040   0.000000
   20       35.024348   0.000000
   21       38.611059   0.000000