       N       E                     dE             d eps       ncg     rms          rms(c)
DAV:   1     0.602107666687E+02    0.60211E+02   -0.25576E+03  9272   0.324E+02
DAV:   2    -0.149275657459E+02   -0.75138E+02   -0.63906E+02  7952   0.958E+01
DAV:   3    -0.191452320967E+02   -0.42177E+01   -0.40345E+01  9592   0.238E+01
DAV:   4    -0.191624934643E+02   -0.17261E-01   -0.17253E-01  9032   0.160E+00
DAV:   5    -0.191625099386E+02   -0.16474E-04   -0.16474E-04  9216   0.463E-02    0.178E+01
DAV:   6    -0.163296429643E+02    0.28329E+01   -0.16308E+00 11184   0.242E+01    0.191E+00
DAV:   7    -0.161688377218E+02    0.16081E+00   -0.97143E-02 10088   0.474E+00    0.113E+00
DAV:   8    -0.161400812630E+02    0.28756E-01   -0.27678E-03  9920   0.342E-01    0.521E-01
DAV:   9    -0.161296130877E+02    0.10468E-01   -0.94294E-04 10800   0.173E-01    0.586E-02
DAV:  10    -0.161296329173E+02   -0.19830E-04   -0.32913E-05  8696   0.228E-02    0.222E-02
DAV:  11    -0.161296236287E+02    0.92887E-05   -0.22329E-07  8536   0.554E-03    0.163E-03
DAV:  12    -0.161296229101E+02    0.71853E-06   -0.63532E-08  6032   0.144E-03
   1 F= -.16129623E+02 E0= -.16130053E+02  d E =0.129086E-02
