unknown system                          
   1.00000000000000     
     3.660947    0.000000    0.000000
     0.000000    3.660947    0.000000
     0.000000    0.000000    3.660947
   Fe
     4
Direct
  0.000000  0.000000  0.000000
  0.500000  0.500000  0.000000
  0.500000  0.000000  0.500000
  0.000000  0.500000  0.500000
 
   32   32   32
  414.25      393.20      336.50      259.92      180.93      112.85      63.040      33.267      19.965      15.309    
  12.525      10.689      9.5707      8.9293      8.5203      8.2199      8.0957      8.2199      8.5203      8.9293    
  9.5707      10.689      12.525      15.309      19.965      33.267      63.040      112.85      180.93      259.92    
  336.50      393.20      393.20      373.20      319.32      246.50      171.40      106.78      59.739      31.878    
  19.593      15.214      12.508      10.731      9.6480      9.0255      8.6286      8.3391      8.2199      8.3391    
  8.6286      9.0255      9.6480      10.731      12.508      15.214      19.593      31.878      59.739      106.78    
  171.40      246.50      319.32      373.20      336.50      319.32      272.98      210.29      145.73      90.554    
  51.040      28.321      18.679      14.949      12.465      10.844      9.8519      9.2708      8.8964      8.6286    
  8.5203      8.6286      8.8964      9.2708      9.8519      10.844      12.465      14.949      18.679      28.321    
  51.040      90.554      145.73      210.29      272.98      319.32      259.92      246.50      210.29      161.36    
  111.25      69.132      39.942      24.057      17.641      14.572      12.422      11.025      10.155      9.6230    
  9.2708      9.0255      8.9293      9.0255      9.2708      9.6230      10.155      11.025      12.422      14.572    
  17.641      24.057      39.942      69.132      111.25      161.36      210.29      246.50      180.93      171.40    
  145.73      111.25      76.516      48.253      29.767      20.523      16.686      14.170      12.436      11.314    
  10.604      10.155      9.8519      9.6480      9.5707      9.6480      9.8519      10.155      10.604      11.314    
  12.436      14.170      16.686      20.523      29.767      48.253      76.516      111.25      145.73      171.40    
  112.85      106.78      90.554      69.132      48.253      32.235      22.688      18.274      15.741      13.845    
  12.584      11.795      11.314      11.025      10.844      10.731      10.689      10.731      10.844      11.025    
  11.314      11.795      12.584      13.845      15.741      18.274      22.688      32.235      48.253      69.132    
  90.554      106.78      63.040      59.739      51.040      39.942      29.767      22.688      18.892      16.685    
  14.924      13.700      12.965      12.584      12.436      12.422      12.465      12.508      12.525      12.508    
  12.465      12.422      12.436      12.584      12.965      13.700      14.924      16.685      18.892      22.688    
  29.767      39.942      51.040      59.739      33.267      31.878      28.321      24.057      20.523      18.274    
  16.685      15.333      14.370      13.843      13.700      13.845      14.170      14.572      14.949      15.214    
  15.309      15.214      14.949      14.572      14.170      13.845      13.700      13.843      14.370      15.333    
  16.685      18.274      20.523      24.057      28.321      31.878      19.965      19.593      18.679      17.641    
  16.686      15.741      14.924      14.370      14.175      14.370      14.924      15.741      16.686      17.641    
  18.679      19.593      19.965      19.593      18.679      17.641      16.686      15.741      14.924      14.370    
  14.175      14.370      14.924      15.741      16.686      17.641      18.679      19.593      15.309      15.214    
  14.949      14.572      14.170      13.845      13.700      13.843      14.370      15.333      16.685      18.274    
  20.523      24.057      28.321      31.878      33.267      31.878      28.321      24.057      20.523      18.274    
  16.685      15.333      14.370      13.843      13.700      13.845      14.170      14.572      14.949      15.214    
  12.525      12.508      12.465      12.422      12.436      12.584      12.965      13.700      14.924      16.685    
  18.892      22.688      29.767      39.942      51.040      59.739      63.040      59.739      51.040      39.942    
  29.767      22.688      18.892      16.685      14.924      13.700      12.965      12.584      12.436      12.422    
  12.465      12.508      10.689      10.731      10.844      11.025      11.314      11.795      12.584      13.845    
  15.741      18.274      22.688      32.235      48.253      69.132      90.554      106.78      112.85      106.78    
  90.554      69.132      48.253      32.235      22.688      18.274      15.741      13.845      12.584      11.795    
  11.314      11.025      10.844      10.731      9.5707      9.6480      9.8519      10.155      10.604      11.314    
  12.436      14.170      16.686      20.523      29.767      48.253      76.516      111.25      145.73      171.40    
  180.93      171.40      145.73      111.25      76.516      48.253      29.767      20.523      16.686      14.170    
  12.436      11.314      10.604      10.155      9.8519      9.6480      8.9293      9.0255      9.2708      9.6230    
  10.155      11.025      12.422      14.572      17.641      24.057      39.942      69.132      111.25      161.36    
  210.29      246.50      259.92      246.50      210.29      161.36      111.25      69.132      39.942      24.057    
  17.641      14.572      12.422      11.025      10.155      9.6230      9.2708      9.0255      8.5203      8.6286    
  8.8964      9.2708      9.8519      10.844      12.465      14.949      18.679      28.321      51.040      90.554    
  145.73      210.29      272.98      319.32      336.50      319.32      272.98      210.29      145.73      90.554    
  51.040      28.321      18.679      14.949      12.465      10.844      9.8519      9.2708      8.8964      8.6286    
  8.2199      8.3391      8.6286      9.0255      9.6480      10.731      12.508      15.214      19.593      31.878    
  59.739      106.78      171.40      246.50      319.32      373.20      393.20      373.20      319.32      246.50    
  171.40      106.78      59.739      31.878      19.593      15.214      12.508      10.731      9.6480      9.0255    
  8.6286      8.3391      8.0957      8.2199      8.5203      8.9293      9.5707      10.689      12.525      15.309    
  19.965      33.267      63.040      112.85      180.93      259.92      336.50      393.20      414.25      393.20    
  336.50      259.92      180.93      112.85      63.040      33.267      19.965      15.309      12.525      10.689    
  9.5707      8.9293      8.5203      8.2199      8.2199      8.3391      8.6286      9.0255      9.6480      10.731    
  12.508      15.214      19.593      31.878      59.739      106.78      171.40      246.50      319.32      373.20    
  393.20      373.20      319.32      246.50      171.40      106.78      59.739      31.878      19.593      15.214    
  12.508      10.731      9.6480      9.0255      8.6286      8.3391      8.5203      8.6286      8.8964      9.2708    
  9.8519      10.844      12.465      14.949      18.679      28.321      51.040      90.554      145.73      210.29    
  272.98      319.32      336.50      319.32      272.98      210.29      145.73      90.554      51.040      28.321    
  18.679      14.949      12.465      10.844      9.8519      9.2708      8.8964      8.6286      8.9293      9.0255    
  9.2708      9.6230      10.155      11.025      12.422      14.572      17.641      24.057      39.942      69.132    
  111.25      161.36      210.29      246.50      259.92      246.50      210.29      161.36      111.25      69.132    
  39.942      24.057      17.641      14.572      12.422      11.025      10.155      9.6230      9.2708      9.0255    
  9.5707      9.6480      9.8519      10.155      10.604      11.314      12.436      14.170      16.686      20.523    
  29.767      48.253      76.516      111.25      145.73      171.40      180.93      171.40      145.73      111.25    
  76.516      48.253      29.767      20.523      16.686      14.170      12.436      11.314      10.604      10.155    
  9.8519      9.6480      10.689      10.731      10.844      11.025      11.314      11.795      12.584      13.845    
  15.741      18.274      22.688      32.235      48.253      69.132      90.554      106.78      112.85      106.78    
  90.554      69.132      48.253      32.235      22.688      18.274      15.741      13.845      12.584      11.795    
  11.314      11.025      10.844      10.731      12.525      12.508      12.465      12.422      12.436      12.584    
  12.965      13.700      14.924      16.685      18.892      22.688      29.767      39.942      51.040      59.739    
  63.040      59.739      51.040      39.942      29.767      22.688      18.892      16.685      14.924      13.700    
  12.965      12.584      12.436      12.422      12.465      12.508      15.309      15.214      14.949      14.572    
  14.170      13.845      13.700      13.843      14.370      15.333      16.685      18.274      20.523      24.057    
  28.321      31.878      33.267      31.878      28.321      24.057      20.523      18.274      16.685      15.333    
  14.370      13.843      13.700      13.845      14.170      14.572      14.949      15.214      19.965      19.593    
  18.679      17.641      16.686      15.741      14.924      14.370      14.175      14.370      14.924      15.741    
  16.686      17.641      18.679      19.593      19.965      19.593      18.679      17.641      16.686      15.741    
  14.924      14.370      14.175      14.370      14.924      15.741      16.686      17.641      18.679      19.593    
  33.267      31.878      28.321      24.057      20.523      18.274      16.685      15.333      14.370      13.843    
  13.700      13.845      14.170      14.572      14.949      15.214      15.309      15.214      14.949      14.572    
  14.170      13.845      13.700      13.843      14.370      15.333      16.685      18.274      20.523      24.057    
  28.321      31.878      63.040      59.739      51.040      39.942      29.767      22.688      18.892      16.685    
  14.924      13.700      12.965      12.584      12.436      12.422      12.465      12.508      12.525      12.508    
  12.465      12.422      12.436      12.584      12.965      13.700      14.924      16.685      18.892      22.688    
  29.767      39.942      51.040      59.739      112.85      106.78      90.554      69.132      48.253      32.235    
  22.688      18.274      15.741      13.845      12.584      11.795      11.314      11.025      10.844      10.731    
  10.689      10.731      10.844      11.025      11.314      11.795      12.584      13.845      15.741      18.274    
  22.688      32.235      48.253      69.132      90.554      106.78      180.93      171.40      145.73      111.25    
  76.516      48.253      29.767      20.523      16.686      14.170      12.436      11.314      10.604      10.155    
  9.8519      9.6480      9.5707      9.6480      9.8519      10.155      10.604      11.314      12.436      14.170    
  16.686      20.523      29.767      48.253      76.516      111.25      145.73      171.40      259.92      246.50    
  210.29      161.36      111.25      69.132      39.942      24.057      17.641      14.572      12.422      11.025    
  10.155      9.6230      9.2708      9.0255      8.9293      9.0255      9.2708      9.6230      10.155      11.025    
  12.422      14.572      17.641      24.057      39.942      69.132      111.25      161.36      210.29      246.50    
  336.50      319.32      272.98      210.29      145.73      90.554      51.040      28.321      18.679      14.949    
  12.465      10.844      9.8519      9.2708      8.8964      8.6286      8.5203      8.6286      8.8964      9.2708    
  9.8519      10.844      12.465      14.949      18.679      28.321      51.040      90.554      145.73      210.29    
  272.98      319.32      393.20      373.20      319.32      246.50      171.40      106.78      59.739      31.878    
  19.593      15.214      12.508      10.731      9.6480      9.0255      8.6286      8.3391      8.2199      8.3391    
  8.6286      9.0255      9.6480      10.731      12.508      15.214      19.593      31.878      59.739      106.78    
  171.40      246.50      319.32      373.20      393.20      373.20      319.32      246.50      171.40      106.78    
  59.739      31.878      19.593      15.214      12.508      10.731      9.6480      9.0255      8.6286      8.3391    
  8.2199      8.3391      8.6286      9.0255      9.6480      10.731      12.508      15.214      19.593      31.878    
  59.739      106.78      171.40      246.50      319.32      373.20      373.20      354.21      302.99      233.75    
  162.35      101.04      56.638      30.589      19.253      15.119      12.490      10.770      9.7218      9.1177    
  8.7324      8.4534      8.3391      8.4534      8.7324      9.1177      9.7218      10.770      12.490      15.119    
  19.253      30.589      56.638      101.04      162.35      233.75      302.99      354.21      319.32      302.99    
  258.94      199.34      137.99      85.705      48.479      27.296      18.413      14.854      12.444      10.877    
  9.9173      9.3538      8.9906      8.7324      8.6286      8.7324      8.9906      9.3538      9.9173      10.877    
  12.444      14.854      18.413      27.296      48.479      85.705      137.99      199.34      258.94      302.99    
  246.50      233.75      199.34      152.84      105.31      65.499      38.103      23.367      17.448      14.479    
  12.398      11.049      10.209      9.6945      9.3538      9.1177      9.0255      9.1177      9.3538      9.6945    
  10.209      11.049      12.398      14.479      17.448      23.367      38.103      65.499      105.31      152.84    
  199.34      233.75      171.40      162.35      137.99      105.31      72.470      45.882      28.645      20.126    
  16.519      14.080      12.406      11.326      10.642      10.209      9.9173      9.7218      9.6480      9.7218    
  9.9173      10.209      10.642      11.326      12.406      14.080      16.519      20.126      28.645      45.882    
  72.470      105.31      137.99      162.35      106.78      101.04      85.705      65.499      45.882      30.936    
  22.121      18.043      15.590      13.758      12.546      11.788      11.326      11.049      10.877      10.770    
  10.731      10.770      10.877      11.049      11.326      11.788      12.546      13.758      15.590      18.043    
  22.121      30.936      45.882      65.499      85.705      101.04      59.739      56.638      48.479      38.103    
  28.645      22.121      18.625      16.496      14.792      13.614      12.909      12.546      12.406      12.398    
  12.444      12.490      12.508      12.490      12.444      12.398      12.406      12.546      12.909      13.614    
  14.792      16.496      18.625      22.121      28.645      38.103      48.479      56.638      31.878      30.589    
  27.296      23.367      20.126      18.043      16.496      15.183      14.254      13.748      13.614      13.758    
  14.080      14.479      14.854      15.119      15.214      15.119      14.854      14.479      14.080      13.758    
  13.614      13.748      14.254      15.183      16.496      18.043      20.126      23.367      27.296      30.589    
  19.593      19.253      18.413      17.448      16.519      15.590      14.792      14.254      14.064      14.254    
  14.792      15.590      16.519      17.448      18.413      19.253      19.593      19.253      18.413      17.448    
  16.519      15.590      14.792      14.254      14.064      14.254      14.792      15.590      16.519      17.448    
  18.413      19.253      15.214      15.119      14.854      14.479      14.080      13.758      13.614      13.748    
  14.254      15.183      16.496      18.043      20.126      23.367      27.296      30.589      31.878      30.589    
  27.296      23.367      20.126      18.043      16.496      15.183      14.254      13.748      13.614      13.758    
  14.080      14.479      14.854      15.119      12.508      12.490      12.444      12.398      12.406      12.546    
  12.909      13.614      14.792      16.496      18.625      22.121      28.645      38.103      48.479      56.638    
  59.739      56.638      48.479      38.103      28.645      22.121      18.625      16.496      14.792      13.614    
  12.909      12.546      12.406      12.398      12.444      12.490      10.731      10.770      10.877      11.049    
  11.326      11.788      12.546      13.758      15.590      18.043      22.121      30.936      45.882      65.499    
  85.705      101.04      106.78      101.04      85.705      65.499      45.882      30.936      22.121      18.043    
  15.590      13.758      12.546      11.788      11.326      11.049      10.877      10.770      9.6480      9.7218    
  9.9173      10.209      10.642      11.326      12.406      14.080      16.519      20.126      28.645      45.882    
  72.470      105.31      137.99      162.35      171.40      162.35      137.99      105.31      72.470      45.882    
  28.645      20.126      16.519      14.080      12.406      11.326      10.642      10.209      9.9173      9.7218    
  9.0255      9.1177      9.3538      9.6945      10.209      11.049      12.398      14.479      17.448      23.367    
  38.103      65.499      105.31      152.84      199.34      233.75      246.50      233.75      199.34      152.84    
  105.31      65.499      38.103      23.367      17.448      14.479      12.398      11.049      10.209      9.6945    
  9.3538      9.1177      8.6286      8.7324      8.9906      9.3538      9.9173      10.877      12.444      14.854    
  18.413      27.296      48.479      85.705      137.99      199.34      258.94      302.99      319.32      302.99    
  258.94      199.34      137.99      85.705      48.479      27.296      18.413      14.854      12.444      10.877    
  9.9173      9.3538      8.9906      8.7324      8.3391      8.4534      8.7324      9.1177      9.7218      10.770    
  12.490      15.119      19.253      30.589      56.638      101.04      162.35      233.75      302.99      354.21    
  373.20      354.21      302.99      233.75      162.35      101.04      56.638      30.589      19.253      15.119    
  12.490      10.770      9.7218      9.1177      8.7324      8.4534      8.2199      8.3391      8.6286      9.0255    
  9.6480      10.731      12.508      15.214      19.593      31.878      59.739      106.78      171.40      246.50    
  319.32      373.20      393.20      373.20      319.32      246.50      171.40      106.78      59.739      31.878    
  19.593      15.214      12.508      10.731      9.6480      9.0255      8.6286      8.3391      8.3391      8.4534    
  8.7324      9.1177      9.7218      10.770      12.490      15.119      19.253      30.589      56.638      101.04    
  162.35      233.75      302.99      354.21      373.20      354.21      302.99      233.75      162.35      101.04    
  56.638      30.589      19.253      15.119      12.490      10.770      9.7218      9.1177      8.7324      8.4534    
  8.6286      8.7324      8.9906      9.3538      9.9173      10.877      12.444      14.854      18.413      27.296    
  48.479      85.705      137.99      199.34      258.94      302.99      319.32      302.99      258.94      199.34    
  137.99      85.705      48.479      27.296      18.413      14.854      12.444      10.877      9.9173      9.3538    
  8.9906      8.7324      9.0255      9.1177      9.3538      9.6945      10.209      11.049      12.398      14.479    
  17.448      23.367      38.103      65.499      105.31      152.84      199.34      233.75      246.50      233.75    
  199.34      152.84      105.31      65.499      38.103      23.367      17.448      14.479      12.398      11.049    
  10.209      9.6945      9.3538      9.1177      9.6480      9.7218      9.9173      10.209      10.642      11.326    
  12.406      14.080      16.519      20.126      28.645      45.882      72.470      105.31      137.99      162.35    
  171.40      162.35      137.99      105.31      72.470      45.882      28.645      20.126      16.519      14.080    
  12.406      11.326      10.642      10.209      9.9173      9.7218      10.731      10.770      10.877      11.049    
  11.326      11.788      12.546      13.758      15.590      18.043      22.121      30.936      45.882      65.499    
  85.705      101.04      106.78      101.04      85.705      65.499      45.882      30.936      22.121      18.043    
  15.590      13.758      12.546      11.788      11.326      11.049      10.877      10.770      12.508      12.490    
  12.444      12.398      12.406      12.546      12.909      13.614      14.792      16.496      18.625      22.121    
  28.645      38.103      48.479      56.638      59.739      56.638      48.479      38.103      28.645      22.121    
  18.625      16.496      14.792      13.614      12.909      12.546      12.406      12.398      12.444      12.490    
  15.214      15.119      14.854      14.479      14.080      13.758      13.614      13.748      14.254      15.183    
  16.496      18.043      20.126      23.367      27.296      30.589      31.878      30.589      27.296      23.367    
  20.126      18.043      16.496      15.183      14.254      13.748      13.614      13.758      14.080      14.479    
  14.854      15.119      19.593      19.253      18.413      17.448      16.519      15.590      14.792      14.254    
  14.064      14.254      14.792      15.590      16.519      17.448      18.413      19.253      19.593      19.253    
  18.413      17.448      16.519      15.590      14.792      14.254      14.064      14.254      14.792      15.590    
  16.519      17.448      18.413      19.253      31.878      30.589      27.296      23.367      20.126      18.043    
  16.496      15.183      14.254      13.748      13.614      13.758      14.080      14.479      14.854      15.119    
  15.214      15.119      14.854      14.479      14.080      13.758      13.614      13.748      14.254      15.183    
  16.496      18.043      20.126      23.367      27.296      30.589      59.739      56.638      48.479      38.103    
  28.645      22.121      18.625      16.496      14.792      13.614      12.909      12.546      12.406      12.398    
  12.444      12.490      12.508      12.490      12.444      12.398      12.406      12.546      12.909      13.614    
  14.792      16.496      18.625      22.121      28.645      38.103      48.479      56.638      106.78      101.04    
  85.705      65.499      45.882      30.936      22.121      18.043      15.590      13.758      12.546      11.788    
  11.326      11.049      10.877      10.770      10.731      10.770      10.877      11.049      11.326      11.788    
  12.546      13.758      15.590      18.043      22.121      30.936      45.882      65.499      85.705      101.04    
  171.40      162.35      137.99      105.31      72.470      45.882      28.645      20.126      16.519      14.080    
  12.406      11.326      10.642      10.209      9.9173      9.7218      9.6480      9.7218      9.9173      10.209    
  10.642      11.326      12.406      14.080      16.519      20.126      28.645      45.882      72.470      105.31    
  137.99      162.35      246.50      233.75      199.34      152.84      105.31      65.499      38.103      23.367    
  17.448      14.479      12.398      11.049      10.209      9.6945      9.3538      9.1177      9.0255      9.1177    
  9.3538      9.6945      10.209      11.049      12.398      14.479      17.448      23.367      38.103      65.499    
  105.31      152.84      199.34      233.75      319.32      302.99      258.94      199.34      137.99      85.705    
  48.479      27.296      18.413      14.854      12.444      10.877      9.9173      9.3538      8.9906      8.7324    
  8.6286      8.7324      8.9906      9.3538      9.9173      10.877      12.444      14.854      18.413      27.296    
  48.479      85.705      137.99      199.34      258.94      302.99      373.20      354.21      302.99      233.75    
  162.35      101.04      56.638      30.589      19.253      15.119      12.490      10.770      9.7218      9.1177    
  8.7324      8.4534      8.3391      8.4534      8.7324      9.1177      9.7218      10.770      12.490      15.119    
  19.253      30.589      56.638      101.04      162.35      233.75      302.99      354.21      336.50      319.32    
  272.98      210.29      145.73      90.554      51.040      28.321      18.679      14.949      12.465      10.844    
  9.8519      9.2708      8.8964      8.6286      8.5203      8.6286      8.8964      9.2708      9.8519      10.844    
  12.465      14.949      18.679      28.321      51.040      90.554      145.73      210.29      272.98      319.32    
  319.32      302.99      258.94      199.34      137.99      85.705      48.479      27.296      18.413      14.854    
  12.444      10.877      9.9173      9.3538      8.9906      8.7324      8.6286      8.7324      8.9906      9.3538    
  9.9173      10.877      12.444      14.854      18.413      27.296      48.479      85.705      137.99      199.34    
  258.94      302.99      272.98      258.94      221.04      169.78      117.19      72.783      41.772      24.695    
  17.750      14.591      12.391      10.969      10.093      9.5693      9.2288      8.9906      8.8964      8.9906    
  9.2288      9.5693      10.093      10.969      12.391      14.591      17.750      24.695      41.772      72.783    
  117.19      169.78      221.04      258.94      210.29      199.34      169.78      129.92      89.399      55.874    
  33.331      21.630      16.938      14.223      12.337      11.120      10.358      9.8847      9.5693      9.3538    
  9.2708      9.3538      9.5693      9.8847      10.358      11.120      12.337      14.223      16.938      21.630    
  33.331      55.874      89.399      129.92      169.78      199.34      145.73      137.99      117.19      89.399    
  61.713      39.668      25.774      19.124      16.055      13.837      12.332      11.365      10.751      10.358    
  10.093      9.9173      9.8519      9.9173      10.093      10.358      10.751      11.365      12.332      13.837    
  16.055      19.124      25.774      39.668      61.713      89.399      117.19      137.99      90.554      85.705    
  72.783      55.874      39.668      27.593      20.685      17.416      15.174      13.526      12.446      11.774    
  11.365      11.120      10.969      10.877      10.844      10.877      10.969      11.120      11.365      11.774    
  12.446      13.526      15.174      17.416      20.685      27.593      39.668      55.874      72.783      85.705    
  51.040      48.479      41.772      33.331      25.774      20.685      17.916      15.972      14.430      13.380    
  12.760      12.446      12.332      12.337      12.391      12.444      12.465      12.444      12.391      12.337    
  12.332      12.446      12.760      13.380      14.430      15.972      17.916      20.685      25.774      33.331    
  41.772      48.479      28.321      27.296      24.695      21.630      19.124      17.416      15.972      14.771    
  13.936      13.490      13.380      13.526      13.837      14.223      14.591      14.854      14.949      14.854    
  14.591      14.223      13.837      13.526      13.380      13.490      13.936      14.771      15.972      17.416    
  19.124      21.630      24.695      27.296      18.679      18.413      17.750      16.938      16.055      15.174    
  14.430      13.936      13.763      13.936      14.430      15.174      16.055      16.938      17.750      18.413    
  18.679      18.413      17.750      16.938      16.055      15.174      14.430      13.936      13.763      13.936    
  14.430      15.174      16.055      16.938      17.750      18.413      14.949      14.854      14.591      14.223    
  13.837      13.526      13.380      13.490      13.936      14.771      15.972      17.416      19.124      21.630    
  24.695      27.296      28.321      27.296      24.695      21.630      19.124      17.416      15.972      14.771    
  13.936      13.490      13.380      13.526      13.837      14.223      14.591      14.854      12.465      12.444    
  12.391      12.337      12.332      12.446      12.760      13.380      14.430      15.972      17.916      20.685    
  25.774      33.331      41.772      48.479      51.040      48.479      41.772      33.331      25.774      20.685    
  17.916      15.972      14.430      13.380      12.760      12.446      12.332      12.337      12.391      12.444    
  10.844      10.877      10.969      11.120      11.365      11.774      12.446      13.526      15.174      17.416    
  20.685      27.593      39.668      55.874      72.783      85.705      90.554      85.705      72.783      55.874    
  39.668      27.593      20.685      17.416      15.174      13.526      12.446      11.774      11.365      11.120    
  10.969      10.877      9.8519      9.9173      10.093      10.358      10.751      11.365      12.332      13.837    
  16.055      19.124      25.774      39.668      61.713      89.399      117.19      137.99      145.73      137.99    