unknown system                          
   1.00000000000000     
     3.660947    0.000000    0.000000
     0.000000    3.660947    0.000000
     0.000000    0.000000    3.660947
   Fe
     4
Direct
  0.000000  0.000000  0.000000
  0.500000  0.500000  0.000000
  0.500000  0.000000  0.500000
  0.000000  0.500000  0.500000
 
   32   32   32
 0.41424921395E+03 0.39319850374E+03 0.33649800068E+03 0.25991911728E+03 0.18093423628E+03
 0.11284888376E+03 0.63040157781E+02 0.33267239558E+02 0.19965484927E+02 0.15309120490E+02
 0.12524502035E+02 0.10689243603E+02 0.95707290458E+01 0.89293193074E+01 0.85202600668E+01
 0.82199169854E+01 0.80956750144E+01 0.82199169854E+01 0.85202600668E+01 0.89293193074E+01
 0.95707290458E+01 0.10689243603E+02 0.12524502035E+02 0.15309120490E+02 0.19965484927E+02
 0.33267239558E+02 0.63040157781E+02 0.11284888376E+03 0.18093423628E+03 0.25991911728E+03
 0.33649800068E+03 0.39319850374E+03 0.39319850374E+03 0.37320294226E+03 0.31931934487E+03
 0.24650224944E+03 0.17140119390E+03 0.10678159188E+03 0.59738719707E+02 0.31877791677E+02
 0.19593467456E+02 0.15214204264E+02 0.12508002599E+02 0.10730786924E+02 0.96480182222E+01
 0.90254992478E+01 0.86285504094E+01 0.83390707944E+01 0.82199169854E+01 0.83390707944E+01
 0.86285504094E+01 0.90254992478E+01 0.96480182222E+01 0.10730786924E+02 0.12508002599E+02
 0.15214204264E+02 0.19593467456E+02 0.31877791677E+02 0.59738719707E+02 0.10678159188E+03
 0.17140119390E+03 0.24650224944E+03 0.31931934487E+03 0.37320294226E+03 0.33649800068E+03
 0.31931934487E+03 0.27297891279E+03 0.21029322052E+03 0.14572593865E+03 0.90553747520E+02
 0.51040243514E+02 0.28320766509E+02 0.18679325315E+02 0.14949374989E+02 0.12464773098E+02
 0.10844321834E+02 0.98519146422E+01 0.92707967350E+01 0.88963979681E+01 0.86285504094E+01
 0.85202600668E+01 0.86285504094E+01 0.88963979681E+01 0.92707967350E+01 0.98519146422E+01
 0.10844321834E+02 0.12464773098E+02 0.14949374989E+02 0.18679325315E+02 0.28320766509E+02
 0.51040243514E+02 0.90553747520E+02 0.14572593865E+03 0.21029322052E+03 0.27297891279E+03
 0.31931934487E+03 0.25991911728E+03 0.24650224944E+03 0.21029322052E+03 0.16135723391E+03
 0.11125255230E+03 0.69131922209E+02 0.39941975544E+02 0.24057465938E+02 0.17640683419E+02
 0.14572376088E+02 0.12421835374E+02 0.11025148906E+02 0.10154551582E+02 0.96229648287E+01
 0.92707967350E+01 0.90254992478E+01 0.89293193074E+01 0.90254992478E+01 0.92707967350E+01
 0.96229648287E+01 0.10154551582E+02 0.11025148906E+02 0.12421835374E+02 0.14572376088E+02
 0.17640683419E+02 0.24057465938E+02 0.39941975544E+02 0.69131922209E+02 0.11125255230E+03
 0.16135723391E+03 0.21029322052E+03 0.24650224944E+03 0.18093423628E+03 0.17140119390E+03
 0.14572593865E+03 0.11125255230E+03 0.76516487384E+02 0.48252816819E+02 0.29766854753E+02
 0.20522924722E+02 0.16685999023E+02 0.14170231549E+02 0.12435519992E+02 0.11314257166E+02
 0.10604007956E+02 0.10154551582E+02 0.98519146422E+01 0.96480182222E+01 0.95707290458E+01
 0.96480182222E+01 0.98519146422E+01 0.10154551582E+02 0.10604007956E+02 0.11314257166E+02
 0.12435519992E+02 0.14170231549E+02 0.16685999023E+02 0.20522924722E+02 0.29766854753E+02
 0.48252816819E+02 0.76516487384E+02 0.11125255230E+03 0.14572593865E+03 0.17140119390E+03
 0.11284888376E+03 0.10678159188E+03 0.90553747520E+02 0.69131922209E+02 0.48252816819E+02
 0.32234602531E+02 0.22688033290E+02 0.18273715075E+02 0.15741426250E+02 0.13844533807E+02
 0.12584472224E+02 0.11795379536E+02 0.11314257166E+02 0.11025148906E+02 0.10844321834E+02
 0.10730786924E+02 0.10689243603E+02 0.10730786924E+02 0.10844321834E+02 0.11025148906E+02
 0.11314257166E+02 0.11795379536E+02 0.12584472224E+02 0.13844533807E+02 0.15741426250E+02
 0.18273715075E+02 0.22688033290E+02 0.32234602531E+02 0.48252816819E+02 0.69131922209E+02
 0.90553747520E+02 0.10678159188E+03 0.63040157781E+02 0.59738719707E+02 0.51040243514E+02
 0.39941975544E+02 0.29766854753E+02 0.22688033290E+02 0.18891997906E+02 0.16684979406E+02
 0.14923758796E+02 0.13700286399E+02 0.12964889002E+02 0.12584472224E+02 0.12435519992E+02
 0.12421835374E+02 0.12464773098E+02 0.12508002599E+02 0.12524502035E+02 0.12508002599E+02
 0.12464773098E+02 0.12421835374E+02 0.12435519992E+02 0.12584472224E+02 0.12964889002E+02
 0.13700286399E+02 0.14923758796E+02 0.16684979406E+02 0.18891997906E+02 0.22688033290E+02
 0.29766854753E+02 0.39941975544E+02 0.51040243514E+02 0.59738719707E+02 0.33267239558E+02
 0.31877791677E+02 0.28320766509E+02 0.24057465938E+02 0.20522924722E+02 0.18273715075E+02
 0.16684979406E+02 0.15333472283E+02 0.14370481562E+02 0.13843265759E+02 0.13700286399E+02
 0.13844533807E+02 0.14170231549E+02 0.14572376088E+02 0.14949374989E+02 0.15214204264E+02
 0.15309120490E+02 0.15214204264E+02 0.14949374989E+02 0.14572376088E+02 0.14170231549E+02
 0.13844533807E+02 0.13700286399E+02 0.13843265759E+02 0.14370481562E+02 0.15333472283E+02
 0.16684979406E+02 0.18273715075E+02 0.20522924722E+02 0.24057465938E+02 0.28320766509E+02
 0.31877791677E+02 0.19965484927E+02 0.19593467456E+02 0.18679325315E+02 0.17640683419E+02
 0.16685999023E+02 0.15741426250E+02 0.14923758796E+02 0.14370481562E+02 0.14175096964E+02
 0.14370481562E+02 0.14923758796E+02 0.15741426250E+02 0.16685999023E+02 0.17640683419E+02
 0.18679325315E+02 0.19593467456E+02 0.19965484927E+02 0.19593467456E+02 0.18679325315E+02
 0.17640683419E+02 0.16685999023E+02 0.15741426250E+02 0.14923758796E+02 0.14370481562E+02
 0.14175096964E+02 0.14370481562E+02 0.14923758796E+02 0.15741426250E+02 0.16685999023E+02
 0.17640683419E+02 0.18679325315E+02 0.19593467456E+02 0.15309120490E+02 0.15214204264E+02
 0.14949374989E+02 0.14572376088E+02 0.14170231549E+02 0.13844533807E+02 0.13700286399E+02
 0.13843265759E+02 0.14370481562E+02 0.15333472283E+02 0.16684979406E+02 0.18273715075E+02
 0.20522924722E+02 0.24057465938E+02 0.28320766509E+02 0.31877791677E+02 0.33267239558E+02
 0.31877791677E+02 0.28320766509E+02 0.24057465938E+02 0.20522924722E+02 0.18273715075E+02
 0.16684979406E+02 0.15333472283E+02 0.14370481562E+02 0.13843265759E+02 0.13700286399E+02
 0.13844533807E+02 0.14170231549E+02 0.14572376088E+02 0.14949374989E+02 0.15214204264E+02
 0.12524502035E+02 0.12508002599E+02 0.12464773098E+02 0.12421835374E+02 0.12435519992E+02
 0.12584472224E+02 0.12964889002E+02 0.13700286399E+02 0.14923758796E+02 0.16684979406E+02
 0.18891997906E+02 0.22688033290E+02 0.29766854753E+02 0.39941975544E+02 0.51040243514E+02
 0.59738719707E+02 0.63040157781E+02 0.59738719707E+02 0.51040243514E+02 0.39941975544E+02
 0.29766854753E+02 0.22688033290E+02 0.18891997906E+02 0.16684979406E+02 0.14923758796E+02
 0.13700286399E+02 0.12964889002E+02 0.12584472224E+02 0.12435519992E+02 0.12421835374E+02
 0.12464773098E+02 0.12508002599E+02 0.10689243603E+02 0.10730786924E+02 0.10844321834E+02
 0.11025148906E+02 0.11314257166E+02 0.11795379536E+02 0.12584472224E+02 0.13844533807E+02
 0.15741426250E+02 0.18273715075E+02 0.22688033290E+02 0.32234602531E+02 0.48252816819E+02
 0.69131922209E+02 0.90553747520E+02 0.10678159188E+03 0.11284888376E+03 0.10678159188E+03
 0.90553747520E+02 0.69131922209E+02 0.48252816819E+02 0.32234602531E+02 0.22688033290E+02
 0.18273715075E+02 0.15741426250E+02 0.13844533807E+02 0.12584472224E+02 0.11795379536E+02
 0.11314257166E+02 0.11025148906E+02 0.10844321834E+02 0.10730786924E+02 0.95707290458E+01
 0.96480182222E+01 0.98519146422E+01 0.10154551582E+02 0.10604007956E+02 0.11314257166E+02
 0.12435519992E+02 0.14170231549E+02 0.16685999023E+02 0.20522924722E+02 0.29766854753E+02
 0.48252816819E+02 0.76516487384E+02 0.11125255230E+03 0.14572593865E+03 0.17140119390E+03
 0.18093423628E+03 0.17140119390E+03 0.14572593865E+03 0.11125255230E+03 0.76516487384E+02
 0.48252816819E+02 0.29766854753E+02 0.20522924722E+02 0.16685999023E+02 0.14170231549E+02
 0.12435519992E+02 0.11314257166E+02 0.10604007956E+02 0.10154551582E+02 0.98519146422E+01
 0.96480182222E+01 0.89293193074E+01 0.90254992478E+01 0.92707967350E+01 0.96229648287E+01
 0.10154551582E+02 0.11025148906E+02 0.12421835374E+02 0.14572376088E+02 0.17640683419E+02
 0.24057465938E+02 0.39941975544E+02 0.69131922209E+02 0.11125255230E+03 0.16135723391E+03
 0.21029322052E+03 0.24650224944E+03 0.25991911728E+03 0.24650224944E+03 0.21029322052E+03
 0.16135723391E+03 0.11125255230E+03 0.69131922209E+02 0.39941975544E+02 0.24057465938E+02
 0.17640683419E+02 0.14572376088E+02 0.12421835374E+02 0.11025148906E+02 0.10154551582E+02
 0.96229648287E+01 0.92707967350E+01 0.90254992478E+01 0.85202600668E+01 0.86285504094E+01
 0.88963979681E+01 0.92707967350E+01 0.98519146422E+01 0.10844321834E+02 0.12464773098E+02
 0.14949374989E+02 0.18679325315E+02 0.28320766509E+02 0.51040243514E+02 0.90553747520E+02
 0.14572593865E+03 0.21029322052E+03 0.27297891279E+03 0.31931934487E+03 0.33649800068E+03
 0.31931934487E+03 0.27297891279E+03 0.21029322052E+03 0.14572593865E+03 0.90553747520E+02
 0.51040243514E+02 0.28320766509E+02 0.18679325315E+02 0.14949374989E+02 0.12464773098E+02
 0.10844321834E+02 0.98519146422E+01 0.92707967350E+01 0.88963979681E+01 0.86285504094E+01
 0.82199169854E+01 0.83390707944E+01 0.86285504094E+01 0.90254992478E+01 0.96480182222E+01
 0.10730786924E+02 0.12508002599E+02 0.15214204264E+02 0.19593467456E+02 0.31877791677E+02
 0.59738719707E+02 0.10678159188E+03 0.17140119390E+03 0.24650224944E+03 0.31931934487E+03
 0.37320294226E+03 0.39319850374E+03 0.37320294226E+03 0.31931934487E+03 0.24650224944E+03
 0.17140119390E+03 0.10678159188E+03 0.59738719707E+02 0.31877791677E+02 0.19593467456E+02
 0.15214204264E+02 0.12508002599E+02 0.10730786924E+02 0.96480182222E+01 0.90254992478E+01
 0.86285504094E+01 0.83390707944E+01 0.80956750144E+01 0.82199169854E+01 0.85202600668E+01
 0.89293193074E+01 0.95707290458E+01 0.10689243603E+02 0.12524502035E+02 0.15309120490E+02
 0.19965484927E+02 0.33267239558E+02 0.63040157781E+02 0.11284888376E+03 0.18093423628E+03
 0.25991911728E+03 0.33649800068E+03 0.39319850374E+03 0.41424921395E+03 0.39319850374E+03
 0.33649800068E+03 0.25991911728E+03 0.18093423628E+03 0.11284888376E+03 0.63040157781E+02
 0.33267239558E+02 0.19965484927E+02 0.15309120490E+02 0.12524502035E+02 0.10689243603E+02
 0.95707290458E+01 0.89293193074E+01 0.85202600668E+01 0.82199169854E+01 0.82199169854E+01
 0.83390707944E+01 0.86285504094E+01 0.90254992478E+01 0.96480182222E+01 0.10730786924E+02
 0.12508002599E+02 0.15214204264E+02 0.19593467456E+02 0.31877791677E+02 0.59738719707E+02
 0.10678159188E+03 0.17140119390E+03 0.24650224944E+03 0.31931934487E+03 0.37320294226E+03
 0.39319850374E+03 0.37320294226E+03 0.31931934487E+03 0.24650224944E+03 0.17140119390E+03
 0.10678159188E+03 0.59738719707E+02 0.31877791677E+02 0.19593467456E+02 0.15214204264E+02
 0.12508002599E+02 0.10730786924E+02 0.96480182222E+01 0.90254992478E+01 0.86285504094E+01
 0.83390707944E+01 0.85202600668E+01 0.86285504094E+01 0.88963979681E+01 0.92707967350E+01
 0.98519146422E+01 0.10844321834E+02 0.12464773098E+02 0.14949374989E+02 0.18679325315E+02
 0.28320766509E+02 0.51040243514E+02 0.90553747520E+02 0.14572593865E+03 0.21029322052E+03
 0.27297891279E+03 0.31931934487E+03 0.33649800068E+03 0.31931934487E+03 0.27297891279E+03
 0.21029322052E+03 0.14572593865E+03 0.90553747520E+02 0.51040243514E+02 0.28320766509E+02
 0.18679325315E+02 0.14949374989E+02 0.12464773098E+02 0.10844321834E+02 0.98519146422E+01
 0.92707967350E+01 0.88963979681E+01 0.86285504094E+01 0.89293193074E+01 0.90254992478E+01
 0.92707967350E+01 0.96229648287E+01 0.10154551582E+02 0.11025148906E+02 0.12421835374E+02
 0.14572376088E+02 0.17640683419E+02 0.24057465938E+02 0.39941975544E+02 0.69131922209E+02
 0.11125255230E+03 0.16135723391E+03 0.21029322052E+03 0.24650224944E+03 0.25991911728E+03
 0.24650224944E+03 0.21029322052E+03 0.16135723391E+03 0.11125255230E+03 0.69131922209E+02
 0.39941975544E+02 0.24057465938E+02 0.17640683419E+02 0.14572376088E+02 0.12421835374E+02
 0.11025148906E+02 0.10154551582E+02 0.96229648287E+01 0.92707967350E+01 0.90254992478E+01
 0.95707290458E+01 0.96480182222E+01 0.98519146422E+01 0.10154551582E+02 0.10604007956E+02
 0.11314257166E+02 0.12435519992E+02 0.14170231549E+02 0.16685999023E+02 0.20522924722E+02
 0.29766854753E+02 0.48252816819E+02 0.76516487384E+02 0.11125255230E+03 0.14572593865E+03
 0.17140119390E+03 0.18093423628E+03 0.17140119390E+03 0.14572593865E+03 0.11125255230E+03
 0.76516487384E+02 0.48252816819E+02 0.29766854753E+02 0.20522924722E+02 0.16685999023E+02
 0.14170231549E+02 0.12435519992E+02 0.11314257166E+02 0.10604007956E+02 0.10154551582E+02
 0.98519146422E+01 0.96480182222E+01 0.10689243603E+02 0.10730786924E+02 0.10844321834E+02
 0.11025148906E+02 0.11314257166E+02 0.11795379536E+02 0.12584472224E+02 0.13844533807E+02
 0.15741426250E+02 0.18273715075E+02 0.22688033290E+02 0.32234602531E+02 0.48252816819E+02
 0.69131922209E+02 0.90553747520E+02 0.10678159188E+03 0.11284888376E+03 0.10678159188E+03
 0.90553747520E+02 0.69131922209E+02 0.48252816819E+02 0.32234602531E+02 0.22688033290E+02
 0.18273715075E+02 0.15741426250E+02 0.13844533807E+02 0.12584472224E+02 0.11795379536E+02
 0.11314257166E+02 0.11025148906E+02 0.10844321834E+02 0.10730786924E+02 0.12524502035E+02
 0.12508002599E+02 0.12464773098E+02 0.12421835374E+02 0.12435519992E+02 0.12584472224E+02
 0.12964889002E+02 0.13700286399E+02 0.14923758796E+02 0.16684979406E+02 0.18891997906E+02
 0.22688033290E+02 0.29766854753E+02 0.39941975544E+02 0.51040243514E+02 0.59738719707E+02
 0.63040157781E+02 0.59738719707E+02 0.51040243514E+02 0.39941975544E+02 0.29766854753E+02
 0.22688033290E+02 0.18891997906E+02 0.16684979406E+02 0.14923758796E+02 0.13700286399E+02
 0.12964889002E+02 0.12584472224E+02 0.12435519992E+02 0.12421835374E+02 0.12464773098E+02
 0.12508002599E+02 0.15309120490E+02 0.15214204264E+02 0.14949374989E+02 0.14572376088E+02
 0.14170231549E+02 0.13844533807E+02 0.13700286399E+02 0.13843265759E+02 0.14370481562E+02
 0.15333472283E+02 0.16684979406E+02 0.18273715075E+02 0.20522924722E+02 0.24057465938E+02
 0.28320766509E+02 0.31877791677E+02 0.33267239558E+02 0.31877791677E+02 0.28320766509E+02
 0.24057465938E+02 0.20522924722E+02 0.18273715075E+02 0.16684979406E+02 0.15333472283E+02
 0.14370481562E+02 0.13843265759E+02 0.13700286399E+02 0.13844533807E+02 0.14170231549E+02
 0.14572376088E+02 0.14949374989E+02 0.15214204264E+02 0.19965484927E+02 0.19593467456E+02
 0.18679325315E+02 0.17640683419E+02 0.16685999023E+02 0.15741426250E+02 0.14923758796E+02
 0.14370481562E+02 0.14175096964E+02 0.14370481562E+02 0.14923758796E+02 0.15741426250E+02
 0.16685999023E+02 0.17640683419E+02 0.18679325315E+02 0.19593467456E+02 0.19965484927E+02
 0.19593467456E+02 0.18679325315E+02 0.17640683419E+02 0.16685999023E+02 0.15741426250E+02
 0.14923758796E+02 0.14370481562E+02 0.14175096964E+02 0.14370481562E+02 0.14923758796E+02
 0.15741426250E+02 0.16685999023E+02 0.17640683419E+02 0.18679325315E+02 0.19593467456E+02
 0.33267239558E+02 0.31877791677E+02 0.28320766509E+02 0.24057465938E+02 0.20522924722E+02
 0.18273715075E+02 0.16684979406E+02 0.15333472283E+02 0.14370481562E+02 0.13843265759E+02
 0.13700286399E+02 0.13844533807E+02 0.14170231549E+02 0.14572376088E+02 0.14949374989E+02
 0.15214204264E+02 0.15309120490E+02 0.15214204264E+02 0.14949374989E+02 0.14572376088E+02
 0.14170231549E+02 0.13844533807E+02 0.13700286399E+02 0.13843265759E+02 0.14370481562E+02
 0.15333472283E+02 0.16684979406E+02 0.18273715075E+02 0.20522924722E+02 0.24057465938E+02
 0.28320766509E+02 0.31877791677E+02 0.63040157781E+02 0.59738719707E+02 0.51040243514E+02
 0.39941975544E+02 0.29766854753E+02 0.22688033290E+02 0.18891997906E+02 0.16684979406E+02
 0.14923758796E+02 0.13700286399E+02 0.12964889002E+02 0.12584472224E+02 0.12435519992E+02
 0.12421835374E+02 0.12464773098E+02 0.12508002599E+02 0.12524502035E+02 0.12508002599E+02
 0.12464773098E+02 0.12421835374E+02 0.12435519992E+02 0.12584472224E+02 0.12964889002E+02
 0.13700286399E+02 0.14923758796E+02 0.16684979406E+02 0.18891997906E+02 0.22688033290E+02
 0.29766854753E+02 0.39941975544E+02 0.51040243514E+02 0.59738719707E+02 0.11284888376E+03
 0.10678159188E+03 0.90553747520E+02 0.69131922209E+02 0.48252816819E+02 0.32234602531E+02
 0.22688033290E+02 0.18273715075E+02 0.15741426250E+02 0.13844533807E+02 0.12584472224E+02
 0.11795379536E+02 0.11314257166E+02 0.11025148906E+02 0.10844321834E+02 0.10730786924E+02
 0.10689243603E+02 0.10730786924E+02 0.10844321834E+02 0.11025148906E+02 0.11314257166E+02
 0.11795379536E+02 0.12584472224E+02 0.13844533807E+02 0.15741426250E+02 0.18273715075E+02
 0.22688033290E+02 0.32234602531E+02 0.48252816819E+02 0.69131922209E+02 0.90553747520E+02
 0.10678159188E+03 0.18093423628E+03 0.17140119390E+03 0.14572593865E+03 0.11125255230E+03
 0.76516487384E+02 0.48252816819E+02 0.29766854753E+02 0.20522924722E+02 0.16685999023E+02
 0.14170231549E+02 0.12435519992E+02 0.11314257166E+02 0.10604007956E+02 0.10154551582E+02
 0.98519146422E+01 0.96480182222E+01 0.95707290458E+01 0.96480182222E+01 0.98519146422E+01
 0.10154551582E+02 0.10604007956E+02 0.11314257166E+02 0.12435519992E+02 0.14170231549E+02
 0.16685999023E+02 0.20522924722E+02 0.29766854753E+02 0.48252816819E+02 0.76516487384E+02
 0.11125255230E+03 0.14572593865E+03 0.17140119390E+03 0.25991911728E+03 0.24650224944E+03
 0.21029322052E+03 0.16135723391E+03 0.11125255230E+03 0.69131922209E+02 0.39941975544E+02
 0.24057465938E+02 0.17640683419E+02 0.14572376088E+02 0.12421835374E+02 0.11025148906E+02
 0.10154551582E+02 0.96229648287E+01 0.92707967350E+01 0.90254992478E+01 0.89293193074E+01
 0.90254992478E+01 0.92707967350E+01 0.96229648287E+01 0.10154551582E+02 0.11025148906E+02
 0.12421835374E+02 0.14572376088E+02 0.17640683419E+02 0.24057465938E+02 0.39941975544E+02
 0.69131922209E+02 0.11125255230E+03 0.16135723391E+03 0.21029322052E+03 0.24650224944E+03
 0.33649800068E+03 0.31931934487E+03 0.27297891279E+03 0.21029322052E+03 0.14572593865E+03
 0.90553747520E+02 0.51040243514E+02 0.28320766509E+02 0.18679325315E+02 0.14949374989E+02
 0.12464773098E+02 0.10844321834E+02 0.98519146422E+01 0.92707967350E+01 0.88963979681E+01
 0.86285504094E+01 0.85202600668E+01 0.86285504094E+01 0.88963979681E+01 0.92707967350E+01
 0.98519146422E+01 0.10844321834E+02 0.12464773098E+02 0.14949374989E+02 0.18679325315E+02
 0.28320766509E+02 0.51040243514E+02 0.90553747520E+02 0.14572593865E+03 0.21029322052E+03
 0.27297891279E+03 0.31931934487E+03 0.39319850374E+03 0.37320294226E+03 0.31931934487E+03
 0.24650224944E+03 0.17140119390E+03 0.10678159188E+03 0.59738719707E+02 0.31877791677E+02
 0.19593467456E+02 0.15214204264E+02 0.12508002599E+02 0.10730786924E+02 0.96480182222E+01
 0.90254992478E+01 0.86285504094E+01 0.83390707944E+01 0.82199169854E+01 0.83390707944E+01
 0.86285504094E+01 0.90254992478E+01 0.96480182222E+01 0.10730786924E+02 0.12508002599E+02
 0.15214204264E+02 0.19593467456E+02 0.31877791677E+02 0.59738719707E+02 0.10678159188E+03
 0.17140119390E+03 0.24650224944E+03 0.31931934487E+03 0.37320294226E+03 0.39319850374E+03
 0.37320294226E+03 0.31931934487E+03 0.24650224944E+03 0.17140119390E+03 0.10678159188E+03
 0.59738719707E+02 0.31877791677E+02 0.19593467456E+02 0.15214204264E+02 0.12508002599E+02
 0.10730786924E+02 0.96480182222E+01 0.90254992478E+01 0.86285504094E+01 0.83390707944E+01
 0.82199169854E+01 0.83390707944E+01 0.86285504094E+01 0.90254992478E+01 0.96480182222E+01
 0.10730786924E+02 0.12508002599E+02 0.15214204264E+02 0.19593467456E+02 0.31877791677E+02
 0.59738719707E+02 0.10678159188E+03 0.17140119390E+03 0.24650224944E+03 0.31931934487E+03
 0.37320294226E+03 0.37320294226E+03 0.35420608655E+03 0.30299250426E+03 0.23375042304E+03
 0.16235176216E+03 0.10104237434E+03 0.56637786432E+02 0.30588801663E+02 0.19252576975E+02
 0.15118970108E+02 0.12490285217E+02 0.10769808293E+02 0.97218276543E+01 0.91176759695E+01
 0.87324382744E+01 0.84533677656E+01 0.83390707944E+01 0.84533677656E+01 0.87324382744E+01
 0.91176759695E+01 0.97218276543E+01 0.10769808293E+02 0.12490285217E+02 0.15118970108E+02
 0.19252576975E+02 0.30588801663E+02 0.56637786432E+02 0.10104237434E+03 0.16235176216E+03
 0.23375042304E+03 0.30299250426E+03 0.35420608655E+03 0.31931934487E+03 0.30299250426E+03
 0.25893854466E+03 0.19933649620E+03 0.13798810352E+03 0.85704709207E+02 0.48479213166E+02
 0.27296100219E+02 0.18413414626E+02 0.14854074075E+02 0.12444198444E+02 0.10877085838E+02
 0.99173220748E+01 0.93537764883E+01 0.89906394644E+01 0.87324382744E+01 0.86285504094E+01
 0.87324382744E+01 0.89906394644E+01 0.93537764883E+01 0.99173220748E+01 0.10877085838E+02
 0.12444198444E+02 0.14854074075E+02 0.18413414626E+02 0.27296100219E+02 0.48479213166E+02
 0.85704709207E+02 0.13798810352E+03 0.19933649620E+03 0.25893854466E+03 0.30299250426E+03
 0.24650224944E+03 0.23375042304E+03 0.19933649620E+03 0.15284410811E+03 0.10531165162E+03
 0.65498651496E+02 0.38103401609E+02 0.23366941923E+02 0.17447913183E+02 0.14478813019E+02
 0.12397750004E+02 0.11049458437E+02 0.10208928298E+02 0.96945245383E+01 0.93537764883E+01
 0.91176759695E+01 0.90254992478E+01 0.91176759695E+01 0.93537764883E+01 0.96945245383E+01
 0.10208928298E+02 0.11049458437E+02 0.12397750004E+02 0.14478813019E+02 0.17447913183E+02
 0.23366941923E+02 0.38103401609E+02 0.65498651496E+02 0.10531165162E+03 0.15284410811E+03
 0.19933649620E+03 0.23375042304E+03 0.17140119390E+03 0.16235176216E+03 0.13798810352E+03
 0.10531165162E+03 0.72469669540E+02 0.45881830016E+02 0.28645333652E+02 0.20125688970E+02
 0.16519221779E+02 0.14080393053E+02 0.12406355463E+02 0.11326464328E+02 0.10642418394E+02
 0.10208928298E+02 0.99173220748E+01 0.97218276543E+01 0.96480182222E+01 0.97218276543E+01
 0.99173220748E+01 0.10208928298E+02 0.10642418394E+02 0.11326464328E+02 0.12406355463E+02
 0.14080393053E+02 0.16519221779E+02 0.20125688970E+02 0.28645333652E+02 0.45881830016E+02
 0.72469669540E+02 0.10531165162E+03 0.13798810352E+03 0.16235176216E+03 0.10678159188E+03
 0.10104237434E+03 0.85704709207E+02 0.65498651496E+02 0.45881830016E+02 0.30936273565E+02
 0.22120566337E+02 0.18042765103E+02 0.15590248664E+02 0.13758307651E+02 0.12545799037E+02
 0.11788015628E+02 0.11326464328E+02 0.11049458437E+02 0.10877085838E+02 0.10769808293E+02
 0.10730786924E+02 0.10769808293E+02 0.10877085838E+02 0.11049458437E+02 0.11326464328E+02
 0.11788015628E+02 0.12545799037E+02 0.13758307651E+02 0.15590248664E+02 0.18042765103E+02
 0.22120566337E+02 0.30936273565E+02 0.45881830016E+02 0.65498651496E+02 0.85704709207E+02
 0.10104237434E+03 0.59738719707E+02 0.56637786432E+02 0.48479213166E+02 0.38103401609E+02
 0.28645333652E+02 0.22120566337E+02 0.18625338406E+02 0.16496113695E+02 0.14791536627E+02
 0.13613689747E+02 0.12908504461E+02 0.12545799037E+02 0.12406355463E+02 0.12397750004E+02
 0.12444198444E+02 0.12490285217E+02 0.12508002599E+02 0.12490285217E+02 0.12444198444E+02
 0.12397750004E+02 0.12406355463E+02 0.12545799037E+02 0.12908504461E+02 0.13613689747E+02
 0.14791536627E+02 0.16496113695E+02 0.18625338406E+02 0.22120566337E+02 0.28645333652E+02
 0.38103401609E+02 0.48479213166E+02 0.56637786432E+02 0.31877791677E+02 0.30588801663E+02
 0.27296100219E+02 0.23366941923E+02 0.20125688970E+02 0.18042765103E+02 0.16496113695E+02
 0.15183277278E+02 0.14253661358E+02 0.13747703165E+02 0.13613689747E+02 0.13758307651E+02
 0.14080393053E+02 0.14478813019E+02 0.14854074075E+02 0.15118970108E+02 0.15214204264E+02
 0.15118970108E+02 0.14854074075E+02 0.14478813019E+02 0.14080393053E+02 0.13758307651E+02
 0.13613689747E+02 0.13747703165E+02 0.14253661358E+02 0.15183277278E+02 0.16496113695E+02
 0.18042765103E+02 0.20125688970E+02 0.23366941923E+02 0.27296100219E+02 0.30588801663E+02
 0.19593467456E+02 0.19252576975E+02 0.18413414626E+02 0.17447913183E+02 0.16519221779E+02
 0.15590248664E+02 0.14791536627E+02 0.14253661358E+02 0.14064180563E+02 0.14253661358E+02
 0.14791536627E+02 0.15590248664E+02 0.16519221779E+02 0.17447913183E+02 0.18413414626E+02
 0.19252576975E+02 0.19593467456E+02 0.19252576975E+02 0.18413414626E+02 0.17447913183E+02
 0.16519221779E+02 0.15590248664E+02 0.14791536627E+02 0.14253661358E+02 0.14064180563E+02
 0.14253661358E+02 0.14791536627E+02 0.15590248664E+02 0.16519221779E+02 0.17447913183E+02
 0.18413414626E+02 0.19252576975E+02 0.15214204264E+02 0.15118970108E+02 0.14854074075E+02
 0.14478813019E+02 0.14080393053E+02 0.13758307651E+02 0.13613689747E+02 0.13747703165E+02
 0.14253661358E+02 0.15183277278E+02 0.16496113695E+02 0.18042765103E+02 0.20125688970E+02
 0.23366941923E+02 0.27296100219E+02 0.30588801663E+02 0.31877791677E+02 0.30588801663E+02
 0.27296100219E+02 0.23366941923E+02 0.20125688970E+02 0.18042765103E+02 0.16496113695E+02
 0.15183277278E+02 0.14253661358E+02 0.13747703165E+02 0.13613689747E+02 0.13758307651E+02
 0.14080393053E+02 0.14478813019E+02 0.14854074075E+02 0.15118970108E+02 0.12508002599E+02
 0.12490285217E+02 0.12444198444E+02 0.12397750004E+02 0.12406355463E+02 0.12545799037E+02
 0.12908504461E+02 0.13613689747E+02 0.14791536627E+02 0.16496113695E+02 0.18625338406E+02
 0.22120566337E+02 0.28645333652E+02 0.38103401609E+02 0.48479213166E+02 0.56637786432E+02
 0.59738719707E+02 0.56637786432E+02 0.48479213166E+02 0.38103401609E+02 0.28645333652E+02
 0.22120566337E+02 0.18625338406E+02 0.16496113695E+02 0.14791536627E+02 0.13613689747E+02
 0.12908504461E+02 0.12545799037E+02 0.12406355463E+02 0.12397750004E+02 0.12444198444E+02
 0.12490285217E+02 0.10730786924E+02 0.10769808293E+02 0.10877085838E+02 0.11049458437E+02
 0.11326464328E+02 0.11788015628E+02 0.12545799037E+02 0.13758307651E+02 0.15590248664E+02
 0.18042765103E+02 0.22120566337E+02 0.30936273565E+02 0.45881830016E+02 0.65498651496E+02
 0.85704709207E+02 0.10104237434E+03 0.10678159188E+03 0.10104237434E+03 0.85704709207E+02
 0.65498651496E+02 0.45881830016E+02 0.30936273565E+02 0.22120566337E+02 0.18042765103E+02
 0.15590248664E+02 0.13758307651E+02 0.12545799037E+02 0.11788015628E+02 0.11326464328E+02
 0.11049458437E+02 0.10877085838E+02 0.10769808293E+02 0.96480182222E+01 0.97218276543E+01
 0.99173220748E+01 0.10208928298E+02 0.10642418394E+02 0.11326464328E+02 0.12406355463E+02
 0.14080393053E+02 0.16519221779E+02 0.20125688970E+02 0.28645333652E+02 0.45881830016E+02
 0.72469669540E+02 0.10531165162E+03 0.13798810352E+03 0.16235176216E+03 0.17140119390E+03
 0.16235176216E+03 0.13798810352E+03 0.10531165162E+03 0.72469669540E+02 0.45881830016E+02
 0.28645333652E+02 0.20125688970E+02 0.16519221779E+02 0.14080393053E+02 0.12406355463E+02
 0.11326464328E+02 0.10642418394E+02 0.10208928298E+02 0.99173220748E+01 0.97218276543E+01
 0.90254992478E+01 0.91176759695E+01 0.93537764883E+01 0.96945245383E+01 0.10208928298E+02
 0.11049458437E+02 0.12397750004E+02 0.14478813019E+02 0.17447913183E+02 0.23366941923E+02
 0.38103401609E+02 0.65498651496E+02 0.10531165162E+03 0.15284410811E+03 0.19933649620E+03
 0.23375042304E+03 0.24650224944E+03 0.23375042304E+03 0.19933649620E+03 0.15284410811E+03
 0.10531165162E+03 0.65498651496E+02 0.38103401609E+02 0.23366941923E+02 0.17447913183E+02
 0.14478813019E+02 0.12397750004E+02 0.11049458437E+02 0.10208928298E+02 0.96945245383E+01
 0.93537764883E+01 0.91176759695E+01 0.86285504094E+01 0.87324382744E+01 0.89906394644E+01
 0.93537764883E+01 0.99173220748E+01 0.10877085838E+02 0.12444198444E+02 0.14854074075E+02
 0.18413414626E+02 0.27296100219E+02 0.48479213166E+02 0.85704709207E+02 0.13798810352E+03
 0.19933649620E+03 0.25893854466E+03 0.30299250426E+03 0.31931934487E+03 0.30299250426E+03
 0.25893854466E+03 0.19933649620E+03 0.13798810352E+03 0.85704709207E+02 0.48479213166E+02
 0.27296100219E+02 0.18413414626E+02 0.14854074075E+02 0.12444198444E+02 0.10877085838E+02
 0.99173220748E+01 0.93537764883E+01 0.89906394644E+01 0.87324382744E+01 0.83390707944E+01
 0.84533677656E+01 0.87324382744E+01 0.91176759695E+01 0.97218276543E+01 0.10769808293E+02
 0.12490285217E+02 0.15118970108E+02 0.19252576975E+02 0.30588801663E+02 0.56637786432E+02
 0.10104237434E+03 0.16235176216E+03 0.23375042304E+03 0.30299250426E+03 0.35420608655E+03
 0.37320294226E+03 0.35420608655E+03 0.30299250426E+03 0.23375042304E+03 0.16235176216E+03
 0.10104237434E+03 0.56637786432E+02 0.30588801663E+02 0.19252576975E+02 0.15118970108E+02
 0.12490285217E+02 0.10769808293E+02 0.97218276543E+01 0.91176759695E+01 0.87324382744E+01
 0.84533677656E+01 0.82199169854E+01 0.83390707944E+01 0.86285504094E+01 0.90254992478E+01
 0.96480182222E+01 0.10730786924E+02 0.12508002599E+02 0.15214204264E+02 0.19593467456E+02
 0.31877791677E+02 0.59738719707E+02 0.10678159188E+03 0.17140119390E+03 0.24650224944E+03
 0.31931934487E+03 0.37320294226E+03 0.39319850374E+03 0.37320294226E+03 0.31931934487E+03
 0.24650224944E+03 0.17140119390E+03 0.10678159188E+03 0.59738719707E+02 0.31877791677E+02
 0.19593467456E+02 0.15214204264E+02 0.12508002599E+02 0.10730786924E+02 0.96480182222E+01
 0.90254992478E+01 0.86285504094E+01 0.83390707944E+01 0.83390707944E+01 0.84533677656E+01
 0.87324382744E+01 0.91176759695E+01 0.97218276543E+01 0.10769808293E+02 0.12490285217E+02
 0.15118970108E+02 0.19252576975E+02 0.30588801663E+02 0.56637786432E+02 0.10104237434E+03
 0.16235176216E+03 0.23375042304E+03 0.30299250426E+03 0.35420608655E+03 0.37320294226E+03
 0.35420608655E+03 0.30299250426E+03 0.23375042304E+03 0.16235176216E+03 0.10104237434E+03
 0.56637786432E+02 0.30588801663E+02 0.19252576975E+02 0.15118970108E+02 0.12490285217E+02
 0.10769808293E+02 0.97218276543E+01 0.91176759695E+01 0.87324382744E+01 0.84533677656E+01
 0.86285504094E+01 0.87324382744E+01 0.89906394644E+01 0.93537764883E+01 0.99173220748E+01
 0.10877085838E+02 0.12444198444E+02 0.14854074075E+02 0.18413414626E+02 0.27296100219E+02
 0.48479213166E+02 0.85704709207E+02 0.13798810352E+03 0.19933649620E+03 0.25893854466E+03
 0.30299250426E+03 0.31931934487E+03 0.30299250426E+03 0.25893854466E+03 0.19933649620E+03
 0.13798810352E+03 0.85704709207E+02 0.48479213166E+02 0.27296100219E+02 0.18413414626E+02