   4   4   0   0
  0.1226649E+02  0.3660947E-09  0.3660947E-09  0.3660947E-09  0.5000000E-15
  1.000000000000000E-004
  CAR 
 unknown system                          
     34.09608186     -4.87549119  301      4.93900226      1.00000000
     -4.875  0.0000E+00  0.0000E+00
     -4.746  0.0000E+00  0.0000E+00
     -4.616  0.0000E+00  0.0000E+00
     -4.486 -0.1848E-29 -0.2401E-30
     -4.356 -0.3890E-25 -0.5053E-26
     -4.226 -0.3498E-21 -0.4544E-22
     -4.096 -0.1343E-17 -0.1746E-18
     -3.966 -0.2132E-14 -0.2772E-15
     -3.836 -0.1480E-11 -0.1926E-12
     -3.706 -0.4393E-09 -0.5726E-10
     -3.576 -0.5598E-07 -0.7329E-08
     -3.447 -0.3090E-05 -0.4087E-06
     -3.317 -0.7465E-04 -0.1011E-04
     -3.187 -0.7804E-03 -0.1115E-03
     -3.057 -0.3026E-02 -0.5046E-03
     -2.927  0.1954E-02 -0.2508E-03
     -2.797  0.4252E-01  0.5273E-02
     -2.667  0.1066E+00  0.1912E-01
     -2.537  0.1359E+00  0.3677E-01
     -2.407  0.1959E+00  0.6222E-01
     -2.277  0.2655E+00  0.9670E-01
     -2.147  0.2062E+00  0.1235E+00
     -2.018  0.2333E+00  0.1538E+00
     -1.888  0.3603E+00  0.2006E+00
     -1.758  0.3484E+00  0.2459E+00
     -1.628  0.3374E+00  0.2897E+00
     -1.498  0.3984E+00  0.3415E+00
     -1.368  0.3230E+00  0.3834E+00
     -1.238  0.3951E+00  0.4347E+00
     -1.108  0.5480E+00  0.5059E+00
     -0.978  0.5622E+00  0.5790E+00
     -0.848  0.5442E+00  0.6497E+00
     -0.719  0.3729E+00  0.6981E+00
     -0.589  0.4396E+00  0.7552E+00
     -0.459  0.7625E+00  0.8543E+00
     -0.329  0.8004E+00  0.9582E+00
     -0.199  0.6961E+00  0.1049E+01
     -0.069  0.5736E+00  0.1123E+01
      0.061  0.6930E+00  0.1213E+01
      0.191  0.9771E+00  0.1340E+01
      0.321  0.1024E+01  0.1473E+01
      0.451  0.8816E+00  0.1588E+01
      0.581  0.1030E+01  0.1721E+01
      0.710  0.1382E+01  0.1901E+01
      0.840  0.1524E+01  0.2099E+01
      0.970  0.1682E+01  0.2317E+01
      1.100  0.2662E+01  0.2663E+01
      1.230  0.3912E+01  0.3171E+01
      1.360  0.4255E+01  0.3724E+01
      1.490  0.4226E+01  0.4273E+01
      1.620  0.4440E+01  0.4850E+01
      1.750  0.4970E+01  0.5495E+01
      1.880  0.5626E+01  0.6226E+01
      2.009  0.6799E+01  0.7109E+01
      2.139  0.7405E+01  0.8071E+01
      2.269  0.7234E+01  0.9011E+01
      2.399  0.6896E+01  0.9907E+01
      2.529  0.6475E+01  0.1075E+02
      2.659  0.6235E+01  0.1156E+02
      2.789  0.6123E+01  0.1235E+02
      2.919  0.6255E+01  0.1317E+02
      3.049  0.7180E+01  0.1410E+02
      3.179  0.8643E+01  0.1522E+02
      3.309  0.8680E+01  0.1635E+02
      3.438  0.8978E+01  0.1752E+02
      3.568  0.1040E+02  0.1887E+02
      3.698  0.1069E+02  0.2026E+02
      3.828  0.1118E+02  0.2171E+02
      3.958  0.1190E+02  0.2325E+02
      4.088  0.1049E+02  0.2462E+02
      4.218  0.8185E+01  0.2568E+02
      4.348  0.7044E+01  0.2660E+02
      4.478  0.7481E+01  0.2757E+02
      4.608  0.8641E+01  0.2869E+02
      4.737  0.9952E+01  0.2998E+02
      4.867  0.1035E+02  0.3133E+02
      4.997  0.9116E+01  0.3251E+02
      5.127  0.8543E+01  0.3362E+02
      5.257  0.8462E+01  0.3472E+02
      5.387  0.8915E+01  0.3588E+02
      5.517  0.1135E+02  0.3735E+02
      5.647  0.1475E+02  0.3927E+02
      5.777  0.1354E+02  0.4103E+02
      5.907  0.7061E+01  0.4195E+02
      6.037  0.2889E+01  0.4232E+02
      6.166  0.1863E+01  0.4256E+02
      6.296  0.1242E+01  0.4272E+02
      6.426  0.1183E+01  0.4288E+02
      6.556  0.1486E+01  0.4307E+02
      6.686  0.1611E+01  0.4328E+02
      6.816  0.1494E+01  0.4347E+02
      6.946  0.1047E+01  0.4361E+02
      7.076  0.8758E+00  0.4372E+02
      7.206  0.1659E+01  0.4394E+02
      7.336  0.1953E+01  0.4419E+02
      7.466  0.1065E+01  0.4433E+02
      7.595  0.7054E+00  0.4442E+02
      7.725  0.1188E+01  0.4458E+02
      7.855  0.1560E+01  0.4478E+02
      7.985  0.1313E+01  0.4495E+02
      8.115  0.9867E+00  0.4508E+02
      8.245  0.1019E+01  0.4521E+02
      8.375  0.1120E+01  0.4536E+02
      8.505  0.1146E+01  0.4551E+02
      8.635  0.1295E+01  0.4567E+02
      8.765  0.1215E+01  0.4583E+02
      8.894  0.1141E+01  0.4598E+02
      9.024  0.1130E+01  0.4613E+02
      9.154  0.5570E+00  0.4620E+02
      9.284  0.4067E+00  0.4625E+02
      9.414  0.9287E+00  0.4637E+02
      9.544  0.1240E+01  0.4653E+02
      9.674  0.1320E+01  0.4671E+02
      9.804  0.1149E+01  0.4686E+02
      9.934  0.5734E+00  0.4693E+02
     10.064  0.3043E+00  0.4697E+02
     10.194  0.8083E+00  0.4707E+02
     10.323  0.1007E+01  0.4721E+02
     10.453  0.4438E+00  0.4726E+02
     10.583  0.3489E+00  0.4731E+02
     10.713  0.7264E+00  0.4740E+02
     10.843  0.7434E+00  0.4750E+02
     10.973  0.6904E+00  0.4759E+02
     11.103  0.6518E+00  0.4767E+02
     11.233  0.4014E+00  0.4773E+02
     11.363  0.1858E+00  0.4775E+02
     11.493  0.1573E+00  0.4777E+02
     11.622  0.5253E+00  0.4784E+02
     11.752  0.1150E+01  0.4799E+02
     11.882  0.1322E+01  0.4816E+02
     12.012  0.1277E+01  0.4833E+02
     12.142  0.1558E+01  0.4853E+02
     12.272  0.1675E+01  0.4875E+02
     12.402  0.1368E+01  0.4892E+02
     12.532  0.1396E+01  0.4910E+02
     12.662  0.1444E+01  0.4929E+02
     12.792  0.1185E+01  0.4945E+02
     12.922  0.1346E+01  0.4962E+02
     13.051  0.1542E+01  0.4982E+02
     13.181  0.1016E+01  0.4995E+02
     13.311  0.7282E+00  0.5005E+02
     13.441  0.7809E+00  0.5015E+02
     13.571  0.8695E+00  0.5026E+02
     13.701  0.1292E+01  0.5043E+02
     13.831  0.1405E+01  0.5061E+02
     13.961  0.1213E+01  0.5077E+02
     14.091  0.1092E+01  0.5091E+02
     14.221  0.9189E+00  0.5103E+02
     14.350  0.7065E+00  0.5112E+02
     14.480  0.6176E+00  0.5120E+02
     14.610  0.8330E+00  0.5131E+02
     14.740  0.1225E+01  0.5147E+02
     14.870  0.1335E+01  0.5164E+02
     15.000  0.1434E+01  0.5183E+02
     15.130  0.1363E+01  0.5201E+02
     15.260  0.8354E+00  0.5212E+02
     15.390  0.1111E+01  0.5226E+02
     15.520  0.2207E+01  0.5255E+02
     15.650  0.2132E+01  0.5282E+02
     15.779  0.1424E+01  0.5301E+02
     15.909  0.1295E+01  0.5318E+02
     16.039  0.1485E+01  0.5337E+02
     16.169  0.1698E+01  0.5359E+02
     16.299  0.1576E+01  0.5380E+02
     16.429  0.1442E+01  0.5398E+02
     16.559  0.1528E+01  0.5418E+02
     16.689  0.1728E+01  0.5441E+02
     16.819  0.1703E+01  0.5463E+02
     16.949  0.1608E+01  0.5484E+02
     17.078  0.1541E+01  0.5504E+02
     17.208  0.1403E+01  0.5522E+02
     17.338  0.1522E+01  0.5542E+02
     17.468  0.1978E+01  0.5567E+02
     17.598  0.2035E+01  0.5594E+02
     17.728  0.1942E+01  0.5619E+02
     17.858  0.1896E+01  0.5644E+02
     17.988  0.1452E+01  0.5662E+02
     18.118  0.1374E+01  0.5680E+02
     18.248  0.1630E+01  0.5701E+02
     18.378  0.1493E+01  0.5721E+02
     18.507  0.1500E+01  0.5740E+02
     18.637  0.1862E+01  0.5765E+02
     18.767  0.2152E+01  0.5793E+02
     18.897  0.2106E+01  0.5820E+02
     19.027  0.1740E+01  0.5842E+02
     19.157  0.1511E+01  0.5862E+02
     19.287  0.2005E+01  0.5888E+02
     19.417  0.2036E+01  0.5915E+02
     19.547  0.1498E+01  0.5934E+02
     19.677  0.2031E+01  0.5960E+02
     19.807  0.2421E+01  0.5992E+02
     19.936  0.1693E+01  0.6014E+02
     20.066  0.1807E+01  0.6037E+02
     20.196  0.2480E+01  0.6070E+02
     20.326  0.2219E+01  0.6098E+02
     20.456  0.1643E+01  0.6120E+02
     20.586  0.1321E+01  0.6137E+02
     20.716  0.1432E+01  0.6155E+02
     20.846  0.1570E+01  0.6176E+02
     20.976  0.1469E+01  0.6195E+02
     21.106  0.2298E+01  0.6225E+02
     21.235  0.2925E+01  0.6263E+02
     21.365  0.1875E+01  0.6287E+02
     21.495  0.8555E+00  0.6298E+02
     21.625  0.1193E+01  0.6314E+02
     21.755  0.1668E+01  0.6335E+02
     21.885  0.1474E+01  0.6355E+02
     22.015  0.1687E+01  0.6377E+02
     22.145  0.2118E+01  0.6404E+02
     22.275  0.1931E+01  0.6429E+02
     22.405  0.2027E+01  0.6455E+02
     22.535  0.2147E+01  0.6483E+02
     22.664  0.1319E+01  0.6500E+02
     22.794  0.7557E+00  0.6510E+02
     22.924  0.9541E+00  0.6523E+02
     23.054  0.1796E+01  0.6546E+02
     23.184  0.2008E+01  0.6572E+02
     23.314  0.1302E+01  0.6589E+02
     23.444  0.1192E+01  0.6604E+02
     23.574  0.1092E+01  0.6619E+02
     23.704  0.9309E+00  0.6631E+02
     23.834  0.1572E+01  0.6651E+02
     23.963  0.2484E+01  0.6683E+02
     24.093  0.2267E+01  0.6713E+02
     24.223  0.1199E+01  0.6728E+02
     24.353  0.6071E+00  0.6736E+02
     24.483  0.1132E+01  0.6751E+02
     24.613  0.1901E+01  0.6776E+02
     24.743  0.1808E+01  0.6799E+02
     24.873  0.1539E+01  0.6819E+02
     25.003  0.1766E+01  0.6842E+02
     25.133  0.1849E+01  0.6866E+02
     25.263  0.1489E+01  0.6886E+02
     25.392  0.1246E+01  0.6902E+02
     25.522  0.1626E+01  0.6923E+02
     25.652  0.1927E+01  0.6948E+02
     25.782  0.2120E+01  0.6975E+02
     25.912  0.2290E+01  0.7005E+02
     26.042  0.2416E+01  0.7037E+02
     26.172  0.2529E+01  0.7069E+02
     26.302  0.2465E+01  0.7101E+02
     26.432  0.2000E+01  0.7127E+02
     26.562  0.1549E+01  0.7148E+02
     26.691  0.1988E+01  0.7173E+02
     26.821  0.2595E+01  0.7207E+02
     26.951  0.2191E+01  0.7236E+02
     27.081  0.1796E+01  0.7259E+02
     27.211  0.1689E+01  0.7281E+02
     27.341  0.1850E+01  0.7305E+02
     27.471  0.2444E+01  0.7337E+02
     27.601  0.3062E+01  0.7376E+02
     27.731  0.2557E+01  0.7410E+02
     27.861  0.1546E+01  0.7430E+02
     27.991  0.1720E+01  0.7452E+02
     28.120  0.2539E+01  0.7485E+02
     28.250  0.2611E+01  0.7519E+02
     28.380  0.2034E+01  0.7545E+02
     28.510  0.1697E+01  0.7567E+02
     28.640  0.2112E+01  0.7595E+02
     28.770  0.2882E+01  0.7632E+02
     28.900  0.2919E+01  0.7670E+02
     29.030  0.2152E+01  0.7698E+02
     29.160  0.1711E+01  0.7720E+02
     29.290  0.1507E+01  0.7740E+02
     29.419  0.1280E+01  0.7757E+02
     29.549  0.1374E+01  0.7774E+02
     29.679  0.2035E+01  0.7801E+02
     29.809  0.1883E+01  0.7825E+02
     29.939  0.1104E+01  0.7840E+02
     30.069  0.1139E+01  0.7854E+02
     30.199  0.1351E+01  0.7872E+02
     30.329  0.1254E+01  0.7888E+02
     30.459  0.7715E+00  0.7898E+02
     30.589  0.7480E+00  0.7908E+02
     30.719  0.1344E+01  0.7925E+02
     30.848  0.1417E+01  0.7944E+02
     30.978  0.1120E+01  0.7958E+02
     31.108  0.7344E+00  0.7968E+02
     31.238  0.7679E+00  0.7978E+02
     31.368  0.8907E+00  0.7990E+02
     31.498  0.4520E+00  0.7995E+02
     31.628  0.9361E-01  0.7997E+02
     31.758 -0.8778E-02  0.7996E+02
     31.888 -0.1330E-01  0.7996E+02
     32.018  0.5972E-01  0.7997E+02
     32.148  0.1429E+00  0.7999E+02
     32.277  0.8403E-01  0.8000E+02
     32.407  0.3488E-02  0.8000E+02
     32.537 -0.5886E-02  0.8000E+02
     32.667 -0.1023E-02  0.8000E+02
     32.797 -0.5576E-04  0.8000E+02
     32.927 -0.1161E-05  0.8000E+02
     33.057 -0.9786E-08  0.8000E+02
     33.187 -0.3420E-10  0.8000E+02
     33.317 -0.5011E-13  0.8000E+02
     33.447 -0.6164E-16  0.8000E+02
     33.576  0.0000E+00  0.8000E+02
     33.706  0.0000E+00  0.8000E+02
     33.836  0.0000E+00  0.8000E+02
     33.966  0.0000E+00  0.8000E+02
     34.096  0.0000E+00  0.8000E+02
