unknown system                          
   1.00000000000000     
     3.374435    0.000000    0.000000
     0.000000    3.374435    0.000000
     0.000000    0.000000    3.374435
   Cu
     4
Direct
  0.000000  0.000000  0.000000
  0.500000  0.500000  0.000000
  0.500000  0.000000  0.500000
  0.000000  0.500000  0.500000
 
   32   32   32
 0.67190727293E+03 0.63847360267E+03 0.54748303070E+03 0.42249021502E+03 0.29139007931E+03
 0.17732980272E+03 0.94026891951E+02 0.44749873180E+02 0.23234378005E+02 0.16587863258E+02
 0.13070093249E+02 0.10779825854E+02 0.94440223371E+01 0.87068680966E+01 0.82738460527E+01
 0.79985520049E+01 0.78943650357E+01 0.79985520049E+01 0.82738460527E+01 0.87068680966E+01
 0.94440223371E+01 0.10779825854E+02 0.13070093249E+02 0.16587863258E+02 0.23234378005E+02
 0.44749873180E+02 0.94026891951E+02 0.17732980272E+03 0.29139007931E+03 0.42249021502E+03
 0.54748303070E+03 0.63847360267E+03 0.63847360267E+03 0.60659061706E+03 0.51981736210E+03
 0.40063947728E+03 0.27575243789E+03 0.16736189251E+03 0.88598897211E+02 0.42439693096E+02
 0.22593852145E+02 0.16428121429E+02 0.13005616889E+02 0.10789215859E+02 0.94987206069E+01
 0.87856840751E+01 0.83659701374E+01 0.80993085773E+01 0.79985520049E+01 0.80993085773E+01
 0.83659701374E+01 0.87856840751E+01 0.94987206069E+01 0.10789215859E+02 0.13005616889E+02
 0.16428121429E+02 0.22593852145E+02 0.42439693096E+02 0.88598897211E+02 0.16736189251E+03
 0.27575243789E+03 0.40063947728E+03 0.51981736210E+03 0.60659061706E+03 0.54748303070E+03
 0.51981736210E+03 0.44453350742E+03 0.34124519043E+03 0.23338949450E+03 0.14056098102E+03
 0.74217327837E+02 0.36486226634E+02 0.21013892998E+02 0.15973346379E+02 0.12825690243E+02
 0.10815015519E+02 0.96473288836E+01 0.89974026853E+01 0.86111259936E+01 0.83659701374E+01
 0.82738460527E+01 0.83659701374E+01 0.86111259936E+01 0.89974026853E+01 0.96473288836E+01
 0.10815015519E+02 0.12825690243E+02 0.15973346379E+02 0.21013892998E+02 0.36486226634E+02
 0.74217327837E+02 0.14056098102E+03 0.23338949450E+03 0.34124519043E+03 0.44453350742E+03
 0.51981736210E+03 0.42249021502E+03 0.40063947728E+03 0.34124519043E+03 0.26004163060E+03
 0.17596515111E+03 0.10486426090E+03 0.55685999422E+02 0.29270383212E+02 0.19232253921E+02
 0.15300221630E+02 0.12580003065E+02 0.10875132300E+02 0.98879319980E+01 0.93321619986E+01
 0.89974026853E+01 0.87856840751E+01 0.87068680966E+01 0.87856840751E+01 0.89974026853E+01
 0.93321619986E+01 0.98879319980E+01 0.10875132300E+02 0.12580003065E+02 0.15300221630E+02
 0.19232253921E+02 0.29270383212E+02 0.55685999422E+02 0.10486426090E+03 0.17596515111E+03
 0.26004163060E+03 0.34124519043E+03 0.40063947728E+03 0.29139007931E+03 0.27575243789E+03
 0.23338949450E+03 0.17596515111E+03 0.11754353394E+03 0.69727515260E+02 0.38504628615E+02
 0.23242513325E+02 0.17709187021E+02 0.14538484002E+02 0.12365227142E+02 0.11044818397E+02
 0.10298377595E+02 0.98879319980E+01 0.96473288836E+01 0.94987206069E+01 0.94440223371E+01
 0.94987206069E+01 0.96473288836E+01 0.98879319980E+01 0.10298377595E+02 0.11044818397E+02
 0.12365227142E+02 0.14538484002E+02 0.17709187021E+02 0.23242513325E+02 0.38504628615E+02
 0.69727515260E+02 0.11754353394E+03 0.17596515111E+03 0.23338949450E+03 0.27575243789E+03
 0.17732980272E+03 0.16736189251E+03 0.14056098102E+03 0.10486426090E+03 0.69727515260E+02
 0.42585536452E+02 0.26495548743E+02 0.19535749039E+02 0.16263409711E+02 0.13857486600E+02
 0.12319375999E+02 0.11461674127E+02 0.11044818397E+02 0.10875132300E+02 0.10815015519E+02
 0.10789215859E+02 0.10779825854E+02 0.10789215859E+02 0.10815015519E+02 0.10875132300E+02
 0.11044818397E+02 0.11461674127E+02 0.12319375999E+02 0.13857486600E+02 0.16263409711E+02
 0.19535749039E+02 0.26495548743E+02 0.42585536452E+02 0.69727515260E+02 0.10486426090E+03
 0.14056098102E+03 0.16736189251E+03 0.94026891951E+02 0.88598897211E+02 0.74217327837E+02
 0.55685999422E+02 0.38504628615E+02 0.26495548743E+02 0.20294689245E+02 0.17279038036E+02
 0.14988887553E+02 0.13443866673E+02 0.12613086665E+02 0.12319375999E+02 0.12365227142E+02
 0.12580003065E+02 0.12825690243E+02 0.13005616889E+02 0.13070093249E+02 0.13005616889E+02
 0.12825690243E+02 0.12580003065E+02 0.12365227142E+02 0.12319375999E+02 0.12613086665E+02
 0.13443866673E+02 0.14988887553E+02 0.17279038036E+02 0.20294689245E+02 0.26495548743E+02
 0.38504628615E+02 0.55685999422E+02 0.74217327837E+02 0.88598897211E+02 0.44749873180E+02
 0.42439693096E+02 0.36486226634E+02 0.29270383212E+02 0.23242513325E+02 0.19535749039E+02
 0.17279038036E+02 0.15414664742E+02 0.14117079282E+02 0.13480482800E+02 0.13443866673E+02
 0.13857486600E+02 0.14538484002E+02 0.15300221630E+02 0.15973346379E+02 0.16428121429E+02
 0.16587863258E+02 0.16428121429E+02 0.15973346379E+02 0.15300221630E+02 0.14538484002E+02
 0.13857486600E+02 0.13443866673E+02 0.13480482800E+02 0.14117079282E+02 0.15414664742E+02
 0.17279038036E+02 0.19535749039E+02 0.23242513325E+02 0.29270383212E+02 0.36486226634E+02
 0.42439693096E+02 0.23234378005E+02 0.22593852145E+02 0.21013892998E+02 0.19232253921E+02
 0.17709187021E+02 0.16263409711E+02 0.14988887553E+02 0.14117079282E+02 0.13807709448E+02
 0.14117079282E+02 0.14988887553E+02 0.16263409711E+02 0.17709187021E+02 0.19232253921E+02
 0.21013892998E+02 0.22593852145E+02 0.23234378005E+02 0.22593852145E+02 0.21013892998E+02
 0.19232253921E+02 0.17709187021E+02 0.16263409711E+02 0.14988887553E+02 0.14117079282E+02
 0.13807709448E+02 0.14117079282E+02 0.14988887553E+02 0.16263409711E+02 0.17709187021E+02
 0.19232253921E+02 0.21013892998E+02 0.22593852145E+02 0.16587863258E+02 0.16428121429E+02
 0.15973346379E+02 0.15300221630E+02 0.14538484002E+02 0.13857486600E+02 0.13443866673E+02
 0.13480482800E+02 0.14117079282E+02 0.15414664742E+02 0.17279038036E+02 0.19535749039E+02
 0.23242513325E+02 0.29270383212E+02 0.36486226634E+02 0.42439693096E+02 0.44749873180E+02
 0.42439693096E+02 0.36486226634E+02 0.29270383212E+02 0.23242513325E+02 0.19535749039E+02
 0.17279038036E+02 0.15414664742E+02 0.14117079282E+02 0.13480482800E+02 0.13443866673E+02
 0.13857486600E+02 0.14538484002E+02 0.15300221630E+02 0.15973346379E+02 0.16428121429E+02
 0.13070093249E+02 0.13005616889E+02 0.12825690243E+02 0.12580003065E+02 0.12365227142E+02
 0.12319375999E+02 0.12613086665E+02 0.13443866673E+02 0.14988887553E+02 0.17279038036E+02
 0.20294689245E+02 0.26495548743E+02 0.38504628615E+02 0.55685999422E+02 0.74217327837E+02
 0.88598897211E+02 0.94026891951E+02 0.88598897211E+02 0.74217327837E+02 0.55685999422E+02
 0.38504628615E+02 0.26495548743E+02 0.20294689245E+02 0.17279038036E+02 0.14988887553E+02
 0.13443866673E+02 0.12613086665E+02 0.12319375999E+02 0.12365227142E+02 0.12580003065E+02
 0.12825690243E+02 0.13005616889E+02 0.10779825854E+02 0.10789215859E+02 0.10815015519E+02
 0.10875132300E+02 0.11044818397E+02 0.11461674127E+02 0.12319375999E+02 0.13857486600E+02
 0.16263409711E+02 0.19535749039E+02 0.26495548743E+02 0.42585536452E+02 0.69727515260E+02
 0.10486426090E+03 0.14056098102E+03 0.16736189251E+03 0.17732980272E+03 0.16736189251E+03
 0.14056098102E+03 0.10486426090E+03 0.69727515260E+02 0.42585536452E+02 0.26495548743E+02
 0.19535749039E+02 0.16263409711E+02 0.13857486600E+02 0.12319375999E+02 0.11461674127E+02
 0.11044818397E+02 0.10875132300E+02 0.10815015519E+02 0.10789215859E+02 0.94440223371E+01
 0.94987206069E+01 0.96473288836E+01 0.98879319980E+01 0.10298377595E+02 0.11044818397E+02
 0.12365227142E+02 0.14538484002E+02 0.17709187021E+02 0.23242513325E+02 0.38504628615E+02
 0.69727515260E+02 0.11754353394E+03 0.17596515111E+03 0.23338949450E+03 0.27575243789E+03
 0.29139007931E+03 0.27575243789E+03 0.23338949450E+03 0.17596515111E+03 0.11754353394E+03
 0.69727515260E+02 0.38504628615E+02 0.23242513325E+02 0.17709187021E+02 0.14538484002E+02
 0.12365227142E+02 0.11044818397E+02 0.10298377595E+02 0.98879319980E+01 0.96473288836E+01
 0.94987206069E+01 0.87068680966E+01 0.87856840751E+01 0.89974026853E+01 0.93321619986E+01
 0.98879319980E+01 0.10875132300E+02 0.12580003065E+02 0.15300221630E+02 0.19232253921E+02
 0.29270383212E+02 0.55685999422E+02 0.10486426090E+03 0.17596515111E+03 0.26004163060E+03
 0.34124519043E+03 0.40063947728E+03 0.42249021502E+03 0.40063947728E+03 0.34124519043E+03
 0.26004163060E+03 0.17596515111E+03 0.10486426090E+03 0.55685999422E+02 0.29270383212E+02
 0.19232253921E+02 0.15300221630E+02 0.12580003065E+02 0.10875132300E+02 0.98879319980E+01
 0.93321619986E+01 0.89974026853E+01 0.87856840751E+01 0.82738460527E+01 0.83659701374E+01
 0.86111259936E+01 0.89974026853E+01 0.96473288836E+01 0.10815015519E+02 0.12825690243E+02
 0.15973346379E+02 0.21013892998E+02 0.36486226634E+02 0.74217327837E+02 0.14056098102E+03
 0.23338949450E+03 0.34124519043E+03 0.44453350742E+03 0.51981736210E+03 0.54748303070E+03
 0.51981736210E+03 0.44453350742E+03 0.34124519043E+03 0.23338949450E+03 0.14056098102E+03
 0.74217327837E+02 0.36486226634E+02 0.21013892998E+02 0.15973346379E+02 0.12825690243E+02
 0.10815015519E+02 0.96473288836E+01 0.89974026853E+01 0.86111259936E+01 0.83659701374E+01
 0.79985520049E+01 0.80993085773E+01 0.83659701374E+01 0.87856840751E+01 0.94987206069E+01
 0.10789215859E+02 0.13005616889E+02 0.16428121429E+02 0.22593852145E+02 0.42439693096E+02
 0.88598897211E+02 0.16736189251E+03 0.27575243789E+03 0.40063947728E+03 0.51981736210E+03
 0.60659061706E+03 0.63847360267E+03 0.60659061706E+03 0.51981736210E+03 0.40063947728E+03
 0.27575243789E+03 0.16736189251E+03 0.88598897211E+02 0.42439693096E+02 0.22593852145E+02
 0.16428121429E+02 0.13005616889E+02 0.10789215859E+02 0.94987206069E+01 0.87856840751E+01
 0.83659701374E+01 0.80993085773E+01 0.78943650357E+01 0.79985520049E+01 0.82738460527E+01
 0.87068680966E+01 0.94440223371E+01 0.10779825854E+02 0.13070093249E+02 0.16587863258E+02
 0.23234378005E+02 0.44749873180E+02 0.94026891951E+02 0.17732980272E+03 0.29139007931E+03
 0.42249021502E+03 0.54748303070E+03 0.63847360267E+03 0.67190727293E+03 0.63847360267E+03
 0.54748303070E+03 0.42249021502E+03 0.29139007931E+03 0.17732980272E+03 0.94026891951E+02
 0.44749873180E+02 0.23234378005E+02 0.16587863258E+02 0.13070093249E+02 0.10779825854E+02
 0.94440223371E+01 0.87068680966E+01 0.82738460527E+01 0.79985520049E+01 0.79985520049E+01
 0.80993085773E+01 0.83659701374E+01 0.87856840751E+01 0.94987206069E+01 0.10789215859E+02
 0.13005616889E+02 0.16428121429E+02 0.22593852145E+02 0.42439693096E+02 0.88598897211E+02
 0.16736189251E+03 0.27575243789E+03 0.40063947728E+03 0.51981736210E+03 0.60659061706E+03
 0.63847360267E+03 0.60659061706E+03 0.51981736210E+03 0.40063947728E+03 0.27575243789E+03
 0.16736189251E+03 0.88598897211E+02 0.42439693096E+02 0.22593852145E+02 0.16428121429E+02
 0.13005616889E+02 0.10789215859E+02 0.94987206069E+01 0.87856840751E+01 0.83659701374E+01
 0.80993085773E+01 0.82738460527E+01 0.83659701374E+01 0.86111259936E+01 0.89974026853E+01
 0.96473288836E+01 0.10815015519E+02 0.12825690243E+02 0.15973346379E+02 0.21013892998E+02
 0.36486226634E+02 0.74217327837E+02 0.14056098102E+03 0.23338949450E+03 0.34124519043E+03
 0.44453350742E+03 0.51981736210E+03 0.54748303070E+03 0.51981736210E+03 0.44453350742E+03
 0.34124519043E+03 0.23338949450E+03 0.14056098102E+03 0.74217327837E+02 0.36486226634E+02
 0.21013892998E+02 0.15973346379E+02 0.12825690243E+02 0.10815015519E+02 0.96473288836E+01
 0.89974026853E+01 0.86111259936E+01 0.83659701374E+01 0.87068680966E+01 0.87856840751E+01
 0.89974026853E+01 0.93321619986E+01 0.98879319980E+01 0.10875132300E+02 0.12580003065E+02
 0.15300221630E+02 0.19232253921E+02 0.29270383212E+02 0.55685999422E+02 0.10486426090E+03
 0.17596515111E+03 0.26004163060E+03 0.34124519043E+03 0.40063947728E+03 0.42249021502E+03
 0.40063947728E+03 0.34124519043E+03 0.26004163060E+03 0.17596515111E+03 0.10486426090E+03
 0.55685999422E+02 0.29270383212E+02 0.19232253921E+02 0.15300221630E+02 0.12580003065E+02
 0.10875132300E+02 0.98879319980E+01 0.93321619986E+01 0.89974026853E+01 0.87856840751E+01
 0.94440223371E+01 0.94987206069E+01 0.96473288836E+01 0.98879319980E+01 0.10298377595E+02
 0.11044818397E+02 0.12365227142E+02 0.14538484002E+02 0.17709187021E+02 0.23242513325E+02
 0.38504628615E+02 0.69727515260E+02 0.11754353394E+03 0.17596515111E+03 0.23338949450E+03
 0.27575243789E+03 0.29139007931E+03 0.27575243789E+03 0.23338949450E+03 0.17596515111E+03
 0.11754353394E+03 0.69727515260E+02 0.38504628615E+02 0.23242513325E+02 0.17709187021E+02
 0.14538484002E+02 0.12365227142E+02 0.11044818397E+02 0.10298377595E+02 0.98879319980E+01
 0.96473288836E+01 0.94987206069E+01 0.10779825854E+02 0.10789215859E+02 0.10815015519E+02
 0.10875132300E+02 0.11044818397E+02 0.11461674127E+02 0.12319375999E+02 0.13857486600E+02
 0.16263409711E+02 0.19535749039E+02 0.26495548743E+02 0.42585536452E+02 0.69727515260E+02
 0.10486426090E+03 0.14056098102E+03 0.16736189251E+03 0.17732980272E+03 0.16736189251E+03
 0.14056098102E+03 0.10486426090E+03 0.69727515260E+02 0.42585536452E+02 0.26495548743E+02
 0.19535749039E+02 0.16263409711E+02 0.13857486600E+02 0.12319375999E+02 0.11461674127E+02
 0.11044818397E+02 0.10875132300E+02 0.10815015519E+02 0.10789215859E+02 0.13070093249E+02
 0.13005616889E+02 0.12825690243E+02 0.12580003065E+02 0.12365227142E+02 0.12319375999E+02
 0.12613086665E+02 0.13443866673E+02 0.14988887553E+02 0.17279038036E+02 0.20294689245E+02
 0.26495548743E+02 0.38504628615E+02 0.55685999422E+02 0.74217327837E+02 0.88598897211E+02
 0.94026891951E+02 0.88598897211E+02 0.74217327837E+02 0.55685999422E+02 0.38504628615E+02
 0.26495548743E+02 0.20294689245E+02 0.17279038036E+02 0.14988887553E+02 0.13443866673E+02
 0.12613086665E+02 0.12319375999E+02 0.12365227142E+02 0.12580003065E+02 0.12825690243E+02
 0.13005616889E+02 0.16587863258E+02 0.16428121429E+02 0.15973346379E+02 0.15300221630E+02
 0.14538484002E+02 0.13857486600E+02 0.13443866673E+02 0.13480482800E+02 0.14117079282E+02
 0.15414664742E+02 0.17279038036E+02 0.19535749039E+02 0.23242513325E+02 0.29270383212E+02
 0.36486226634E+02 0.42439693096E+02 0.44749873180E+02 0.42439693096E+02 0.36486226634E+02
 0.29270383212E+02 0.23242513325E+02 0.19535749039E+02 0.17279038036E+02 0.15414664742E+02
 0.14117079282E+02 0.13480482800E+02 0.13443866673E+02 0.13857486600E+02 0.14538484002E+02
 0.15300221630E+02 0.15973346379E+02 0.16428121429E+02 0.23234378005E+02 0.22593852145E+02
 0.21013892998E+02 0.19232253921E+02 0.17709187021E+02 0.16263409711E+02 0.14988887553E+02
 0.14117079282E+02 0.13807709448E+02 0.14117079282E+02 0.14988887553E+02 0.16263409711E+02
 0.17709187021E+02 0.19232253921E+02 0.21013892998E+02 0.22593852145E+02 0.23234378005E+02
 0.22593852145E+02 0.21013892998E+02 0.19232253921E+02 0.17709187021E+02 0.16263409711E+02
 0.14988887553E+02 0.14117079282E+02 0.13807709448E+02 0.14117079282E+02 0.14988887553E+02
 0.16263409711E+02 0.17709187021E+02 0.19232253921E+02 0.21013892998E+02 0.22593852145E+02
 0.44749873180E+02 0.42439693096E+02 0.36486226634E+02 0.29270383212E+02 0.23242513325E+02
 0.19535749039E+02 0.17279038036E+02 0.15414664742E+02 0.14117079282E+02 0.13480482800E+02
 0.13443866673E+02 0.13857486600E+02 0.14538484002E+02 0.15300221630E+02 0.15973346379E+02
 0.16428121429E+02 0.16587863258E+02 0.16428121429E+02 0.15973346379E+02 0.15300221630E+02
 0.14538484002E+02 0.13857486600E+02 0.13443866673E+02 0.13480482800E+02 0.14117079282E+02
 0.15414664742E+02 0.17279038036E+02 0.19535749039E+02 0.23242513325E+02 0.29270383212E+02
 0.36486226634E+02 0.42439693096E+02 0.94026891951E+02 0.88598897211E+02 0.74217327837E+02
 0.55685999422E+02 0.38504628615E+02 0.26495548743E+02 0.20294689245E+02 0.17279038036E+02
 0.14988887553E+02 0.13443866673E+02 0.12613086665E+02 0.12319375999E+02 0.12365227142E+02
 0.12580003065E+02 0.12825690243E+02 0.13005616889E+02 0.13070093249E+02 0.13005616889E+02
 0.12825690243E+02 0.12580003065E+02 0.12365227142E+02 0.12319375999E+02 0.12613086665E+02
 0.13443866673E+02 0.14988887553E+02 0.17279038036E+02 0.20294689245E+02 0.26495548743E+02
 0.38504628615E+02 0.55685999422E+02 0.74217327837E+02 0.88598897211E+02 0.17732980272E+03
 0.16736189251E+03 0.14056098102E+03 0.10486426090E+03 0.69727515260E+02 0.42585536452E+02
 0.26495548743E+02 0.19535749039E+02 0.16263409711E+02 0.13857486600E+02 0.12319375999E+02
 0.11461674127E+02 0.11044818397E+02 0.10875132300E+02 0.10815015519E+02 0.10789215859E+02
 0.10779825854E+02 0.10789215859E+02 0.10815015519E+02 0.10875132300E+02 0.11044818397E+02
 0.11461674127E+02 0.12319375999E+02 0.13857486600E+02 0.16263409711E+02 0.19535749039E+02
 0.26495548743E+02 0.42585536452E+02 0.69727515260E+02 0.10486426090E+03 0.14056098102E+03
 0.16736189251E+03 0.29139007931E+03 0.27575243789E+03 0.23338949450E+03 0.17596515111E+03
 0.11754353394E+03 0.69727515260E+02 0.38504628615E+02 0.23242513325E+02 0.17709187021E+02
 0.14538484002E+02 0.12365227142E+02 0.11044818397E+02 0.10298377595E+02 0.98879319980E+01
 0.96473288836E+01 0.94987206069E+01 0.94440223371E+01 0.94987206069E+01 0.96473288836E+01
 0.98879319980E+01 0.10298377595E+02 0.11044818397E+02 0.12365227142E+02 0.14538484002E+02
 0.17709187021E+02 0.23242513325E+02 0.38504628615E+02 0.69727515260E+02 0.11754353394E+03
 0.17596515111E+03 0.23338949450E+03 0.27575243789E+03 0.42249021502E+03 0.40063947728E+03
 0.34124519043E+03 0.26004163060E+03 0.17596515111E+03 0.10486426090E+03 0.55685999422E+02
 0.29270383212E+02 0.19232253921E+02 0.15300221630E+02 0.12580003065E+02 0.10875132300E+02
 0.98879319980E+01 0.93321619986E+01 0.89974026853E+01 0.87856840751E+01 0.87068680966E+01
 0.87856840751E+01 0.89974026853E+01 0.93321619986E+01 0.98879319980E+01 0.10875132300E+02
 0.12580003065E+02 0.15300221630E+02 0.19232253921E+02 0.29270383212E+02 0.55685999422E+02
 0.10486426090E+03 0.17596515111E+03 0.26004163060E+03 0.34124519043E+03 0.40063947728E+03
 0.54748303070E+03 0.51981736210E+03 0.44453350742E+03 0.34124519043E+03 0.23338949450E+03
 0.14056098102E+03 0.74217327837E+02 0.36486226634E+02 0.21013892998E+02 0.15973346379E+02
 0.12825690243E+02 0.10815015519E+02 0.96473288836E+01 0.89974026853E+01 0.86111259936E+01
 0.83659701374E+01 0.82738460527E+01 0.83659701374E+01 0.86111259936E+01 0.89974026853E+01
 0.96473288836E+01 0.10815015519E+02 0.12825690243E+02 0.15973346379E+02 0.21013892998E+02
 0.36486226634E+02 0.74217327837E+02 0.14056098102E+03 0.23338949450E+03 0.34124519043E+03
 0.44453350742E+03 0.51981736210E+03 0.63847360267E+03 0.60659061706E+03 0.51981736210E+03
 0.40063947728E+03 0.27575243789E+03 0.16736189251E+03 0.88598897211E+02 0.42439693096E+02
 0.22593852145E+02 0.16428121429E+02 0.13005616889E+02 0.10789215859E+02 0.94987206069E+01
 0.87856840751E+01 0.83659701374E+01 0.80993085773E+01 0.79985520049E+01 0.80993085773E+01
 0.83659701374E+01 0.87856840751E+01 0.94987206069E+01 0.10789215859E+02 0.13005616889E+02
 0.16428121429E+02 0.22593852145E+02 0.42439693096E+02 0.88598897211E+02 0.16736189251E+03
 0.27575243789E+03 0.40063947728E+03 0.51981736210E+03 0.60659061706E+03 0.63847360267E+03
 0.60659061706E+03 0.51981736210E+03 0.40063947728E+03 0.27575243789E+03 0.16736189251E+03
 0.88598897211E+02 0.42439693096E+02 0.22593852145E+02 0.16428121429E+02 0.13005616889E+02
 0.10789215859E+02 0.94987206069E+01 0.87856840751E+01 0.83659701374E+01 0.80993085773E+01
 0.79985520049E+01 0.80993085773E+01 0.83659701374E+01 0.87856840751E+01 0.94987206069E+01
 0.10789215859E+02 0.13005616889E+02 0.16428121429E+02 0.22593852145E+02 0.42439693096E+02
 0.88598897211E+02 0.16736189251E+03 0.27575243789E+03 0.40063947728E+03 0.51981736210E+03
 0.60659061706E+03 0.60659061706E+03 0.57618671169E+03 0.49343923592E+03 0.37981977262E+03
 0.26087981410E+03 0.15791813624E+03 0.83493526075E+02 0.40295401851E+02 0.22010890699E+02
 0.16270254424E+02 0.12942097670E+02 0.10797858554E+02 0.95514188080E+01 0.88618193821E+01
 0.84550385040E+01 0.81967463123E+01 0.80993085773E+01 0.81967463123E+01 0.84550385040E+01
 0.88618193821E+01 0.95514188080E+01 0.10797858554E+02 0.12942097670E+02 0.16270254424E+02
 0.22010890699E+02 0.40295401851E+02 0.83493526075E+02 0.15791813624E+03 0.26087981410E+03
 0.37981977262E+03 0.49343923592E+03 0.57618671169E+03 0.51981736210E+03 0.49343923592E+03
 0.42166739247E+03 0.32324537474E+03 0.22061265100E+03 0.13255079022E+03 0.69987359345E+02
 0.34782814522E+02 0.20573794629E+02 0.15821742115E+02 0.12765242972E+02 0.10821868128E+02
 0.96948527422E+01 0.90666420280E+01 0.86924288024E+01 0.84550385040E+01 0.83659701374E+01
 0.84550385040E+01 0.86924288024E+01 0.90666420280E+01 0.96948527422E+01 0.10821868128E+02
 0.12765242972E+02 0.15821742115E+02 0.20573794629E+02 0.34782814522E+02 0.69987359345E+02
 0.13255079022E+03 0.22061265100E+03 0.32324537474E+03 0.42166739247E+03 0.49343923592E+03
 0.40063947728E+03 0.37981977262E+03 0.32324537474E+03 0.24596454857E+03 0.16610708041E+03
 0.98838351800E+02 0.52643829083E+02 0.28135872782E+02 0.18944681094E+02 0.15160034388E+02
 0.12524269936E+02 0.10878922573E+02 0.99272549781E+01 0.93906215343E+01 0.90666420280E+01
 0.88618193821E+01 0.87856840751E+01 0.88618193821E+01 0.90666420280E+01 0.93906215343E+01
 0.99272549781E+01 0.10878922573E+02 0.12524269936E+02 0.15160034388E+02 0.18944681094E+02
 0.28135872782E+02 0.52643829083E+02 0.98838351800E+02 0.16610708041E+03 0.24596454857E+03
 0.32324537474E+03 0.37981977262E+03 0.27575243789E+03 0.26087981410E+03 0.22061265100E+03
 0.16610708041E+03 0.11081266329E+03 0.65792437147E+02 0.36663195321E+02 0.22625306477E+02
 0.17497239488E+02 0.14413632677E+02 0.12313130626E+02 0.11041212799E+02 0.10322871669E+02
 0.99272549781E+01 0.96948527422E+01 0.95514188080E+01 0.94987206069E+01 0.95514188080E+01
 0.96948527422E+01 0.99272549781E+01 0.10322871669E+02 0.11041212799E+02 0.12313130626E+02
 0.14413632677E+02 0.17497239488E+02 0.22625306477E+02 0.36663195321E+02 0.65792437147E+02
 0.11081266329E+03 0.16610708041E+03 0.22061265100E+03 0.26087981410E+03 0.16736189251E+03
 0.15791813624E+03 0.13255079022E+03 0.98838351800E+02 0.65792437147E+02 0.40450550248E+02
 0.25603866326E+02 0.19235942683E+02 0.16078616044E+02 0.13747708709E+02 0.12264914563E+02
 0.11440802454E+02 0.11041212799E+02 0.10878922573E+02 0.10821868128E+02 0.10797858554E+02
 0.10789215859E+02 0.10797858554E+02 0.10821868128E+02 0.10878922573E+02 0.11041212799E+02
 0.11440802454E+02 0.12264914563E+02 0.13747708709E+02 0.16078616044E+02 0.19235942683E+02
 0.25603866326E+02 0.40450550248E+02 0.65792437147E+02 0.98838351800E+02 0.13255079022E+03
 0.15791813624E+03 0.88598897211E+02 0.83493526075E+02 0.69987359345E+02 0.52643829083E+02
 0.36663195321E+02 0.25603866326E+02 0.19941010705E+02 0.17059481093E+02 0.14834656059E+02
 0.13342500830E+02 0.12544189716E+02 0.12264914563E+02 0.12313130626E+02 0.12524269936E+02
 0.12765242972E+02 0.12942097670E+02 0.13005616889E+02 0.12942097670E+02 0.12765242972E+02
 0.12524269936E+02 0.12313130626E+02 0.12264914563E+02 0.12544189716E+02 0.13342500830E+02
 0.14834656059E+02 0.17059481093E+02 0.19941010705E+02 0.25603866326E+02 0.36663195321E+02
 0.52643829083E+02 0.69987359345E+02 0.83493526075E+02 0.42439693096E+02 0.40295401851E+02
 0.34782814522E+02 0.28135872782E+02 0.22625306477E+02 0.19235942683E+02 0.17059481093E+02
 0.15243571529E+02 0.13986917810E+02 0.13373929548E+02 0.13342500830E+02 0.13747708709E+02
 0.14413632677E+02 0.15160034388E+02 0.15821742115E+02 0.16270254424E+02 0.16428121429E+02
 0.16270254424E+02 0.15821742115E+02 0.15160034388E+02 0.14413632677E+02 0.13747708709E+02
 0.13342500830E+02 0.13373929548E+02 0.13986917810E+02 0.15243571529E+02 0.17059481093E+02
 0.19235942683E+02 0.22625306477E+02 0.28135872782E+02 0.34782814522E+02 0.40295401851E+02
 0.22593852145E+02 0.22010890699E+02 0.20573794629E+02 0.18944681094E+02 0.17497239488E+02
 0.16078616044E+02 0.14834656059E+02 0.13986917810E+02 0.13686667290E+02 0.13986917810E+02
 0.14834656059E+02 0.16078616044E+02 0.17497239488E+02 0.18944681094E+02 0.20573794629E+02
 0.22010890699E+02 0.22593852145E+02 0.22010890699E+02 0.20573794629E+02 0.18944681094E+02
 0.17497239488E+02 0.16078616044E+02 0.14834656059E+02 0.13986917810E+02 0.13686667290E+02
 0.13986917810E+02 0.14834656059E+02 0.16078616044E+02 0.17497239488E+02 0.18944681094E+02
 0.20573794629E+02 0.22010890699E+02 0.16428121429E+02 0.16270254424E+02 0.15821742115E+02
 0.15160034388E+02 0.14413632677E+02 0.13747708709E+02 0.13342500830E+02 0.13373929548E+02
 0.13986917810E+02 0.15243571529E+02 0.17059481093E+02 0.19235942683E+02 0.22625306477E+02
 0.28135872782E+02 0.34782814522E+02 0.40295401851E+02 0.42439693096E+02 0.40295401851E+02
 0.34782814522E+02 0.28135872782E+02 0.22625306477E+02 0.19235942683E+02 0.17059481093E+02
 0.15243571529E+02 0.13986917810E+02 0.13373929548E+02 0.13342500830E+02 0.13747708709E+02
 0.14413632677E+02 0.15160034388E+02 0.15821742115E+02 0.16270254424E+02 0.13005616889E+02
 0.12942097670E+02 0.12765242972E+02 0.12524269936E+02 0.12313130626E+02 0.12264914563E+02
 0.12544189716E+02 0.13342500830E+02 0.14834656059E+02 0.17059481093E+02 0.19941010705E+02
 0.25603866326E+02 0.36663195321E+02 0.52643829083E+02 0.69987359345E+02 0.83493526075E+02
 0.88598897211E+02 0.83493526075E+02 0.69987359345E+02 0.52643829083E+02 0.36663195321E+02
 0.25603866326E+02 0.19941010705E+02 0.17059481093E+02 0.14834656059E+02 0.13342500830E+02
 0.12544189716E+02 0.12264914563E+02 0.12313130626E+02 0.12524269936E+02 0.12765242972E+02
 0.12942097670E+02 0.10789215859E+02 0.10797858554E+02 0.10821868128E+02 0.10878922573E+02
 0.11041212799E+02 0.11440802454E+02 0.12264914563E+02 0.13747708709E+02 0.16078616044E+02
 0.19235942683E+02 0.25603866326E+02 0.40450550248E+02 0.65792437147E+02 0.98838351800E+02
 0.13255079022E+03 0.15791813624E+03 0.16736189251E+03 0.15791813624E+03 0.13255079022E+03
 0.98838351800E+02 0.65792437147E+02 0.40450550248E+02 0.25603866326E+02 0.19235942683E+02
 0.16078616044E+02 0.13747708709E+02 0.12264914563E+02 0.11440802454E+02 0.11041212799E+02
 0.10878922573E+02 0.10821868128E+02 0.10797858554E+02 0.94987206069E+01 0.95514188080E+01
 0.96948527422E+01 0.99272549781E+01 0.10322871669E+02 0.11041212799E+02 0.12313130626E+02
 0.14413632677E+02 0.17497239488E+02 0.22625306477E+02 0.36663195321E+02 0.65792437147E+02
 0.11081266329E+03 0.16610708041E+03 0.22061265100E+03 0.26087981410E+03 0.27575243789E+03
 0.26087981410E+03 0.22061265100E+03 0.16610708041E+03 0.11081266329E+03 0.65792437147E+02
 0.36663195321E+02 0.22625306477E+02 0.17497239488E+02 0.14413632677E+02 0.12313130626E+02
 0.11041212799E+02 0.10322871669E+02 0.99272549781E+01 0.96948527422E+01 0.95514188080E+01
 0.87856840751E+01 0.88618193821E+01 0.90666420280E+01 0.93906215343E+01 0.99272549781E+01
 0.10878922573E+02 0.12524269936E+02 0.15160034388E+02 0.18944681094E+02 0.28135872782E+02
 0.52643829083E+02 0.98838351800E+02 0.16610708041E+03 0.24596454857E+03 0.32324537474E+03
 0.37981977262E+03 0.40063947728E+03 0.37981977262E+03 0.32324537474E+03 0.24596454857E+03
 0.16610708041E+03 0.98838351800E+02 0.52643829083E+02 0.28135872782E+02 0.18944681094E+02
 0.15160034388E+02 0.12524269936E+02 0.10878922573E+02 0.99272549781E+01 0.93906215343E+01
 0.90666420280E+01 0.88618193821E+01 0.83659701374E+01 0.84550385040E+01 0.86924288024E+01
 0.90666420280E+01 0.96948527422E+01 0.10821868128E+02 0.12765242972E+02 0.15821742115E+02
 0.20573794629E+02 0.34782814522E+02 0.69987359345E+02 0.13255079022E+03 0.22061265100E+03
 0.32324537474E+03 0.42166739247E+03 0.49343923592E+03 0.51981736210E+03 0.49343923592E+03
 0.42166739247E+03 0.32324537474E+03 0.22061265100E+03 0.13255079022E+03 0.69987359345E+02
 0.34782814522E+02 0.20573794629E+02 0.15821742115E+02 0.12765242972E+02 0.10821868128E+02
 0.96948527422E+01 0.90666420280E+01 0.86924288024E+01 0.84550385040E+01 0.80993085773E+01
 0.81967463123E+01 0.84550385040E+01 0.88618193821E+01 0.95514188080E+01 0.10797858554E+02
 0.12942097670E+02 0.16270254424E+02 0.22010890699E+02 0.40295401851E+02 0.83493526075E+02
 0.15791813624E+03 0.26087981410E+03 0.37981977262E+03 0.49343923592E+03 0.57618671169E+03
 0.60659061706E+03 0.57618671169E+03 0.49343923592E+03 0.37981977262E+03 0.26087981410E+03
 0.15791813624E+03 0.83493526075E+02 0.40295401851E+02 0.22010890699E+02 0.16270254424E+02
 0.12942097670E+02 0.10797858554E+02 0.95514188080E+01 0.88618193821E+01 0.84550385040E+01
 0.81967463123E+01 0.79985520049E+01 0.80993085773E+01 0.83659701374E+01 0.87856840751E+01
 0.94987206069E+01 0.10789215859E+02 0.13005616889E+02 0.16428121429E+02 0.22593852145E+02
 0.42439693096E+02 0.88598897211E+02 0.16736189251E+03 0.27575243789E+03 0.40063947728E+03
 0.51981736210E+03 0.60659061706E+03 0.63847360267E+03 0.60659061706E+03 0.51981736210E+03
 0.40063947728E+03 0.27575243789E+03 0.16736189251E+03 0.88598897211E+02 0.42439693096E+02
 0.22593852145E+02 0.16428121429E+02 0.13005616889E+02 0.10789215859E+02 0.94987206069E+01
 0.87856840751E+01 0.83659701374E+01 0.80993085773E+01 0.80993085773E+01 0.81967463123E+01
 0.84550385040E+01 0.88618193821E+01 0.95514188080E+01 0.10797858554E+02 0.12942097670E+02
 0.16270254424E+02 0.22010890699E+02 0.40295401851E+02 0.83493526075E+02 0.15791813624E+03
 0.26087981410E+03 0.37981977262E+03 0.49343923592E+03 0.57618671169E+03 0.60659061706E+03
 0.57618671169E+03 0.49343923592E+03 0.37981977262E+03 0.26087981410E+03 0.15791813624E+03
 0.83493526075E+02 0.40295401851E+02 0.22010890699E+02 0.16270254424E+02 0.12942097670E+02
 0.10797858554E+02 0.95514188080E+01 0.88618193821E+01 0.84550385040E+01 0.81967463123E+01
 0.83659701374E+01 0.84550385040E+01 0.86924288024E+01 0.90666420280E+01 0.96948527422E+01
 0.10821868128E+02 0.12765242972E+02 0.15821742115E+02 0.20573794629E+02 0.34782814522E+02
 0.69987359345E+02 0.13255079022E+03 0.22061265100E+03 0.32324537474E+03 0.42166739247E+03
 0.49343923592E+03 0.51981736210E+03 0.49343923592E+03 0.42166739247E+03 0.32324537474E+03
 0.22061265100E+03 0.13255079022E+03 0.69987359345E+02 0.34782814522E+02 0.20573794629E+02