       N       E                     dE             d eps       ncg     rms          rms(c)
DAV:   1     0.284061185503E+03    0.28406E+03   -0.14269E+04  2300   0.193E+03
DAV:   2     0.553435860366E+01   -0.27853E+03   -0.26836E+03  2100   0.346E+02
DAV:   3    -0.169425546106E+02   -0.22477E+02   -0.21636E+02  2286   0.139E+02
DAV:   4    -0.173975954006E+02   -0.45504E+00   -0.45461E+00  2394   0.266E+01
DAV:   5    -0.174053500486E+02   -0.77546E-02   -0.77544E-02  2550   0.339E+00    0.156E+01
DAV:   6    -0.144761547566E+02    0.29292E+01   -0.22480E+01  2334   0.102E+02    0.497E+00
DAV:   7    -0.137168033960E+02    0.75935E+00   -0.32509E+00  2384   0.372E+01    0.146E+00
DAV:   8    -0.136497856914E+02    0.67018E-01   -0.45669E-02  2920   0.213E+00    0.531E-01
DAV:   9    -0.136438703194E+02    0.59154E-02   -0.50539E-03  2766   0.140E+00    0.555E-02
DAV:  10    -0.136439075688E+02   -0.37249E-04   -0.69631E-04  2990   0.317E-01    0.185E-02
DAV:  11    -0.136439037525E+02    0.38163E-05   -0.11059E-04  2362   0.172E-01    0.620E-03
DAV:  12    -0.136439058653E+02   -0.21127E-05   -0.43175E-06  2208   0.392E-02    0.238E-03
DAV:  13    -0.136439055126E+02    0.35270E-06   -0.46663E-07  1302   0.115E-02
   1 F= -.13643906E+02 E0= -.13643564E+02  d E =-.102545E-02
