unknown system                          
   1.00000000000000     
     3.501570    0.000000    0.000000
     0.000000    3.501570    0.000000
     0.000000    0.000000    3.501570
   Fe
     4
Direct
  0.000000  0.000000  0.000000
  0.500000  0.500000  0.000000
  0.500000  0.000000  0.500000
  0.000000  0.500000  0.500000
 
   32   32   32
  361.05      344.23      298.54      235.82      169.56      110.54      65.277      36.108      21.377      15.900    
  13.290      11.490      10.368      9.7016      9.2910      9.0346      8.9408      9.0346      9.2910      9.7016    
  10.368      11.490      13.290      15.900      21.377      36.108      65.277      110.54      169.56      235.82    
  298.54      344.23      344.23      328.19      284.59      224.71      161.45      105.17      62.166      34.647    
  20.907      15.819      13.278      11.526      10.433      9.7819      9.3786      9.1267      9.0346      9.1267    
  9.3786      9.7819      10.433      11.526      13.278      15.819      20.907      34.647      62.166      105.17    
  161.45      224.71      284.59      328.19      298.54      284.59      246.65      194.48      139.40      90.652    
  53.848      30.828      19.728      15.605      13.245      11.628      10.616      10.004      9.6194      9.3786    
  9.2910      9.3786      9.6194      10.004      10.616      11.628      13.245      15.605      19.728      30.828    
  53.848      90.652      139.40      194.48      246.65      284.59      235.82      224.71      194.48      152.93    
  109.25      71.036      42.897      26.037      18.368      15.292      13.209      11.798      10.909      10.358    
  10.004      9.7819      9.7016      9.7819      10.004      10.358      10.909      11.798      13.209      15.292    
  18.368      26.037      42.897      71.036      109.25      152.93      194.48      224.71      169.56      161.45    
  139.40      109.25      77.906      51.154      32.303      21.775      17.271      14.937      13.221      12.079    
  11.359      10.909      10.616      10.433      10.368      10.433      10.616      10.909      11.359      12.079    
  13.221      14.937      17.271      21.775      32.303      51.154      77.906      109.25      139.40      161.45    
  110.54      105.17      90.652      71.036      51.154      34.925      24.300      18.922      16.439      14.634    
  13.364      12.559      12.079      11.798      11.628      11.526      11.490      11.526      11.628      11.798    
  12.079      12.559      13.364      14.634      16.439      18.922      24.300      34.925      51.154      71.036    
  90.652      105.17      65.277      62.166      53.848      42.897      32.303      24.300      19.616      17.316    
  15.697      14.496      13.748      13.364      13.221      13.209      13.245      13.278      13.290      13.278    
  13.245      13.209      13.221      13.364      13.748      14.496      15.697      17.316      19.616      24.300    
  32.303      42.897      53.848      62.166      36.108      34.647      30.828      26.037      21.775      18.922    
  17.316      16.095      15.171      14.644      14.496      14.634      14.937      15.292      15.605      15.819    
  15.900      15.819      15.605      15.292      14.937      14.634      14.496      14.644      15.171      16.095    
  17.316      18.922      21.775      26.037      30.828      34.647      21.377      20.907      19.728      18.368    
  17.271      16.439      15.697      15.171      14.981      15.171      15.697      16.439      17.271      18.368    
  19.728      20.907      21.377      20.907      19.728      18.368      17.271      16.439      15.697      15.171    
  14.981      15.171      15.697      16.439      17.271      18.368      19.728      20.907      15.900      15.819    
  15.605      15.292      14.937      14.634      14.496      14.644      15.171      16.095      17.316      18.922    
  21.775      26.037      30.828      34.647      36.108      34.647      30.828      26.037      21.775      18.922    
  17.316      16.095      15.171      14.644      14.496      14.634      14.937      15.292      15.605      15.819    
  13.290      13.278      13.245      13.209      13.221      13.364      13.748      14.496      15.697      17.316    
  19.616      24.300      32.303      42.897      53.848      62.166      65.277      62.166      53.848      42.897    
  32.303      24.300      19.616      17.316      15.697      14.496      13.748      13.364      13.221      13.209    
  13.245      13.278      11.490      11.526      11.628      11.798      12.079      12.559      13.364      14.634    
  16.439      18.922      24.300      34.925      51.154      71.036      90.652      105.17      110.54      105.17    
  90.652      71.036      51.154      34.925      24.300      18.922      16.439      14.634      13.364      12.559    
  12.079      11.798      11.628      11.526      10.368      10.433      10.616      10.909      11.359      12.079    
  13.221      14.937      17.271      21.775      32.303      51.154      77.906      109.25      139.40      161.45    
  169.56      161.45      139.40      109.25      77.906      51.154      32.303      21.775      17.271      14.937    
  13.221      12.079      11.359      10.909      10.616      10.433      9.7016      9.7819      10.004      10.358    
  10.909      11.798      13.209      15.292      18.368      26.037      42.897      71.036      109.25      152.93    
  194.48      224.71      235.82      224.71      194.48      152.93      109.25      71.036      42.897      26.037    
  18.368      15.292      13.209      11.798      10.909      10.358      10.004      9.7819      9.2910      9.3786    
  9.6194      10.004      10.616      11.628      13.245      15.605      19.728      30.828      53.848      90.652    
  139.40      194.48      246.65      284.59      298.54      284.59      246.65      194.48      139.40      90.652    
  53.848      30.828      19.728      15.605      13.245      11.628      10.616      10.004      9.6194      9.3786    
  9.0346      9.1267      9.3786      9.7819      10.433      11.526      13.278      15.819      20.907      34.647    
  62.166      105.17      161.45      224.71      284.59      328.19      344.23      328.19      284.59      224.71    
  161.45      105.17      62.166      34.647      20.907      15.819      13.278      11.526      10.433      9.7819    
  9.3786      9.1267      8.9408      9.0346      9.2910      9.7016      10.368      11.490      13.290      15.900    
  21.377      36.108      65.277      110.54      169.56      235.82      298.54      344.23      361.05      344.23    
  298.54      235.82      169.56      110.54      65.277      36.108      21.377      15.900      13.290      11.490    
  10.368      9.7016      9.2910      9.0346      9.0346      9.1267      9.3786      9.7819      10.433      11.526    
  13.278      15.819      20.907      34.647      62.166      105.17      161.45      224.71      284.59      328.19    
  344.23      328.19      284.59      224.71      161.45      105.17      62.166      34.647      20.907      15.819    
  13.278      11.526      10.433      9.7819      9.3786      9.1267      9.2910      9.3786      9.6194      10.004    
  10.616      11.628      13.245      15.605      19.728      30.828      53.848      90.652      139.40      194.48    
  246.65      284.59      298.54      284.59      246.65      194.48      139.40      90.652      53.848      30.828    
  19.728      15.605      13.245      11.628      10.616      10.004      9.6194      9.3786      9.7016      9.7819    
  10.004      10.358      10.909      11.798      13.209      15.292      18.368      26.037      42.897      71.036    
  109.25      152.93      194.48      224.71      235.82      224.71      194.48      152.93      109.25      71.036    
  42.897      26.037      18.368      15.292      13.209      11.798      10.909      10.358      10.004      9.7819    
  10.368      10.433      10.616      10.909      11.359      12.079      13.221      14.937      17.271      21.775    
  32.303      51.154      77.906      109.25      139.40      161.45      169.56      161.45      139.40      109.25    
  77.906      51.154      32.303      21.775      17.271      14.937      13.221      12.079      11.359      10.909    
  10.616      10.433      11.490      11.526      11.628      11.798      12.079      12.559      13.364      14.634    
  16.439      18.922      24.300      34.925      51.154      71.036      90.652      105.17      110.54      105.17    
  90.652      71.036      51.154      34.925      24.300      18.922      16.439      14.634      13.364      12.559    
  12.079      11.798      11.628      11.526      13.290      13.278      13.245      13.209      13.221      13.364    
  13.748      14.496      15.697      17.316      19.616      24.300      32.303      42.897      53.848      62.166    
  65.277      62.166      53.848      42.897      32.303      24.300      19.616      17.316      15.697      14.496    
  13.748      13.364      13.221      13.209      13.245      13.278      15.900      15.819      15.605      15.292    
  14.937      14.634      14.496      14.644      15.171      16.095      17.316      18.922      21.775      26.037    
  30.828      34.647      36.108      34.647      30.828      26.037      21.775      18.922      17.316      16.095    
  15.171      14.644      14.496      14.634      14.937      15.292      15.605      15.819      21.377      20.907    
  19.728      18.368      17.271      16.439      15.697      15.171      14.981      15.171      15.697      16.439    
  17.271      18.368      19.728      20.907      21.377      20.907      19.728      18.368      17.271      16.439    
  15.697      15.171      14.981      15.171      15.697      16.439      17.271      18.368      19.728      20.907    
  36.108      34.647      30.828      26.037      21.775      18.922      17.316      16.095      15.171      14.644    
  14.496      14.634      14.937      15.292      15.605      15.819      15.900      15.819      15.605      15.292    
  14.937      14.634      14.496      14.644      15.171      16.095      17.316      18.922      21.775      26.037    
  30.828      34.647      65.277      62.166      53.848      42.897      32.303      24.300      19.616      17.316    
  15.697      14.496      13.748      13.364      13.221      13.209      13.245      13.278      13.290      13.278    
  13.245      13.209      13.221      13.364      13.748      14.496      15.697      17.316      19.616      24.300    
  32.303      42.897      53.848      62.166      110.54      105.17      90.652      71.036      51.154      34.925    
  24.300      18.922      16.439      14.634      13.364      12.559      12.079      11.798      11.628      11.526    
  11.490      11.526      11.628      11.798      12.079      12.559      13.364      14.634      16.439      18.922    
  24.300      34.925      51.154      71.036      90.652      105.17      169.56      161.45      139.40      109.25    
  77.906      51.154      32.303      21.775      17.271      14.937      13.221      12.079      11.359      10.909    
  10.616      10.433      10.368      10.433      10.616      10.909      11.359      12.079      13.221      14.937    
  17.271      21.775      32.303      51.154      77.906      109.25      139.40      161.45      235.82      224.71    
  194.48      152.93      109.25      71.036      42.897      26.037      18.368      15.292      13.209      11.798    
  10.909      10.358      10.004      9.7819      9.7016      9.7819      10.004      10.358      10.909      11.798    
  13.209      15.292      18.368      26.037      42.897      71.036      109.25      152.93      194.48      224.71    
  298.54      284.59      246.65      194.48      139.40      90.652      53.848      30.828      19.728      15.605    
  13.245      11.628      10.616      10.004      9.6194      9.3786      9.2910      9.3786      9.6194      10.004    
  10.616      11.628      13.245      15.605      19.728      30.828      53.848      90.652      139.40      194.48    
  246.65      284.59      344.23      328.19      284.59      224.71      161.45      105.17      62.166      34.647    
  20.907      15.819      13.278      11.526      10.433      9.7819      9.3786      9.1267      9.0346      9.1267    
  9.3786      9.7819      10.433      11.526      13.278      15.819      20.907      34.647      62.166      105.17    
  161.45      224.71      284.59      328.19      344.23      328.19      284.59      224.71      161.45      105.17    
  62.166      34.647      20.907      15.819      13.278      11.526      10.433      9.7819      9.3786      9.1267    
  9.0346      9.1267      9.3786      9.7819      10.433      11.526      13.278      15.819      20.907      34.647    
  62.166      105.17      161.45      224.71      284.59      328.19      328.19      312.88      271.28      214.11    
  153.71      100.06      59.222      33.279      20.474      15.741      13.265      11.561      10.497      9.8603    
  9.4644      9.2170      9.1267      9.2170      9.4644      9.8603      10.497      11.561      13.265      15.741    
  20.474      33.279      59.222      100.06      153.71      214.11      271.28      312.88      284.59      271.28    
  235.06      185.25      132.69      86.260      51.360      29.706      19.388      15.529      13.229      11.659    
  10.675      10.077      9.7004      9.4644      9.3786      9.4644      9.7004      10.077      10.675      11.659    
  13.229      15.529      19.388      29.706      51.360      86.260      132.69      185.25      235.06      271.28    
  224.71      214.11      185.25      145.61      103.96      67.640      41.034      25.241      18.137      15.214    
  13.189      11.822      10.959      10.423      10.077      9.8603      9.7819      9.8603      10.077      10.423    
  10.959      11.822      13.189      15.214      18.137      25.241      41.034      67.640      103.96      145.61    
  185.25      214.11      161.45      153.71      132.69      103.96      74.163      48.823      31.090      21.293    
  17.118      14.858      13.195      12.092      11.396      10.959      10.675      10.497      10.433      10.497    
  10.675      10.959      11.396      12.092      13.195      14.858      17.118      21.293      31.090      48.823    
  74.163      103.96      132.69      153.71      105.17      100.06      86.260      67.640      48.823      33.547    
  23.634      18.663      16.304      14.553      13.328      12.553      12.092      11.822      11.659      11.561    
  11.526      11.561      11.659      11.822      12.092      12.553      13.328      14.553      16.304      18.663    
  23.634      33.547      48.823      67.640      86.260      100.06      62.166      59.222      51.360      41.034    
  31.090      23.634      19.307      17.147      15.572      14.412      13.694      13.328      13.195      13.189    
  13.229      13.265      13.278      13.265      13.229      13.189      13.195      13.328      13.694      14.412    
  15.572      17.147      19.307      23.634      31.090      41.034      51.360      59.222      34.647      33.279    
  29.706      25.241      21.293      18.663      17.147      15.953      15.057      14.550      14.412      14.553    
  14.858      15.214      15.529      15.741      15.819      15.741      15.529      15.214      14.858      14.553    
  14.412      14.550      15.057      15.953      17.147      18.663      21.293      25.241      29.706      33.279    
  20.907      20.474      19.388      18.137      17.118      16.304      15.572      15.057      14.871      15.057    
  15.572      16.304      17.118      18.137      19.388      20.474      20.907      20.474      19.388      18.137    
  17.118      16.304      15.572      15.057      14.871      15.057      15.572      16.304      17.118      18.137    
  19.388      20.474      15.819      15.741      15.529      15.214      14.858      14.553      14.412      14.550    
  15.057      15.953      17.147      18.663      21.293      25.241      29.706      33.279      34.647      33.279    
  29.706      25.241      21.293      18.663      17.147      15.953      15.057      14.550      14.412      14.553    
  14.858      15.214      15.529      15.741      13.278      13.265      13.229      13.189      13.195      13.328    
  13.694      14.412      15.572      17.147      19.307      23.634      31.090      41.034      51.360      59.222    
  62.166      59.222      51.360      41.034      31.090      23.634      19.307      17.147      15.572      14.412    
  13.694      13.328      13.195      13.189      13.229      13.265      11.526      11.561      11.659      11.822    
  12.092      12.553      13.328      14.553      16.304      18.663      23.634      33.547      48.823      67.640    
  86.260      100.06      105.17      100.06      86.260      67.640      48.823      33.547      23.634      18.663    
  16.304      14.553      13.328      12.553      12.092      11.822      11.659      11.561      10.433      10.497    
  10.675      10.959      11.396      12.092      13.195      14.858      17.118      21.293      31.090      48.823    
  74.163      103.96      132.69      153.71      161.45      153.71      132.69      103.96      74.163      48.823    
  31.090      21.293      17.118      14.858      13.195      12.092      11.396      10.959      10.675      10.497    
  9.7819      9.8603      10.077      10.423      10.959      11.822      13.189      15.214      18.137      25.241    
  41.034      67.640      103.96      145.61      185.25      214.11      224.71      214.11      185.25      145.61    
  103.96      67.640      41.034      25.241      18.137      15.214      13.189      11.822      10.959      10.423    
  10.077      9.8603      9.3786      9.4644      9.7004      10.077      10.675      11.659      13.229      15.529    
  19.388      29.706      51.360      86.260      132.69      185.25      235.06      271.28      284.59      271.28    
  235.06      185.25      132.69      86.260      51.360      29.706      19.388      15.529      13.229      11.659    
  10.675      10.077      9.7004      9.4644      9.1267      9.2170      9.4644      9.8603      10.497      11.561    
  13.265      15.741      20.474      33.279      59.222      100.06      153.71      214.11      271.28      312.88    
  328.19      312.88      271.28      214.11      153.71      100.06      59.222      33.279      20.474      15.741    
  13.265      11.561      10.497      9.8603      9.4644      9.2170      9.0346      9.1267      9.3786      9.7819    
  10.433      11.526      13.278      15.819      20.907      34.647      62.166      105.17      161.45      224.71    
  284.59      328.19      344.23      328.19      284.59      224.71      161.45      105.17      62.166      34.647    
  20.907      15.819      13.278      11.526      10.433      9.7819      9.3786      9.1267      9.1267      9.2170    
  9.4644      9.8603      10.497      11.561      13.265      15.741      20.474      33.279      59.222      100.06    
  153.71      214.11      271.28      312.88      328.19      312.88      271.28      214.11      153.71      100.06    
  59.222      33.279      20.474      15.741      13.265      11.561      10.497      9.8603      9.4644      9.2170    
  9.3786      9.4644      9.7004      10.077      10.675      11.659      13.229      15.529      19.388      29.706    
  51.360      86.260      132.69      185.25      235.06      271.28      284.59      271.28      235.06      185.25    
  132.69      86.260      51.360      29.706      19.388      15.529      13.229      11.659      10.675      10.077    
  9.7004      9.4644      9.7819      9.8603      10.077      10.423      10.959      11.822      13.189      15.214    
  18.137      25.241      41.034      67.640      103.96      145.61      185.25      214.11      224.71      214.11    
  185.25      145.61      103.96      67.640      41.034      25.241      18.137      15.214      13.189      11.822    
  10.959      10.423      10.077      9.8603      10.433      10.497      10.675      10.959      11.396      12.092    
  13.195      14.858      17.118      21.293      31.090      48.823      74.163      103.96      132.69      153.71    
  161.45      153.71      132.69      103.96      74.163      48.823      31.090      21.293      17.118      14.858    
  13.195      12.092      11.396      10.959      10.675      10.497      11.526      11.561      11.659      11.822    
  12.092      12.553      13.328      14.553      16.304      18.663      23.634      33.547      48.823      67.640    
  86.260      100.06      105.17      100.06      86.260      67.640      48.823      33.547      23.634      18.663    
  16.304      14.553      13.328      12.553      12.092      11.822      11.659      11.561      13.278      13.265    
  13.229      13.189      13.195      13.328      13.694      14.412      15.572      17.147      19.307      23.634    
  31.090      41.034      51.360      59.222      62.166      59.222      51.360      41.034      31.090      23.634    
  19.307      17.147      15.572      14.412      13.694      13.328      13.195      13.189      13.229      13.265    
  15.819      15.741      15.529      15.214      14.858      14.553      14.412      14.550      15.057      15.953    
  17.147      18.663      21.293      25.241      29.706      33.279      34.647      33.279      29.706      25.241    
  21.293      18.663      17.147      15.953      15.057      14.550      14.412      14.553      14.858      15.214    
  15.529      15.741      20.907      20.474      19.388      18.137      17.118      16.304      15.572      15.057    
  14.871      15.057      15.572      16.304      17.118      18.137      19.388      20.474      20.907      20.474    
  19.388      18.137      17.118      16.304      15.572      15.057      14.871      15.057      15.572      16.304    
  17.118      18.137      19.388      20.474      34.647      33.279      29.706      25.241      21.293      18.663    
  17.147      15.953      15.057      14.550      14.412      14.553      14.858      15.214      15.529      15.741    
  15.819      15.741      15.529      15.214      14.858      14.553      14.412      14.550      15.057      15.953    
  17.147      18.663      21.293      25.241      29.706      33.279      62.166      59.222      51.360      41.034    
  31.090      23.634      19.307      17.147      15.572      14.412      13.694      13.328      13.195      13.189    
  13.229      13.265      13.278      13.265      13.229      13.189      13.195      13.328      13.694      14.412    
  15.572      17.147      19.307      23.634      31.090      41.034      51.360      59.222      105.17      100.06    
  86.260      67.640      48.823      33.547      23.634      18.663      16.304      14.553      13.328      12.553    
  12.092      11.822      11.659      11.561      11.526      11.561      11.659      11.822      12.092      12.553    
  13.328      14.553      16.304      18.663      23.634      33.547      48.823      67.640      86.260      100.06    
  161.45      153.71      132.69      103.96      74.163      48.823      31.090      21.293      17.118      14.858    
  13.195      12.092      11.396      10.959      10.675      10.497      10.433      10.497      10.675      10.959    
  11.396      12.092      13.195      14.858      17.118      21.293      31.090      48.823      74.163      103.96    
  132.69      153.71      224.71      214.11      185.25      145.61      103.96      67.640      41.034      25.241    
  18.137      15.214      13.189      11.822      10.959      10.423      10.077      9.8603      9.7819      9.8603    
  10.077      10.423      10.959      11.822      13.189      15.214      18.137      25.241      41.034      67.640    
  103.96      145.61      185.25      214.11      284.59      271.28      235.06      185.25      132.69      86.260    
  51.360      29.706      19.388      15.529      13.229      11.659      10.675      10.077      9.7004      9.4644    
  9.3786      9.4644      9.7004      10.077      10.675      11.659      13.229      15.529      19.388      29.706    
  51.360      86.260      132.69      185.25      235.06      271.28      328.19      312.88      271.28      214.11    
  153.71      100.06      59.222      33.279      20.474      15.741      13.265      11.561      10.497      9.8603    
  9.4644      9.2170      9.1267      9.2170      9.4644      9.8603      10.497      11.561      13.265      15.741    
  20.474      33.279      59.222      100.06      153.71      214.11      271.28      312.88      298.54      284.59    
  246.65      194.48      139.40      90.652      53.848      30.828      19.728      15.605      13.245      11.628    
  10.616      10.004      9.6194      9.3786      9.2910      9.3786      9.6194      10.004      10.616      11.628    
  13.245      15.605      19.728      30.828      53.848      90.652      139.40      194.48      246.65      284.59    
  284.59      271.28      235.06      185.25      132.69      86.260      51.360      29.706      19.388      15.529    
  13.229      11.659      10.675      10.077      9.7004      9.4644      9.3786      9.4644      9.7004      10.077    
  10.675      11.659      13.229      15.529      19.388      29.706      51.360      86.260      132.69      185.25    
  235.06      271.28      246.65      235.06      203.52      160.15      114.49      74.417      44.738      26.792    
  18.539      15.312      13.186      11.746      10.839      10.281      9.9243      9.7004      9.6194      9.7004    
  9.9243      10.281      10.839      11.746      13.186      15.312      18.539      26.792      44.738      74.417    
  114.49      160.15      203.52      235.06      194.48      185.25      160.15      125.70      89.667      58.522    
  36.111      23.192      17.557      14.993      13.137      11.891      11.101      10.605      10.281      10.077    
  10.004      10.077      10.281      10.605      11.101      11.891      13.137      14.993      17.557      23.192    
  36.111      58.522      89.667      125.70      160.15      185.25      139.40      132.69      114.49      89.667    
  64.091      42.618      27.922      20.064      16.709      14.637      13.127      12.130      11.500      11.101    
  10.839      10.675      10.616      10.675      10.839      11.101      11.500      12.130      13.127      14.637    
  16.709      20.064      27.922      42.618      64.091      89.667      114.49      132.69      90.652      86.260    
  74.417      58.522      42.618      29.930      21.921      17.997      15.927      14.333      13.232      12.541    
  12.130      11.891      11.746      11.659      11.628      11.659      11.746      11.891      12.130      12.541    
  13.232      14.333      15.927      17.997      21.921      29.930      42.618      58.522      74.417      86.260    
  53.848      51.360      44.738      36.111      27.922      21.921      18.514      16.676      15.229      14.184    
  13.548      13.232      13.127      13.137      13.186      13.229      13.245      13.229      13.186      13.137    
  13.127      13.232      13.548      14.184      15.229      16.676      18.514      21.921      27.922      36.111    
  44.738      51.360      30.828      29.706      26.792      23.192      20.064      17.997      16.676      15.562    
  14.744      14.293      14.184      14.333      14.637      14.993      15.312      15.529      15.605      15.529    
  15.312      14.993      14.637      14.333      14.184      14.293      14.744      15.562      16.676      17.997    
  20.064      23.192      26.792      29.706      19.728      19.388      18.539      17.557      16.709      15.927    
  15.229      14.744      14.571      14.744      15.229      15.927      16.709      17.557      18.539      19.388    
  19.728      19.388      18.539      17.557      16.709      15.927      15.229      14.744      14.571      14.744    
  15.229      15.927      16.709      17.557      18.539      19.388      15.605      15.529      15.312      14.993    
  14.637      14.333      14.184      14.293      14.744      15.562      16.676      17.997      20.064      23.192    
  26.792      29.706      30.828      29.706      26.792      23.192      20.064      17.997      16.676      15.562    
  14.744      14.293      14.184      14.333      14.637      14.993      15.312      15.529      13.245      13.229    
  13.186      13.137      13.127      13.232      13.548      14.184      15.229      16.676      18.514      21.921    
  27.922      36.111      44.738      51.360      53.848      51.360      44.738      36.111      27.922      21.921    
  18.514      16.676      15.229      14.184      13.548      13.232      13.127      13.137      13.186      13.229    
  11.628      11.659      11.746      11.891      12.130      12.541      13.232      14.333      15.927      17.997    
  21.921      29.930      42.618      58.522      74.417      86.260      90.652      86.260      74.417      58.522    
  42.618      29.930      21.921      17.997      15.927      14.333      13.232      12.541      12.130      11.891    
  11.746      11.659      10.616      10.675      10.839      11.101      11.500      12.130      13.127      14.637    
  16.709      20.064      27.922      42.618      64.091      89.667      114.49      132.69      139.40      132.69    