unknown system                          
   1.00000000000000     
     3.501570    0.000000    0.000000
     0.000000    3.501570    0.000000
     0.000000    0.000000    3.501570
   Fe
     4
Direct
  0.000000  0.000000  0.000000
  0.500000  0.500000  0.000000
  0.500000  0.000000  0.500000
  0.000000  0.500000  0.500000
 
   32   32   32
 0.36105465718E+03 0.34423334200E+03 0.29854293014E+03 0.23581756521E+03 0.16955649107E+03
 0.11053982620E+03 0.65277030125E+02 0.36107647057E+02 0.21376691312E+02 0.15899600881E+02
 0.13289711803E+02 0.11489559449E+02 0.10367805724E+02 0.97016132323E+01 0.92910280308E+01
 0.90346255562E+01 0.89407627552E+01 0.90346255562E+01 0.92910280308E+01 0.97016132323E+01
 0.10367805724E+02 0.11489559449E+02 0.13289711803E+02 0.15899600881E+02 0.21376691312E+02
 0.36107647057E+02 0.65277030125E+02 0.11053982620E+03 0.16955649107E+03 0.23581756521E+03
 0.29854293014E+03 0.34423334200E+03 0.34423334200E+03 0.32818889563E+03 0.28459151520E+03
 0.22470842928E+03 0.16144551555E+03 0.10517017745E+03 0.62165873410E+02 0.34647412021E+02
 0.20907001209E+02 0.15819165487E+02 0.13277950189E+02 0.11525932435E+02 0.10433391569E+02
 0.97818937387E+01 0.93786199824E+01 0.91266990706E+01 0.90346255562E+01 0.91266990706E+01
 0.93786199824E+01 0.97818937387E+01 0.10433391569E+02 0.11525932435E+02 0.13277950189E+02
 0.15819165487E+02 0.20907001209E+02 0.34647412021E+02 0.62165873410E+02 0.10517017745E+03
 0.16144551555E+03 0.22470842928E+03 0.28459151520E+03 0.32818889563E+03 0.29854293014E+03
 0.28459151520E+03 0.24664749897E+03 0.19447874156E+03 0.13940322122E+03 0.90651543920E+02
 0.53848416020E+02 0.30828167238E+02 0.19727944162E+02 0.15604916351E+02 0.13245051150E+02
 0.11628425691E+02 0.10616302027E+02 0.10004043849E+02 0.96193871767E+01 0.93786199824E+01
 0.92910280308E+01 0.93786199824E+01 0.96193871767E+01 0.10004043849E+02 0.10616302027E+02
 0.11628425691E+02 0.13245051150E+02 0.15604916351E+02 0.19727944162E+02 0.30828167238E+02
 0.53848416020E+02 0.90651543920E+02 0.13940322122E+03 0.19447874156E+03 0.24664749897E+03
 0.28459151520E+03 0.23581756521E+03 0.22470842928E+03 0.19447874156E+03 0.15293062792E+03
 0.10924584027E+03 0.71036044736E+02 0.42896786749E+02 0.26037211396E+02 0.18367847518E+02
 0.15292393020E+02 0.13209135160E+02 0.11798493584E+02 0.10908578966E+02 0.10357874278E+02
 0.10004043849E+02 0.97818937387E+01 0.97016132323E+01 0.97818937387E+01 0.10004043849E+02
 0.10357874278E+02 0.10908578966E+02 0.11798493584E+02 0.13209135160E+02 0.15292393020E+02
 0.18367847518E+02 0.26037211396E+02 0.42896786749E+02 0.71036044736E+02 0.10924584027E+03
 0.15293062792E+03 0.19447874156E+03 0.22470842928E+03 0.16955649107E+03 0.16144551555E+03
 0.13940322122E+03 0.10924584027E+03 0.77905744816E+02 0.51154019138E+02 0.32303089910E+02
 0.21775267824E+02 0.17271255521E+02 0.14937320299E+02 0.13220649928E+02 0.12078729508E+02
 0.11358916013E+02 0.10908578966E+02 0.10616302027E+02 0.10433391569E+02 0.10367805724E+02
 0.10433391569E+02 0.10616302027E+02 0.10908578966E+02 0.11358916013E+02 0.12078729508E+02
 0.13220649928E+02 0.14937320299E+02 0.17271255521E+02 0.21775267824E+02 0.32303089910E+02
 0.51154019138E+02 0.77905744816E+02 0.10924584027E+03 0.13940322122E+03 0.16144551555E+03
 0.11053982620E+03 0.10517017745E+03 0.90651543920E+02 0.71036044736E+02 0.51154019138E+02
 0.34924959554E+02 0.24300239116E+02 0.18921985131E+02 0.16438797923E+02 0.14633538129E+02
 0.13363782956E+02 0.12558698033E+02 0.12078729508E+02 0.11798493584E+02 0.11628425691E+02
 0.11525932435E+02 0.11489559449E+02 0.11525932435E+02 0.11628425691E+02 0.11798493584E+02
 0.12078729508E+02 0.12558698033E+02 0.13363782956E+02 0.14633538129E+02 0.16438797923E+02
 0.18921985131E+02 0.24300239116E+02 0.34924959554E+02 0.51154019138E+02 0.71036044736E+02
 0.90651543920E+02 0.10517017745E+03 0.65277030125E+02 0.62165873410E+02 0.53848416020E+02
 0.42896786749E+02 0.32303089910E+02 0.24300239116E+02 0.19615606505E+02 0.17315643059E+02
 0.15697014123E+02 0.14496063265E+02 0.13748200283E+02 0.13363782956E+02 0.13220649928E+02
 0.13209135160E+02 0.13245051150E+02 0.13277950189E+02 0.13289711803E+02 0.13277950189E+02
 0.13245051150E+02 0.13209135160E+02 0.13220649928E+02 0.13363782956E+02 0.13748200283E+02
 0.14496063265E+02 0.15697014123E+02 0.17315643059E+02 0.19615606505E+02 0.24300239116E+02
 0.32303089910E+02 0.42896786749E+02 0.53848416020E+02 0.62165873410E+02 0.36107647057E+02
 0.34647412021E+02 0.30828167238E+02 0.26037211396E+02 0.21775267824E+02 0.18921985131E+02
 0.17315643059E+02 0.16095438241E+02 0.15171498982E+02 0.14644305905E+02 0.14496063265E+02
 0.14633538129E+02 0.14937320299E+02 0.15292393020E+02 0.15604916351E+02 0.15819165487E+02
 0.15899600881E+02 0.15819165487E+02 0.15604916351E+02 0.15292393020E+02 0.14937320299E+02
 0.14633538129E+02 0.14496063265E+02 0.14644305905E+02 0.15171498982E+02 0.16095438241E+02
 0.17315643059E+02 0.18921985131E+02 0.21775267824E+02 0.26037211396E+02 0.30828167238E+02
 0.34647412021E+02 0.21376691312E+02 0.20907001209E+02 0.19727944162E+02 0.18367847518E+02
 0.17271255521E+02 0.16438797923E+02 0.15697014123E+02 0.15171498982E+02 0.14981384881E+02
 0.15171498982E+02 0.15697014123E+02 0.16438797923E+02 0.17271255521E+02 0.18367847518E+02
 0.19727944162E+02 0.20907001209E+02 0.21376691312E+02 0.20907001209E+02 0.19727944162E+02
 0.18367847518E+02 0.17271255521E+02 0.16438797923E+02 0.15697014123E+02 0.15171498982E+02
 0.14981384881E+02 0.15171498982E+02 0.15697014123E+02 0.16438797923E+02 0.17271255521E+02
 0.18367847518E+02 0.19727944162E+02 0.20907001209E+02 0.15899600881E+02 0.15819165487E+02
 0.15604916351E+02 0.15292393020E+02 0.14937320299E+02 0.14633538129E+02 0.14496063265E+02
 0.14644305905E+02 0.15171498982E+02 0.16095438241E+02 0.17315643059E+02 0.18921985131E+02
 0.21775267824E+02 0.26037211396E+02 0.30828167238E+02 0.34647412021E+02 0.36107647057E+02
 0.34647412021E+02 0.30828167238E+02 0.26037211396E+02 0.21775267824E+02 0.18921985131E+02
 0.17315643059E+02 0.16095438241E+02 0.15171498982E+02 0.14644305905E+02 0.14496063265E+02
 0.14633538129E+02 0.14937320299E+02 0.15292393020E+02 0.15604916351E+02 0.15819165487E+02
 0.13289711803E+02 0.13277950189E+02 0.13245051150E+02 0.13209135160E+02 0.13220649928E+02
 0.13363782956E+02 0.13748200283E+02 0.14496063265E+02 0.15697014123E+02 0.17315643059E+02
 0.19615606505E+02 0.24300239116E+02 0.32303089910E+02 0.42896786749E+02 0.53848416020E+02
 0.62165873410E+02 0.65277030125E+02 0.62165873410E+02 0.53848416020E+02 0.42896786749E+02
 0.32303089910E+02 0.24300239116E+02 0.19615606505E+02 0.17315643059E+02 0.15697014123E+02
 0.14496063265E+02 0.13748200283E+02 0.13363782956E+02 0.13220649928E+02 0.13209135160E+02
 0.13245051150E+02 0.13277950189E+02 0.11489559449E+02 0.11525932435E+02 0.11628425691E+02
 0.11798493584E+02 0.12078729508E+02 0.12558698033E+02 0.13363782956E+02 0.14633538129E+02
 0.16438797923E+02 0.18921985131E+02 0.24300239116E+02 0.34924959554E+02 0.51154019138E+02
 0.71036044736E+02 0.90651543920E+02 0.10517017745E+03 0.11053982620E+03 0.10517017745E+03
 0.90651543920E+02 0.71036044736E+02 0.51154019138E+02 0.34924959554E+02 0.24300239116E+02
 0.18921985131E+02 0.16438797923E+02 0.14633538129E+02 0.13363782956E+02 0.12558698033E+02
 0.12078729508E+02 0.11798493584E+02 0.11628425691E+02 0.11525932435E+02 0.10367805724E+02
 0.10433391569E+02 0.10616302027E+02 0.10908578966E+02 0.11358916013E+02 0.12078729508E+02
 0.13220649928E+02 0.14937320299E+02 0.17271255521E+02 0.21775267824E+02 0.32303089910E+02
 0.51154019138E+02 0.77905744816E+02 0.10924584027E+03 0.13940322122E+03 0.16144551555E+03
 0.16955649107E+03 0.16144551555E+03 0.13940322122E+03 0.10924584027E+03 0.77905744816E+02
 0.51154019138E+02 0.32303089910E+02 0.21775267824E+02 0.17271255521E+02 0.14937320299E+02
 0.13220649928E+02 0.12078729508E+02 0.11358916013E+02 0.10908578966E+02 0.10616302027E+02
 0.10433391569E+02 0.97016132323E+01 0.97818937387E+01 0.10004043849E+02 0.10357874278E+02
 0.10908578966E+02 0.11798493584E+02 0.13209135160E+02 0.15292393020E+02 0.18367847518E+02
 0.26037211396E+02 0.42896786749E+02 0.71036044736E+02 0.10924584027E+03 0.15293062792E+03
 0.19447874156E+03 0.22470842928E+03 0.23581756521E+03 0.22470842928E+03 0.19447874156E+03
 0.15293062792E+03 0.10924584027E+03 0.71036044736E+02 0.42896786749E+02 0.26037211396E+02
 0.18367847518E+02 0.15292393020E+02 0.13209135160E+02 0.11798493584E+02 0.10908578966E+02
 0.10357874278E+02 0.10004043849E+02 0.97818937387E+01 0.92910280308E+01 0.93786199824E+01
 0.96193871767E+01 0.10004043849E+02 0.10616302027E+02 0.11628425691E+02 0.13245051150E+02
 0.15604916351E+02 0.19727944162E+02 0.30828167238E+02 0.53848416020E+02 0.90651543920E+02
 0.13940322122E+03 0.19447874156E+03 0.24664749897E+03 0.28459151520E+03 0.29854293014E+03
 0.28459151520E+03 0.24664749897E+03 0.19447874156E+03 0.13940322122E+03 0.90651543920E+02
 0.53848416020E+02 0.30828167238E+02 0.19727944162E+02 0.15604916351E+02 0.13245051150E+02
 0.11628425691E+02 0.10616302027E+02 0.10004043849E+02 0.96193871767E+01 0.93786199824E+01
 0.90346255562E+01 0.91266990706E+01 0.93786199824E+01 0.97818937387E+01 0.10433391569E+02
 0.11525932435E+02 0.13277950189E+02 0.15819165487E+02 0.20907001209E+02 0.34647412021E+02
 0.62165873410E+02 0.10517017745E+03 0.16144551555E+03 0.22470842928E+03 0.28459151520E+03
 0.32818889563E+03 0.34423334200E+03 0.32818889563E+03 0.28459151520E+03 0.22470842928E+03
 0.16144551555E+03 0.10517017745E+03 0.62165873410E+02 0.34647412021E+02 0.20907001209E+02
 0.15819165487E+02 0.13277950189E+02 0.11525932435E+02 0.10433391569E+02 0.97818937387E+01
 0.93786199824E+01 0.91266990706E+01 0.89407627552E+01 0.90346255562E+01 0.92910280308E+01
 0.97016132323E+01 0.10367805724E+02 0.11489559449E+02 0.13289711803E+02 0.15899600881E+02
 0.21376691312E+02 0.36107647057E+02 0.65277030125E+02 0.11053982620E+03 0.16955649107E+03
 0.23581756521E+03 0.29854293014E+03 0.34423334200E+03 0.36105465718E+03 0.34423334200E+03
 0.29854293014E+03 0.23581756521E+03 0.16955649107E+03 0.11053982620E+03 0.65277030125E+02
 0.36107647057E+02 0.21376691312E+02 0.15899600881E+02 0.13289711803E+02 0.11489559449E+02
 0.10367805724E+02 0.97016132323E+01 0.92910280308E+01 0.90346255562E+01 0.90346255562E+01
 0.91266990706E+01 0.93786199824E+01 0.97818937387E+01 0.10433391569E+02 0.11525932435E+02
 0.13277950189E+02 0.15819165487E+02 0.20907001209E+02 0.34647412021E+02 0.62165873410E+02
 0.10517017745E+03 0.16144551555E+03 0.22470842928E+03 0.28459151520E+03 0.32818889563E+03
 0.34423334200E+03 0.32818889563E+03 0.28459151520E+03 0.22470842928E+03 0.16144551555E+03
 0.10517017745E+03 0.62165873410E+02 0.34647412021E+02 0.20907001209E+02 0.15819165487E+02
 0.13277950189E+02 0.11525932435E+02 0.10433391569E+02 0.97818937387E+01 0.93786199824E+01
 0.91266990706E+01 0.92910280308E+01 0.93786199824E+01 0.96193871767E+01 0.10004043849E+02
 0.10616302027E+02 0.11628425691E+02 0.13245051150E+02 0.15604916351E+02 0.19727944162E+02
 0.30828167238E+02 0.53848416020E+02 0.90651543920E+02 0.13940322122E+03 0.19447874156E+03
 0.24664749897E+03 0.28459151520E+03 0.29854293014E+03 0.28459151520E+03 0.24664749897E+03
 0.19447874156E+03 0.13940322122E+03 0.90651543920E+02 0.53848416020E+02 0.30828167238E+02
 0.19727944162E+02 0.15604916351E+02 0.13245051150E+02 0.11628425691E+02 0.10616302027E+02
 0.10004043849E+02 0.96193871767E+01 0.93786199824E+01 0.97016132323E+01 0.97818937387E+01
 0.10004043849E+02 0.10357874278E+02 0.10908578966E+02 0.11798493584E+02 0.13209135160E+02
 0.15292393020E+02 0.18367847518E+02 0.26037211396E+02 0.42896786749E+02 0.71036044736E+02
 0.10924584027E+03 0.15293062792E+03 0.19447874156E+03 0.22470842928E+03 0.23581756521E+03
 0.22470842928E+03 0.19447874156E+03 0.15293062792E+03 0.10924584027E+03 0.71036044736E+02
 0.42896786749E+02 0.26037211396E+02 0.18367847518E+02 0.15292393020E+02 0.13209135160E+02
 0.11798493584E+02 0.10908578966E+02 0.10357874278E+02 0.10004043849E+02 0.97818937387E+01
 0.10367805724E+02 0.10433391569E+02 0.10616302027E+02 0.10908578966E+02 0.11358916013E+02
 0.12078729508E+02 0.13220649928E+02 0.14937320299E+02 0.17271255521E+02 0.21775267824E+02
 0.32303089910E+02 0.51154019138E+02 0.77905744816E+02 0.10924584027E+03 0.13940322122E+03
 0.16144551555E+03 0.16955649107E+03 0.16144551555E+03 0.13940322122E+03 0.10924584027E+03
 0.77905744816E+02 0.51154019138E+02 0.32303089910E+02 0.21775267824E+02 0.17271255521E+02
 0.14937320299E+02 0.13220649928E+02 0.12078729508E+02 0.11358916013E+02 0.10908578966E+02
 0.10616302027E+02 0.10433391569E+02 0.11489559449E+02 0.11525932435E+02 0.11628425691E+02
 0.11798493584E+02 0.12078729508E+02 0.12558698033E+02 0.13363782956E+02 0.14633538129E+02
 0.16438797923E+02 0.18921985131E+02 0.24300239116E+02 0.34924959554E+02 0.51154019138E+02
 0.71036044736E+02 0.90651543920E+02 0.10517017745E+03 0.11053982620E+03 0.10517017745E+03
 0.90651543920E+02 0.71036044736E+02 0.51154019138E+02 0.34924959554E+02 0.24300239116E+02
 0.18921985131E+02 0.16438797923E+02 0.14633538129E+02 0.13363782956E+02 0.12558698033E+02
 0.12078729508E+02 0.11798493584E+02 0.11628425691E+02 0.11525932435E+02 0.13289711803E+02
 0.13277950189E+02 0.13245051150E+02 0.13209135160E+02 0.13220649928E+02 0.13363782956E+02
 0.13748200283E+02 0.14496063265E+02 0.15697014123E+02 0.17315643059E+02 0.19615606505E+02
 0.24300239116E+02 0.32303089910E+02 0.42896786749E+02 0.53848416020E+02 0.62165873410E+02
 0.65277030125E+02 0.62165873410E+02 0.53848416020E+02 0.42896786749E+02 0.32303089910E+02
 0.24300239116E+02 0.19615606505E+02 0.17315643059E+02 0.15697014123E+02 0.14496063265E+02
 0.13748200283E+02 0.13363782956E+02 0.13220649928E+02 0.13209135160E+02 0.13245051150E+02
 0.13277950189E+02 0.15899600881E+02 0.15819165487E+02 0.15604916351E+02 0.15292393020E+02
 0.14937320299E+02 0.14633538129E+02 0.14496063265E+02 0.14644305905E+02 0.15171498982E+02
 0.16095438241E+02 0.17315643059E+02 0.18921985131E+02 0.21775267824E+02 0.26037211396E+02
 0.30828167238E+02 0.34647412021E+02 0.36107647057E+02 0.34647412021E+02 0.30828167238E+02
 0.26037211396E+02 0.21775267824E+02 0.18921985131E+02 0.17315643059E+02 0.16095438241E+02
 0.15171498982E+02 0.14644305905E+02 0.14496063265E+02 0.14633538129E+02 0.14937320299E+02
 0.15292393020E+02 0.15604916351E+02 0.15819165487E+02 0.21376691312E+02 0.20907001209E+02
 0.19727944162E+02 0.18367847518E+02 0.17271255521E+02 0.16438797923E+02 0.15697014123E+02
 0.15171498982E+02 0.14981384881E+02 0.15171498982E+02 0.15697014123E+02 0.16438797923E+02
 0.17271255521E+02 0.18367847518E+02 0.19727944162E+02 0.20907001209E+02 0.21376691312E+02
 0.20907001209E+02 0.19727944162E+02 0.18367847518E+02 0.17271255521E+02 0.16438797923E+02
 0.15697014123E+02 0.15171498982E+02 0.14981384881E+02 0.15171498982E+02 0.15697014123E+02
 0.16438797923E+02 0.17271255521E+02 0.18367847518E+02 0.19727944162E+02 0.20907001209E+02
 0.36107647057E+02 0.34647412021E+02 0.30828167238E+02 0.26037211396E+02 0.21775267824E+02
 0.18921985131E+02 0.17315643059E+02 0.16095438241E+02 0.15171498982E+02 0.14644305905E+02
 0.14496063265E+02 0.14633538129E+02 0.14937320299E+02 0.15292393020E+02 0.15604916351E+02
 0.15819165487E+02 0.15899600881E+02 0.15819165487E+02 0.15604916351E+02 0.15292393020E+02
 0.14937320299E+02 0.14633538129E+02 0.14496063265E+02 0.14644305905E+02 0.15171498982E+02
 0.16095438241E+02 0.17315643059E+02 0.18921985131E+02 0.21775267824E+02 0.26037211396E+02
 0.30828167238E+02 0.34647412021E+02 0.65277030125E+02 0.62165873410E+02 0.53848416020E+02
 0.42896786749E+02 0.32303089910E+02 0.24300239116E+02 0.19615606505E+02 0.17315643059E+02
 0.15697014123E+02 0.14496063265E+02 0.13748200283E+02 0.13363782956E+02 0.13220649928E+02
 0.13209135160E+02 0.13245051150E+02 0.13277950189E+02 0.13289711803E+02 0.13277950189E+02
 0.13245051150E+02 0.13209135160E+02 0.13220649928E+02 0.13363782956E+02 0.13748200283E+02
 0.14496063265E+02 0.15697014123E+02 0.17315643059E+02 0.19615606505E+02 0.24300239116E+02
 0.32303089910E+02 0.42896786749E+02 0.53848416020E+02 0.62165873410E+02 0.11053982620E+03
 0.10517017745E+03 0.90651543920E+02 0.71036044736E+02 0.51154019138E+02 0.34924959554E+02
 0.24300239116E+02 0.18921985131E+02 0.16438797923E+02 0.14633538129E+02 0.13363782956E+02
 0.12558698033E+02 0.12078729508E+02 0.11798493584E+02 0.11628425691E+02 0.11525932435E+02
 0.11489559449E+02 0.11525932435E+02 0.11628425691E+02 0.11798493584E+02 0.12078729508E+02
 0.12558698033E+02 0.13363782956E+02 0.14633538129E+02 0.16438797923E+02 0.18921985131E+02
 0.24300239116E+02 0.34924959554E+02 0.51154019138E+02 0.71036044736E+02 0.90651543920E+02
 0.10517017745E+03 0.16955649107E+03 0.16144551555E+03 0.13940322122E+03 0.10924584027E+03
 0.77905744816E+02 0.51154019138E+02 0.32303089910E+02 0.21775267824E+02 0.17271255521E+02
 0.14937320299E+02 0.13220649928E+02 0.12078729508E+02 0.11358916013E+02 0.10908578966E+02
 0.10616302027E+02 0.10433391569E+02 0.10367805724E+02 0.10433391569E+02 0.10616302027E+02
 0.10908578966E+02 0.11358916013E+02 0.12078729508E+02 0.13220649928E+02 0.14937320299E+02
 0.17271255521E+02 0.21775267824E+02 0.32303089910E+02 0.51154019138E+02 0.77905744816E+02
 0.10924584027E+03 0.13940322122E+03 0.16144551555E+03 0.23581756521E+03 0.22470842928E+03
 0.19447874156E+03 0.15293062792E+03 0.10924584027E+03 0.71036044736E+02 0.42896786749E+02
 0.26037211396E+02 0.18367847518E+02 0.15292393020E+02 0.13209135160E+02 0.11798493584E+02
 0.10908578966E+02 0.10357874278E+02 0.10004043849E+02 0.97818937387E+01 0.97016132323E+01
 0.97818937387E+01 0.10004043849E+02 0.10357874278E+02 0.10908578966E+02 0.11798493584E+02
 0.13209135160E+02 0.15292393020E+02 0.18367847518E+02 0.26037211396E+02 0.42896786749E+02
 0.71036044736E+02 0.10924584027E+03 0.15293062792E+03 0.19447874156E+03 0.22470842928E+03
 0.29854293014E+03 0.28459151520E+03 0.24664749897E+03 0.19447874156E+03 0.13940322122E+03
 0.90651543920E+02 0.53848416020E+02 0.30828167238E+02 0.19727944162E+02 0.15604916351E+02
 0.13245051150E+02 0.11628425691E+02 0.10616302027E+02 0.10004043849E+02 0.96193871767E+01
 0.93786199824E+01 0.92910280308E+01 0.93786199824E+01 0.96193871767E+01 0.10004043849E+02
 0.10616302027E+02 0.11628425691E+02 0.13245051150E+02 0.15604916351E+02 0.19727944162E+02
 0.30828167238E+02 0.53848416020E+02 0.90651543920E+02 0.13940322122E+03 0.19447874156E+03
 0.24664749897E+03 0.28459151520E+03 0.34423334200E+03 0.32818889563E+03 0.28459151520E+03
 0.22470842928E+03 0.16144551555E+03 0.10517017745E+03 0.62165873410E+02 0.34647412021E+02
 0.20907001209E+02 0.15819165487E+02 0.13277950189E+02 0.11525932435E+02 0.10433391569E+02
 0.97818937387E+01 0.93786199824E+01 0.91266990706E+01 0.90346255562E+01 0.91266990706E+01
 0.93786199824E+01 0.97818937387E+01 0.10433391569E+02 0.11525932435E+02 0.13277950189E+02
 0.15819165487E+02 0.20907001209E+02 0.34647412021E+02 0.62165873410E+02 0.10517017745E+03
 0.16144551555E+03 0.22470842928E+03 0.28459151520E+03 0.32818889563E+03 0.34423334200E+03
 0.32818889563E+03 0.28459151520E+03 0.22470842928E+03 0.16144551555E+03 0.10517017745E+03
 0.62165873410E+02 0.34647412021E+02 0.20907001209E+02 0.15819165487E+02 0.13277950189E+02
 0.11525932435E+02 0.10433391569E+02 0.97818937387E+01 0.93786199824E+01 0.91266990706E+01
 0.90346255562E+01 0.91266990706E+01 0.93786199824E+01 0.97818937387E+01 0.10433391569E+02
 0.11525932435E+02 0.13277950189E+02 0.15819165487E+02 0.20907001209E+02 0.34647412021E+02
 0.62165873410E+02 0.10517017745E+03 0.16144551555E+03 0.22470842928E+03 0.28459151520E+03
 0.32818889563E+03 0.32818889563E+03 0.31288296481E+03 0.27127761880E+03 0.21410561984E+03
 0.15371025069E+03 0.10006221571E+03 0.59221974449E+02 0.33278945451E+02 0.20473744812E+02
 0.15741424137E+02 0.13265063927E+02 0.11560705515E+02 0.10497081214E+02 0.98602569443E+01
 0.94643765287E+01 0.92169800258E+01 0.91266990706E+01 0.92169800258E+01 0.94643765287E+01
 0.98602569443E+01 0.10497081214E+02 0.11560705515E+02 0.13265063927E+02 0.15741424137E+02
 0.20473744812E+02 0.33278945451E+02 0.59221974449E+02 0.10006221571E+03 0.15371025069E+03
 0.21410561984E+03 0.27127761880E+03 0.31288296481E+03 0.28459151520E+03 0.27127761880E+03
 0.23505896581E+03 0.18525281887E+03 0.13269429156E+03 0.86259573512E+02 0.51360122649E+02
 0.29705920289E+02 0.19388010860E+02 0.15528751550E+02 0.13229315450E+02 0.11658893990E+02
 0.10674886115E+02 0.10077335430E+02 0.97004113685E+01 0.94643765287E+01 0.93786199824E+01
 0.94643765287E+01 0.97004113685E+01 0.10077335430E+02 0.10674886115E+02 0.11658893990E+02
 0.13229315450E+02 0.15528751550E+02 0.19388010860E+02 0.29705920289E+02 0.51360122649E+02
 0.86259573512E+02 0.13269429156E+03 0.18525281887E+03 0.23505896581E+03 0.27127761880E+03
 0.22470842928E+03 0.21410561984E+03 0.18525281887E+03 0.14560587342E+03 0.10396375847E+03
 0.67639553536E+02 0.41033910234E+02 0.25240711141E+02 0.18137355046E+02 0.15213715612E+02
 0.13189435887E+02 0.11822210850E+02 0.10958976282E+02 0.10422937290E+02 0.10077335430E+02
 0.98602569443E+01 0.97818937387E+01 0.98602569443E+01 0.10077335430E+02 0.10422937290E+02
 0.10958976282E+02 0.11822210850E+02 0.13189435887E+02 0.15213715612E+02 0.18137355046E+02
 0.25240711141E+02 0.41033910234E+02 0.67639553536E+02 0.10396375847E+03 0.14560587342E+03
 0.18525281887E+03 0.21410561984E+03 0.16144551555E+03 0.15371025069E+03 0.13269429156E+03
 0.10396375847E+03 0.74163005610E+02 0.48823114414E+02 0.31090210260E+02 0.21292501808E+02
 0.17118202641E+02 0.14857568425E+02 0.13195032904E+02 0.12091537909E+02 0.11395568731E+02
 0.10958976282E+02 0.10674886115E+02 0.10497081214E+02 0.10433391569E+02 0.10497081214E+02
 0.10674886115E+02 0.10958976282E+02 0.11395568731E+02 0.12091537909E+02 0.13195032904E+02
 0.14857568425E+02 0.17118202641E+02 0.21292501808E+02 0.31090210260E+02 0.48823114414E+02
 0.74163005610E+02 0.10396375847E+03 0.13269429156E+03 0.15371025069E+03 0.10517017745E+03
 0.10006221571E+03 0.86259573512E+02 0.67639553536E+02 0.48823114414E+02 0.33546743348E+02
 0.23633647170E+02 0.18663001248E+02 0.16303517249E+02 0.14553014125E+02 0.13327734721E+02
 0.12552917836E+02 0.12091537909E+02 0.11822210850E+02 0.11658893990E+02 0.11560705515E+02
 0.11525932435E+02 0.11560705515E+02 0.11658893990E+02 0.11822210850E+02 0.12091537909E+02
 0.12552917836E+02 0.13327734721E+02 0.14553014125E+02 0.16303517249E+02 0.18663001248E+02
 0.23633647170E+02 0.33546743348E+02 0.48823114414E+02 0.67639553536E+02 0.86259573512E+02
 0.10006221571E+03 0.62165873410E+02 0.59221974449E+02 0.51360122649E+02 0.41033910234E+02
 0.31090210260E+02 0.23633647170E+02 0.19306648621E+02 0.17146665579E+02 0.15571973503E+02
 0.14411885267E+02 0.13693701988E+02 0.13327734721E+02 0.13195032904E+02 0.13189435887E+02
 0.13229315450E+02 0.13265063927E+02 0.13277950189E+02 0.13265063927E+02 0.13229315450E+02
 0.13189435887E+02 0.13195032904E+02 0.13327734721E+02 0.13693701988E+02 0.14411885267E+02
 0.15571973503E+02 0.17146665579E+02 0.19306648621E+02 0.23633647170E+02 0.31090210260E+02
 0.41033910234E+02 0.51360122649E+02 0.59221974449E+02 0.34647412021E+02 0.33278945451E+02
 0.29705920289E+02 0.25240711141E+02 0.21292501808E+02 0.18663001248E+02 0.17146665579E+02
 0.15953081139E+02 0.15056670920E+02 0.14549551740E+02 0.14411885267E+02 0.14553014125E+02
 0.14857568425E+02 0.15213715612E+02 0.15528751550E+02 0.15741424137E+02 0.15819165487E+02
 0.15741424137E+02 0.15528751550E+02 0.15213715612E+02 0.14857568425E+02 0.14553014125E+02
 0.14411885267E+02 0.14549551740E+02 0.15056670920E+02 0.15953081139E+02 0.17146665579E+02
 0.18663001248E+02 0.21292501808E+02 0.25240711141E+02 0.29705920289E+02 0.33278945451E+02
 0.20907001209E+02 0.20473744812E+02 0.19388010860E+02 0.18137355046E+02 0.17118202641E+02
 0.16303517249E+02 0.15571973503E+02 0.15056670920E+02 0.14870784056E+02 0.15056670920E+02
 0.15571973503E+02 0.16303517249E+02 0.17118202641E+02 0.18137355046E+02 0.19388010860E+02
 0.20473744812E+02 0.20907001209E+02 0.20473744812E+02 0.19388010860E+02 0.18137355046E+02
 0.17118202641E+02 0.16303517249E+02 0.15571973503E+02 0.15056670920E+02 0.14870784056E+02
 0.15056670920E+02 0.15571973503E+02 0.16303517249E+02 0.17118202641E+02 0.18137355046E+02
 0.19388010860E+02 0.20473744812E+02 0.15819165487E+02 0.15741424137E+02 0.15528751550E+02
 0.15213715612E+02 0.14857568425E+02 0.14553014125E+02 0.14411885267E+02 0.14549551740E+02
 0.15056670920E+02 0.15953081139E+02 0.17146665579E+02 0.18663001248E+02 0.21292501808E+02
 0.25240711141E+02 0.29705920289E+02 0.33278945451E+02 0.34647412021E+02 0.33278945451E+02
 0.29705920289E+02 0.25240711141E+02 0.21292501808E+02 0.18663001248E+02 0.17146665579E+02
 0.15953081139E+02 0.15056670920E+02 0.14549551740E+02 0.14411885267E+02 0.14553014125E+02
 0.14857568425E+02 0.15213715612E+02 0.15528751550E+02 0.15741424137E+02 0.13277950189E+02
 0.13265063927E+02 0.13229315450E+02 0.13189435887E+02 0.13195032904E+02 0.13327734721E+02
 0.13693701988E+02 0.14411885267E+02 0.15571973503E+02 0.17146665579E+02 0.19306648621E+02
 0.23633647170E+02 0.31090210260E+02 0.41033910234E+02 0.51360122649E+02 0.59221974449E+02
 0.62165873410E+02 0.59221974449E+02 0.51360122649E+02 0.41033910234E+02 0.31090210260E+02
 0.23633647170E+02 0.19306648621E+02 0.17146665579E+02 0.15571973503E+02 0.14411885267E+02
 0.13693701988E+02 0.13327734721E+02 0.13195032904E+02 0.13189435887E+02 0.13229315450E+02
 0.13265063927E+02 0.11525932435E+02 0.11560705515E+02 0.11658893990E+02 0.11822210850E+02
 0.12091537909E+02 0.12552917836E+02 0.13327734721E+02 0.14553014125E+02 0.16303517249E+02
 0.18663001248E+02 0.23633647170E+02 0.33546743348E+02 0.48823114414E+02 0.67639553536E+02
 0.86259573512E+02 0.10006221571E+03 0.10517017745E+03 0.10006221571E+03 0.86259573512E+02
 0.67639553536E+02 0.48823114414E+02 0.33546743348E+02 0.23633647170E+02 0.18663001248E+02
 0.16303517249E+02 0.14553014125E+02 0.13327734721E+02 0.12552917836E+02 0.12091537909E+02
 0.11822210850E+02 0.11658893990E+02 0.11560705515E+02 0.10433391569E+02 0.10497081214E+02
 0.10674886115E+02 0.10958976282E+02 0.11395568731E+02 0.12091537909E+02 0.13195032904E+02
 0.14857568425E+02 0.17118202641E+02 0.21292501808E+02 0.31090210260E+02 0.48823114414E+02
 0.74163005610E+02 0.10396375847E+03 0.13269429156E+03 0.15371025069E+03 0.16144551555E+03
 0.15371025069E+03 0.13269429156E+03 0.10396375847E+03 0.74163005610E+02 0.48823114414E+02
 0.31090210260E+02 0.21292501808E+02 0.17118202641E+02 0.14857568425E+02 0.13195032904E+02
 0.12091537909E+02 0.11395568731E+02 0.10958976282E+02 0.10674886115E+02 0.10497081214E+02
 0.97818937387E+01 0.98602569443E+01 0.10077335430E+02 0.10422937290E+02 0.10958976282E+02
 0.11822210850E+02 0.13189435887E+02 0.15213715612E+02 0.18137355046E+02 0.25240711141E+02
 0.41033910234E+02 0.67639553536E+02 0.10396375847E+03 0.14560587342E+03 0.18525281887E+03
 0.21410561984E+03 0.22470842928E+03 0.21410561984E+03 0.18525281887E+03 0.14560587342E+03
 0.10396375847E+03 0.67639553536E+02 0.41033910234E+02 0.25240711141E+02 0.18137355046E+02
 0.15213715612E+02 0.13189435887E+02 0.11822210850E+02 0.10958976282E+02 0.10422937290E+02
 0.10077335430E+02 0.98602569443E+01 0.93786199824E+01 0.94643765287E+01 0.97004113685E+01
 0.10077335430E+02 0.10674886115E+02 0.11658893990E+02 0.13229315450E+02 0.15528751550E+02
 0.19388010860E+02 0.29705920289E+02 0.51360122649E+02 0.86259573512E+02 0.13269429156E+03
 0.18525281887E+03 0.23505896581E+03 0.27127761880E+03 0.28459151520E+03 0.27127761880E+03
 0.23505896581E+03 0.18525281887E+03 0.13269429156E+03 0.86259573512E+02 0.51360122649E+02
 0.29705920289E+02 0.19388010860E+02 0.15528751550E+02 0.13229315450E+02 0.11658893990E+02
 0.10674886115E+02 0.10077335430E+02 0.97004113685E+01 0.94643765287E+01 0.91266990706E+01
 0.92169800258E+01 0.94643765287E+01 0.98602569443E+01 0.10497081214E+02 0.11560705515E+02
 0.13265063927E+02 0.15741424137E+02 0.20473744812E+02 0.33278945451E+02 0.59221974449E+02
 0.10006221571E+03 0.15371025069E+03 0.21410561984E+03 0.27127761880E+03 0.31288296481E+03
 0.32818889563E+03 0.31288296481E+03 0.27127761880E+03 0.21410561984E+03 0.15371025069E+03
 0.10006221571E+03 0.59221974449E+02 0.33278945451E+02 0.20473744812E+02 0.15741424137E+02
 0.13265063927E+02 0.11560705515E+02 0.10497081214E+02 0.98602569443E+01 0.94643765287E+01
 0.92169800258E+01 0.90346255562E+01 0.91266990706E+01 0.93786199824E+01 0.97818937387E+01
 0.10433391569E+02 0.11525932435E+02 0.13277950189E+02 0.15819165487E+02 0.20907001209E+02
 0.34647412021E+02 0.62165873410E+02 0.10517017745E+03 0.16144551555E+03 0.22470842928E+03
 0.28459151520E+03 0.32818889563E+03 0.34423334200E+03 0.32818889563E+03 0.28459151520E+03
 0.22470842928E+03 0.16144551555E+03 0.10517017745E+03 0.62165873410E+02 0.34647412021E+02
 0.20907001209E+02 0.15819165487E+02 0.13277950189E+02 0.11525932435E+02 0.10433391569E+02
 0.97818937387E+01 0.93786199824E+01 0.91266990706E+01 0.91266990706E+01 0.92169800258E+01
 0.94643765287E+01 0.98602569443E+01 0.10497081214E+02 0.11560705515E+02 0.13265063927E+02
 0.15741424137E+02 0.20473744812E+02 0.33278945451E+02 0.59221974449E+02 0.10006221571E+03
 0.15371025069E+03 0.21410561984E+03 0.27127761880E+03 0.31288296481E+03 0.32818889563E+03
 0.31288296481E+03 0.27127761880E+03 0.21410561984E+03 0.15371025069E+03 0.10006221571E+03
 0.59221974449E+02 0.33278945451E+02 0.20473744812E+02 0.15741424137E+02 0.13265063927E+02
 0.11560705515E+02 0.10497081214E+02 0.98602569443E+01 0.94643765287E+01 0.92169800258E+01
 0.93786199824E+01 0.94643765287E+01 0.97004113685E+01 0.10077335430E+02 0.10674886115E+02
 0.11658893990E+02 0.13229315450E+02 0.15528751550E+02 0.19388010860E+02 0.29705920289E+02
 0.51360122649E+02 0.86259573512E+02 0.13269429156E+03 0.18525281887E+03 0.23505896581E+03
 0.27127761880E+03 0.28459151520E+03 0.27127761880E+03 0.23505896581E+03 0.18525281887E+03
 0.13269429156E+03 0.86259573512E+02 0.51360122649E+02 0.29705920289E+02 0.19388010860E+02