    4    4    1    1
  0.1073318E+02  0.3501570E-09  0.3501570E-09  0.3501570E-09  0.5000000E-15
  1.000000000000000E-004
  CAR 
 unknown system                          
     32     56     40
 
  0.0000000E+00  0.0000000E+00  0.0000000E+00  0.7513148E-03
    1       -2.284979   1.000000
    2        1.656894   1.000000
    3        1.656894   1.000000
    4        1.656894   1.000000
    5        2.362066   1.000000
    6        2.362066   1.000000
    7        2.362066   1.000000
    8        4.758565   1.000000
    9        4.758565   1.000000
   10        4.758565   1.000000
   11        6.208873   0.751053
   12        6.208873   0.751053
   13        7.174596  -0.000000
   14        7.174596  -0.000000
   15        7.174596  -0.000000
   16        7.454972  -0.000000
   17        7.454972  -0.000000
   18        7.454972  -0.000000
   19        7.454972  -0.000000
   20        7.454972  -0.000000
   21        7.454972  -0.000000
   22        9.414902  -0.000000
   23        9.414902  -0.000000
   24        9.414902  -0.000000
   25       17.506974   0.000000
   26       17.506974   0.000000
   27       17.506974   0.000000
   28       22.017548   0.000000
   29       22.017548   0.000000
   30       22.017548   0.000000
   31       22.017548   0.000000
   32       22.017548   0.000000
   33       22.017548   0.000000
   34       27.270161   0.000000
   35       27.270161   0.000000
   36       27.270161   0.000000
   37       29.203468   0.000000
   38       31.805011   0.000000
   39       31.805011   0.000000
   40       31.805011   0.000000
 
  0.9090909E-01  0.0000000E+00  0.0000000E+00  0.4507889E-02
    1       -2.171589   1.000000
    2        1.679487   1.000000
    3        1.725661   1.000000
    4        1.725661   1.000000
    5        2.404910   1.000000
    6        2.411095   1.000000
    7        2.411095   1.000000
    8        4.703144   1.000000
    9        4.798823   1.000000
   10        4.798823   1.000000
   11        6.157759   0.905417
   12        6.227605   0.680771
   13        7.027769  -0.000001
   14        7.027769  -0.000001
   15        7.107127  -0.000000
   16        7.107127  -0.000000
   17        7.154287  -0.000000
   18        7.377646  -0.000000
   19        7.377646  -0.000000
   20        7.455130  -0.000000
   21        7.455130  -0.000000
   22        8.940994  -0.000000
   23        9.922457  -0.000000
   24        9.922457  -0.000000
   25       17.510527   0.000000
   26       17.510527   0.000000
   27       18.131407   0.000000
   28       21.489890   0.000000
   29       21.489890   0.000000
   30       21.732112   0.000000
   31       21.732112   0.000000
   32       22.206349   0.000000
   33       22.206349   0.000000
   34       27.285872   0.000000
   35       27.898247   0.000000
   36       27.898247   0.000000
   37       29.101689   0.000000
   38       31.844416   0.000000
   39       32.359786   0.000000
   40       32.359786   0.000000
 
  0.1818182E+00  0.0000000E+00  0.0000000E+00  0.4507889E-02
    1       -1.836804   1.000000
    2        1.724454   1.000000
    3        1.920945   1.000000
    4        1.920945   1.000000
    5        2.531087   1.000000
    6        2.558295   1.000000
    7        2.558295   1.000000
    8        4.543280   1.000000
    9        4.918426   1.000000
   10        4.918426   1.000000
   11        6.011169   1.034641
   12        6.256904   0.561476
   13        6.256904   0.561476
   14        6.282674   0.452696
   15        6.913907  -0.000027
   16        6.913907  -0.000027
   17        7.094476  -0.000000
   18        7.159945  -0.000000
   19        7.159945  -0.000000
   20        7.455514  -0.000000
   21        7.455514  -0.000000
   22        7.864185  -0.000000
   23       10.934855  -0.000000
   24       10.934855  -0.000000
   25       17.522146   0.000000
   26       17.522146   0.000000
   27       19.674889   0.000000
   28       20.317856   0.000000
   29       20.317856   0.000000
   30       21.063034   0.000000
   31       21.063034   0.000000
   32       22.755594   0.000000
   33       22.755594   0.000000
   34       27.334151   0.000000
   35       28.849014   0.000000
   36       29.372073   0.000000
   37       29.372073   0.000000
   38       31.989963   0.000000
   39       32.292024   0.000000
   40       32.315198   0.000000
 
  0.2727273E+00  0.0000000E+00  0.0000000E+00  0.4507889E-02
    1       -1.298470   1.000000
    2        1.713558   1.000000
    3        2.206614   1.000000
    4        2.206614   1.000000
    5        2.733482   1.000000
    6        2.803929   1.000000
    7        2.803929   1.000000
    8        4.296876   1.000000
    9        5.114114   1.000000
   10        5.114114   1.000000
   11        5.477381   1.000000
   12        5.477381   1.000000
   13        5.792366   1.001823
   14        6.369605   0.135082
   15        6.627860  -0.015136
   16        6.627860  -0.015136
   17        6.700811  -0.004838
   18        6.839523  -0.000222
   19        6.839523  -0.000222
   20        7.001291  -0.000002
   21        7.455920  -0.000000
   22        7.455920  -0.000000
   23       12.113285   0.000000
   24       12.113285   0.000000
   25       17.544634   0.000000
   26       17.544634   0.000000
   27       18.940325   0.000000
   28       18.940325   0.000000
   29       20.326533   0.000000
   30       20.326533   0.000000
   31       21.648361   0.000000
   32       23.619879   0.000000
   33       23.619879   0.000000
   34       27.414511   0.000000
   35       28.527604   0.000000
   36       30.736214   0.000000
   37       30.736214   0.000000
   38       30.794470   0.000000
   39       31.261891   0.000000
   40       31.261891   0.000000
 
  0.3636364E+00  0.0000000E+00  0.0000000E+00  0.4507889E-02
    1       -0.592752   1.000000
    2        1.502156   1.000000
    3        2.511643   1.000000
    4        2.511643   1.000000
    5        3.000084   1.000000
    6        3.148142   1.000000
    7        3.148142   1.000000
    8        3.990166   1.000000
    9        4.761284   1.000000
   10        4.761284   1.000000
   11        5.380004   1.000000
   12        5.380004   1.000000
   13        5.548437   1.000002
   14        5.808859   1.002562
   15        6.319194   0.304316
   16        6.319194   0.304316
   17        6.464027  -0.020818
   18        6.464027  -0.020818
   19        6.482360  -0.029892
   20        6.882993  -0.000067
   21        7.456373  -0.000000
   22        7.456373  -0.000000
   23       13.383693   0.000000
   24       13.383693   0.000000
   25       17.516647   0.000000
   26       17.516647   0.000000
   27       17.580840   0.000000
   28       17.580840   0.000000
   29       19.734319   0.000000
   30       19.734319   0.000000
   31       23.761613   0.000000
   32       24.744743   0.000000
   33       24.744743   0.000000
   34       27.538539   0.000000
   35       28.212282   0.000000
   36       29.122196   0.000000
   37       29.122196   0.000000
   38       29.274361   0.000000
   39       32.889897   0.000000
   40       33.419599   0.000000
 
  0.4545455E+00  0.0000000E+00  0.0000000E+00  0.4507889E-02
    1        0.209234   1.000000
    2        0.972065   1.000000
    3        2.721706   1.000000
    4        2.721706   1.000000
    5        3.313833   1.000000
    6        3.590551   1.000000
    7        3.590551   1.000000
    8        3.652774   1.000000
    9        4.129520   1.000000
   10        4.129520   1.000000
   11        5.363372   1.000000
   12        5.384753   1.000000
   13        5.705788   1.000236
   14        5.705788   1.000236
   15        6.075017   1.023191
   16        6.075017   1.023191
   17        6.105741   0.997023
   18        6.105741   0.997023
   19        6.612413  -0.018343
   20        6.749659  -0.001859
   21        7.456847  -0.000000
   22        7.456847  -0.000000
   23       14.719951   0.000000
   24       14.719951   0.000000
   25       16.104344   0.000000
   26       16.104344   0.000000
   27       17.613430   0.000000
   28       17.613430   0.000000
   29       19.405351   0.000000
   30       19.405351   0.000000
   31       25.809873   0.000000
   32       26.072633   0.000000
   33       26.072633   0.000000
   34       27.548775   0.000000
   35       27.548775   0.000000
   36       27.644483   0.000000
   37       27.709565   0.000000
   38       27.938680   0.000000
   39       33.896011   0.000000
   40       35.444712   0.000000
 
  0.9090909E-01  0.9090909E-01  0.0000000E+00  0.9015778E-02
    1       -2.059248   1.000000
    2        1.749383   1.000000
    3        1.749383   1.000000
    4        1.792593   1.000000
    5        2.452916   1.000000
    6        2.452916   1.000000
    7        2.458423   1.000000
    8        4.670669   1.000000
    9        4.817667   1.000000
   10        4.833945   1.000000
   11        6.143006   0.938113
   12        6.215174   0.728085
   13        6.758110  -0.001553
   14        6.889286  -0.000056
   15        6.889286  -0.000056
   16        7.043581  -0.000000
   17        7.118735  -0.000000
   18        7.118735  -0.000000
   19        7.377588  -0.000000
   20        7.377588  -0.000000
   21        7.406476  -0.000000
   22        9.466645  -0.000000
   23        9.466645  -0.000000
   24       10.321607  -0.000000
   25       17.503857   0.000000
   26       18.146934   0.000000
   27       18.146934   0.000000
   28       20.374708   0.000000
   29       21.665043   0.000000
   30       21.665043   0.000000
   31       21.913892   0.000000
   32       21.913892   0.000000
   33       22.387304   0.000000
   34       27.928772   0.000000
   35       27.928772   0.000000
   36       28.089404   0.000000
   37       28.926063   0.000000
   38       32.178503   0.000000
   39       32.402417   0.000000
   40       32.402417   0.000000
 
  0.1818182E+00  0.9090909E-01  0.0000000E+00  0.1803156E-01
    1       -1.727519   1.000000
    2        1.797683   1.000000
    3        1.948211   1.000000
    4        1.983060   1.000000
    5        2.576055   1.000000
    6        2.597006   1.000000
    7        2.599910   1.000000
    8        4.527124   1.000000
    9        4.925592   1.000000
   10        4.936941   1.000000
   11        6.017444   1.035159
   12        6.123763   0.972619
   13        6.124294   0.971786
   14        6.266394   0.521493
   15        6.554563  -0.031194
   16        6.860890  -0.000125
   17        6.919649  -0.000023
   18        7.064322  -0.000000
   19        7.158901  -0.000000
   20        7.377299  -0.000000
   21        7.379902  -0.000000
   22        8.488488  -0.000000
   23       10.441923  -0.000000
   24       11.225576  -0.000000
   25       17.450873   0.000000
   26       18.192197   0.000000
   27       19.103169   0.000000
   28       19.696812   0.000000
   29       20.477295   0.000000
   30       21.233377   0.000000
   31       22.170198   0.000000
   32       22.315822   0.000000
   33       22.449444   0.000000
   34       28.022534   0.000000
   35       28.462865   0.000000
   36       28.996484   0.000000
   37       29.421140   0.000000
   38       30.625613   0.000000
   39       32.556320   0.000000
   40       32.613025   0.000000
 
  0.2727273E+00  0.9090909E-01  0.0000000E+00  0.1803156E-01
    1       -1.194069   1.000000
    2        1.791620   1.000000
    3        2.240293   1.000000
    4        2.263834   1.000000
    5        2.773471   1.000000
    6        2.832803   1.000000
    7        2.837241   1.000000
    8        4.291497   1.000000
    9        5.094508   1.000000
   10        5.117850   1.000000
   11        5.360875   1.000000
   12        5.412241   1.000000
   13        5.824552   1.003487
   14        6.030985   1.035379
   15        6.366834   0.142914
   16        6.589003  -0.023638
   17        6.637509  -0.013299
   18        6.838649  -0.000227
   19        6.919948  -0.000023
   20        7.373512  -0.000000
   21        7.376815  -0.000000
   22        7.577563  -0.000000
   23       11.533120  -0.000000
   24       12.345150   0.000000
   25       17.088965   0.000000
   26       18.209534   0.000000
   27       18.267640   0.000000
   28       19.093886   0.000000
   29       20.502365   0.000000
   30       21.630075   0.000000
   31       21.660629   0.000000
   32       22.950120   0.000000
   33       23.336274   0.000000
   34       27.821797   0.000000
   35       28.194030   0.000000
   36       29.125329   0.000000
   37       30.639501   0.000000
   38       31.324006   0.000000
   39       31.504294   0.000000
   40       32.403592   0.000000
 
  0.3636364E+00  0.9090909E-01  0.0000000E+00  0.1803156E-01
    1       -0.494949   1.000000
    2        1.584296   1.000000
    3        2.555224   1.000000
    4        2.569554   1.000000
    5        3.033269   1.000000
    6        3.150957   1.000000
    7        3.173392   1.000000
    8        3.995103   1.000000
    9        4.666080   1.000000
   10        4.734417   1.000000
   11        5.231797   1.000000
   12        5.381791   1.000000
   13        5.472944   1.000000
   14        5.688868   1.000151
   15        6.295376   0.399665
   16        6.330228   0.262891
   17        6.463196  -0.020281
   18        6.499663  -0.034248
   19        6.607331  -0.019459
   20        7.068276  -0.000000
   21        7.372471  -0.000000
   22        7.376194  -0.000000
   23       12.670962   0.000000
   24       13.581142   0.000000
   25       16.115253   0.000000
   26       17.672432   0.000000
   27       18.046214   0.000000
   28       18.333950   0.000000
   29       19.980594   0.000000
   30       20.876867   0.000000
   31       23.488156   0.000000
   32       23.929477   0.000000
   33       24.699959   0.000000
   34       27.030510   0.000000
   35       27.693795   0.000000
   36       28.469411   0.000000
   37       30.412620   0.000000
   38       30.590261   0.000000
   39       32.719348   0.000000
   40       33.463829   0.000000
 
  0.4545455E+00  0.9090909E-01  0.0000000E+00  0.1803156E-01
    1        0.299880   1.000000
    2        1.057278   1.000000
    3        2.777356   1.000000
    4        2.783445   1.000000
    5        3.338654   1.000000
    6        3.555444   1.000000
    7        3.604300   1.000000
    8        3.667882   1.000000
    9        4.060306   1.000000
   10        4.126834   1.000000
   11        5.182244   1.000000
   12        5.186182   1.000000
   13        5.706170   1.000238
   14        5.846456   1.005227
   15        6.074799   1.023315
   16        6.097105   1.006215
   17        6.110559   0.991211
   18        6.194932   0.799082
   19        6.656301  -0.010136
   20        6.833934  -0.000257
   21        7.373774  -0.000000
   22        7.375110  -0.000000
   23       13.824058   0.000000
   24       14.895401   0.000000
   25       14.978158   0.000000
   26       16.266662   0.000000
   27       18.149007   0.000000
   28       18.293442   0.000000
   29       19.877321   0.000000
   30       20.226404   0.000000
   31       24.964159   0.000000
   32       25.011918   0.000000
   33       26.080615   0.000000
   34       26.318267   0.000000
   35       26.615197   0.000000
   36       28.648459   0.000000
   37       28.895201   0.000000
   38       29.525137   0.000000
   39       34.431079   0.000000
   40       35.051538   0.000000
 
  0.1818182E+00  0.1818182E+00  0.0000000E+00  0.9015778E-02
    1       -1.404823   1.000000
    2        2.006960   1.000000
    3        2.006960   1.000000
    4        2.160275   1.000000
    5        2.710852   1.000000
    6        2.710852   1.000000
    7        2.723276   1.000000
    8        4.441148   1.000000
    9        4.989664   1.000000
   10        4.990295   1.000000
   11        5.743275   1.000603
   12        5.785671   1.001581
   13        5.785671   1.001581
   14        5.972438   1.027865
   15        6.288887   0.426634
   16        6.706708  -0.004344
   17        6.887334  -0.000060
   18        6.887334  -0.000060
   19        7.157323  -0.000000
   20        7.157323  -0.000000
   21        7.264175  -0.000000
   22        9.406566  -0.000000
   23        9.406566  -0.000000
   24       11.968060   0.000000
   25       16.888057   0.000000
   26       18.189080   0.000000
   27       19.749276   0.000000
   28       19.749276   0.000000
   29       20.935295   0.000000
   30       20.935295   0.000000
   31       21.767569   0.000000
   32       21.767569   0.000000
   33       23.437980   0.000000
   34       27.619661   0.000000
   35       28.703997   0.000000
   36       29.038363   0.000000
   37       29.572673   0.000000
   38       29.572673   0.000000
   39       32.994849   0.000000
   40       34.020400   0.000000
 
  0.2727273E+00  0.1818182E+00  0.0000000E+00  0.1803156E-01
    1       -0.886461   1.000000
    2        2.015906   1.000000
    3        2.318129   1.000000
    4        2.425897   1.000000
    5        2.892940   1.000000
    6        2.919551   1.000000
    7        2.934943   1.000000
    8        4.256584   1.000000
    9        5.058331   1.000000
   10        5.068427   1.000000
   11        5.151159   1.000000
   12        5.214134   1.000000
   13        5.344650   1.000000
   14        5.842459   1.004866
   15        6.417766   0.029624
   16        6.472542  -0.025672
   17        6.621931  -0.016331
   18        6.760966  -0.001460
   19        6.836507  -0.000240
   20        7.155269  -0.000000
   21        7.196617  -0.000000
   22        8.389191  -0.000000
   23       10.366932  -0.000000
   24       12.971912   0.000000
   25       15.697419   0.000000
   26       18.088466   0.000000
   27       19.535153   0.000000
   28       19.720428   0.000000
   29       21.175727   0.000000
   30       21.438307   0.000000
   31       21.638323   0.000000
   32       22.863331   0.000000
   33       23.549081   0.000000
   34       26.629626   0.000000
   35       27.566746   0.000000
   36       29.541361   0.000000
   37       29.836804   0.000000
   38       31.514585   0.000000
   39       32.803174   0.000000
   40       33.911316   0.000000
 
  0.3636364E+00  0.1818182E+00  0.0000000E+00  0.1803156E-01
    1       -0.207786   1.000000
    2        1.820644   1.000000
    3        2.663591   1.000000
    4        2.732260   1.000000
    5        3.131699   1.000000
    6        3.164357   1.000000
    7        3.246770   1.000000
    8        4.000944   1.000000
    9        4.429343   1.000000
   10        4.649824   1.000000
   11        4.970928   1.000000
   12        5.062512   1.000000
   13        5.398662   1.000000
   14        5.775939   1.001279
   15        6.218093   0.717205
   16        6.324818   0.282945
   17        6.462109  -0.019560
   18        6.518214  -0.035446
   19        6.614340  -0.017928
   20        7.152920  -0.000000
   21        7.166069  -0.000000
   22        7.643284  -0.000000
   23       11.344447  -0.000000
   24       14.130176   0.000000
   25       14.488303   0.000000
   26       18.115939   0.000000
   27       18.234308   0.000000
   28       19.392347   0.000000
   29       21.111598   0.000000
   30       22.519582   0.000000
   31       22.698666   0.000000
   32       22.931870   0.000000
   33       24.786731   0.000000
   34       25.597088   0.000000
   35       26.213268   0.000000
   36       30.231144   0.000000
   37       31.365339   0.000000
   38       31.724277   0.000000
   39       32.156622   0.000000
   40       33.700391   0.000000
 
  0.4545455E+00  0.1818182E+00  0.0000000E+00  0.1803156E-01
    1        0.564074   1.000000
    2        1.303173   1.000000
    3        2.927557   1.000000
    4        2.960760   1.000000
    5        3.410723   1.000000
    6        3.459659   1.000000
    7        3.642862   1.000000
    8        3.709011   1.000000
    9        3.883654   1.000000
   10        4.115623   1.000000
   11        4.847229   1.000000
   12        4.941770   1.000000
   13        5.713714   1.000290
   14        5.913978   1.014917
   15        6.056103   1.031375
   16        6.076597   1.022261
   17        6.097573   1.005756
   18        6.198989   0.785525
   19        6.860797  -0.000125
   20        7.151997  -0.000000
   21        7.154610  -0.000000
   22        7.175660  -0.000000
   23       12.340591   0.000000
   24       13.376863   0.000000
   25       15.392536   0.000000
   26       16.728117   0.000000
   27       18.514658   0.000000
   28       18.917966   0.000000
   29       21.515704   0.000000
   30       22.168126   0.000000
   31       23.509774   0.000000
   32       23.809746   0.000000
   33       24.549191   0.000000
   34       24.968958   0.000000
   35       27.081959   0.000000
   36       29.433228   0.000000
   37       30.759321   0.000000
   38       31.420672   0.000000
   39       33.628494   0.000000
   40       35.735291   0.000000
 
  0.2727273E+00  0.2727273E+00  0.0000000E+00  0.9015778E-02
    1       -0.393786   1.000000
    2        2.354120   1.000000
    3        2.354120   1.000000
    4        2.667157   1.000000
    5        3.057194   1.000000
    6        3.090184   1.000000
    7        3.090184   1.000000
    8        4.156698   1.000000
    9        4.724500   1.000000
   10        4.724500   1.000000
   11        4.894927   1.000000
   12        5.021557   1.000000
   13        5.258407   1.000000
   14        5.764457   1.000988
   15        6.287991   0.430380
   16        6.517787  -0.035451
   17        6.517787  -0.035451
   18        6.600841  -0.020917
   19        6.834936  -0.000250
   20        6.834936  -0.000250
   21        7.033839  -0.000000
   22        9.220077  -0.000000
   23        9.220077  -0.000000
   24       13.868719   0.000000
   25       14.270186   0.000000
   26       18.220910   0.000000
   27       20.213791   0.000000
   28       20.213791   0.000000
   29       20.834333   0.000000
   30       20.834333   0.000000
   31       22.818221   0.000000
   32       22.818221   0.000000
   33       25.036125   0.000000
   34       25.416349   0.000000
   35       26.132912   0.000000
   36       28.978933   0.000000
   37       31.828306   0.000000
   38       31.828306   0.000000
   39       33.805245   0.000000
   40       34.614767   0.000000
 
  0.3636364E+00  0.2727273E+00  0.0000000E+00  0.1803156E-01
    1        0.248577   1.000000
    2        2.178000   1.000000
    3        2.743304   1.000000
    4        2.959347   1.000000
    5        3.204853   1.000000
    6        3.291546   1.000000
    7        3.361314   1.000000
    8        3.984016   1.000000
    9        4.179040   1.000000
   10        4.500265   1.000000
   11        4.508743   1.000000
   12        4.933992   1.000000
   13        5.460635   1.000000
   14        5.704232   1.000227
   15        6.080804   1.019585
   16        6.239791   0.632220
   17        6.304702   0.361536
   18        6.464592  -0.021177
   19        6.836004  -0.000243
   20        6.883539  -0.000066
   21        6.928263  -0.000017
   22        8.318935  -0.000000
   23       10.068265  -0.000000
   24       13.009591   0.000000
   25       14.945371   0.000000
   26       18.477638   0.000000
   27       18.800514   0.000000
   28       20.071878   0.000000
   29       21.069315   0.000000
   30       21.709028   0.000000
   31       23.167157   0.000000
   32       24.241584   0.000000
   33       24.837435   0.000000
   34       25.080489   0.000000
   35       25.164364   0.000000
   36       30.037347   0.000000
   37       32.270415   0.000000
   38       32.539924   0.000000
   39       33.930739   0.000000
   40       34.046076   0.000000
 
  0.4545455E+00  0.2727273E+00  0.0000000E+00  0.1803156E-01
    1        0.976864   1.000000
    2        1.678393   1.000000
    3        3.078516   1.000000
    4        3.221211   1.000000
    5        3.329562   1.000000
    6        3.522750   1.000000
    7        3.698485   1.000000
    8        3.710702   1.000000
    9        3.762458   1.000000
   10        4.087001   1.000000
   11        4.546641   1.000000
   12        4.744383   1.000000
   13        5.745405   1.000634
   14        5.799219   1.002104
   15        5.955319   1.023955
   16        6.015857   1.035050
   17        6.031278   1.035368
   18        6.089556   1.013024
   19        6.845091  -0.000192
   20        6.871208  -0.000094
   21        7.236635  -0.000000
   22        7.687163  -0.000000
   23       10.953458  -0.000000
   24       11.916426   0.000000
   25       16.146144   0.000000
   26       17.436639   0.000000
   27       18.862890   0.000000
   28       19.394074   0.000000
   29       22.050310   0.000000
   30       22.638220   0.000000
   31       23.115849   0.000000
   32       23.676872   0.000000
   33       23.749438   0.000000
   34       24.483852   0.000000
   35       27.538041   0.000000
   36       30.055123   0.000000
   37       32.181741   0.000000
   38       32.823193   0.000000
   39       33.440773   0.000000
   40       34.582777   0.000000
 
  0.3636364E+00  0.3636364E+00  0.0000000E+00  0.9015778E-02
    1        0.836047   1.000000
    2        2.590705   1.000000
    3        2.590705   1.000000
    4        3.130792   1.000000
    5        3.333906   1.000000
    6        3.505079   1.000000
    7        3.505079   1.000000
    8        3.920885   1.000000
    9        4.118552   1.000000
   10        4.118552   1.000000
   11        4.286996   1.000000
   12        4.801820   1.000000
   13        5.599115   1.000011
   14        5.600574   1.000011
   15        5.908857   1.013933
   16        6.051338   1.032668
   17        6.051338   1.032668
   18        6.478365  -0.028343
   19        6.478365  -0.028343
   20        6.728535  -0.002862
   21        7.256148  -0.000000
   22        9.035787  -0.000000
   23        9.035787  -0.000000
   24       11.744033   0.000000
   25       15.949384   0.000000
   26       18.828928   0.000000
   27       19.666283   0.000000
   28       19.666283   0.000000
   29       20.762063   0.000000
   30       20.762063   0.000000
   31       22.968083   0.000000
   32       23.601049   0.000000
   33       25.556945   0.000000
   34       25.556945   0.000000
   35       27.048421   0.000000
   36       29.332228   0.000000
   37       32.692571   0.000000
   38       34.292798   0.000000
   39       34.509764   0.000000
   40       34.509764   0.000000
 
  0.4545455E+00  0.3636364E+00  0.0000000E+00  0.1803156E-01
    1        1.492674   1.000000
    2        2.124054   1.000000
    3        2.949567   1.000000
    4        3.134702   1.000000
    5        3.557614   1.000000
    6        3.661142   1.000000
    7        3.758388   1.000000
    8        3.807363   1.000000
    9        3.807703   1.000000
   10        4.029205   1.000000
   11        4.309061   1.000000
   12        4.584740   1.000000
   13        5.627779   1.000026
   14        5.794615   1.001911
   15        5.810613   1.002653
   16        5.826524   1.003621
   17        5.846479   1.005229
   18        6.129126   0.963907
   19        6.515521  -0.035455
   20        6.592978  -0.022719
   21        7.706551  -0.000000
   22        8.272321  -0.000000
   23        9.810218  -0.000000
   24       10.692417  -0.000000
   25       17.089244   0.000000
   26       18.333558   0.000000
   27       19.314660   0.000000
   28       19.956321   0.000000
   29       20.669977   0.000000
   30       21.570791   0.000000
   31       21.775536   0.000000
   32       22.514317   0.000000
   33       26.209768   0.000000
   34       26.965263   0.000000
   35       28.092257   0.000000
   36       30.658042   0.000000
   37       30.883756   0.000000
   38       33.349232   0.000000
   39       34.303196   0.000000
   40       34.930637   0.000000
 
  0.4545455E+00  0.4545455E+00  0.0000000E+00  0.9015778E-02
    1        2.044384   1.000000
    2        2.554855   1.000000
    3        2.554855   1.000000
    4        2.895171   1.000000
    5        3.805921   1.000000
    6        3.805921   1.000000
    7        3.824872   1.000000
    8        3.863904   1.000000
    9        3.934291   1.000000
   10        4.105718   1.000000
   11        4.105718   1.000000
   12        4.389801   1.000000
   13        5.549124   1.000002
   14        5.648448   1.000048
   15        5.648448   1.000048
   16        5.650460   1.000051
   17        5.980394   1.029586
   18        6.215428   0.727146
   19        6.215428   0.727146
   20        6.368252   0.138882
   21        8.256058  -0.000000
   22        8.931008  -0.000000
   23        8.931008  -0.000000
   24        9.713664  -0.000000
   25       18.175377   0.000000
   26       19.374371   0.000000
   27       19.374371   0.000000
   28       19.906719   0.000000
   29       20.526611   0.000000
   30       20.655706   0.000000
   31       20.655706   0.000000
   32       21.505665   0.000000
   33       28.797279   0.000000
   34       28.797279   0.000000
   35       29.355246   0.000000
   36       29.990270   0.000000
   37       31.101139   0.000000
   38       31.837838   0.000000
   39       32.316515   0.000000
   40       32.316515   0.000000
 
  0.9090909E-01  0.9090909E-01  0.9090909E-01  0.6010518E-02
    1       -1.947978   1.000000
    2        1.817146   1.000000
    3        1.817146   1.000000
    4        1.817146   1.000000
    5        2.499300   1.000000
    6        2.499300   1.000000
    7        2.499300   1.000000
    8        4.640499   1.000000
    9        4.850057   1.000000
   10        4.850057   1.000000
   11        6.168283   0.878737
   12        6.168283   0.878737
   13        6.642087  -0.012477
   14        6.642087  -0.012477
   15        6.642087  -0.012477
   16        6.982999  -0.000003
   17        6.982999  -0.000003
   18        6.982999  -0.000003
   19        7.377117  -0.000000
   20        7.377117  -0.000000
   21        7.377117  -0.000000