 vasp.6.2.0 18Jan21 (build Mar 17 2021 09:06:54) complex                        
  
 POSCAR found type information on POSCAR Fe
 POSCAR found :  1 types and       4 ions
 LDA part: xc-table for Pade appr. of Perdew
 POSCAR, INCAR and KPOINTS ok, starting setup
 FFT: planning ...
 WAVECAR not read
 WARNING: chargedensity file is incomplete
 entering main loop
       N       E                     dE             d eps       ncg     rms          rms(c)
DAV:   1     0.161086697239E+03    0.16109E+03   -0.83798E+03  4888   0.678E+02
DAV:   2    -0.260334769116E+02   -0.18712E+03   -0.16449E+03  4608   0.184E+02
DAV:   3    -0.384939929793E+02   -0.12461E+02   -0.11306E+02  5168   0.576E+01
DAV:   4    -0.386531329022E+02   -0.15914E+00   -0.15886E+00  4944   0.779E+00
DAV:   5    -0.386545784476E+02   -0.14455E-02   -0.14455E-02  5000   0.563E-01    0.229E+01
DAV:   6    -0.327863306759E+02    0.58682E+01   -0.14122E+01  5104   0.544E+01    0.478E+00
DAV:   7    -0.323275544089E+02    0.45878E+00   -0.14561E+00  5424   0.153E+01    0.139E+00
DAV:   8    -0.322760399264E+02    0.51514E-01   -0.13977E-02  6176   0.107E+00    0.619E-01
DAV:   9    -0.322547255991E+02    0.21314E-01   -0.37315E-03  5784   0.387E-01    0.990E-02
DAV:  10    -0.322547704643E+02   -0.44865E-04   -0.79100E-04  5064   0.182E-01    0.382E-02
DAV:  11    -0.322547796938E+02   -0.92294E-05   -0.16552E-05  5160   0.518E-02    0.216E-02
DAV:  12    -0.322547766100E+02    0.30838E-05   -0.10831E-05  5440   0.348E-02    0.414E-03
DAV:  13    -0.322547776331E+02   -0.10231E-05   -0.98780E-08  2800   0.235E-03    0.134E-03
DAV:  14    -0.322547777378E+02   -0.10475E-06   -0.17346E-08  2528   0.762E-04
   1 F= -.32254778E+02 E0= -.32257157E+02  d E =0.713708E-02
 writing wavefunctions
