unknown system                          
   1.00000000000000     
     3.198132    0.000000    0.000000
     0.000000    3.198132    0.000000
     0.000000    0.000000    3.198132
   Fe
     4
Direct
  0.000000  0.000000  0.000000
  0.500000  0.500000  0.000000
  0.500000  0.000000  0.500000
  0.000000  0.500000  0.500000
 
   28   28   28
  274.34      260.49      223.19      172.81      120.97      76.516      44.286      25.270      16.977      14.249    
  12.649      11.599      10.997      10.727      10.659      10.727      10.997      11.599      12.649      14.249    
  16.977      25.270      44.286      76.516      120.97      172.81      223.19      260.49      260.49      247.35    
  211.92      164.06      114.80      72.654      42.239      24.459      16.812      14.250      12.683      11.657    
  11.064      10.795      10.727      10.795      11.064      11.657      12.683      14.250      16.812      24.459    
  42.239      72.654      114.80      164.06      211.92      247.35      223.19      211.92      181.53      140.43    
  98.212      62.327      36.848      22.398      16.439      14.268      12.815      11.870      11.320      11.064    
  10.997      11.064      11.320      11.870      12.815      14.268      16.439      22.398      36.848      62.327    
  98.212      140.43      181.53      211.92      172.81      164.06      140.43      108.53      75.950      48.704    
  29.994      19.983      16.105      14.348      13.110      12.323      11.870      11.657      11.599      11.657    
  11.870      12.323      13.110      14.348      16.105      19.983      29.994      48.704      75.950      108.53    
  140.43      164.06      120.97      114.80      98.212      75.950      53.575      35.475      23.784      18.115    
  15.941      14.568      13.654      13.110      12.815      12.683      12.649      12.683      12.815      13.110    
  13.654      14.568      15.941      18.115      23.784      35.475      53.575      75.950      98.212      114.80    
  76.516      72.654      62.327      48.704      35.475      25.434      19.624      17.166      15.920      15.051    
  14.568      14.348      14.268      14.250      14.249      14.250      14.268      14.348      14.568      15.051    
  15.920      17.166      19.624      25.434      35.475      48.704      62.327      72.654      44.286      42.239    
  36.848      29.994      23.784      19.624      17.648      16.753      16.164      15.920      15.941      16.105    
  16.439      16.812      16.977      16.812      16.439      16.105      15.941      15.920      16.164      16.753    
  17.648      19.624      23.784      29.994      36.848      42.239      25.270      24.459      22.398      19.983    
  18.115      17.166      16.753      16.595      16.753      17.166      18.115      19.983      22.398      24.459    
  25.270      24.459      22.398      19.983      18.115      17.166      16.753      16.595      16.753      17.166    
  18.115      19.983      22.398      24.459      16.977      16.812      16.439      16.105      15.941      15.920    
  16.164      16.753      17.648      19.624      23.784      29.994      36.848      42.239      44.286      42.239    
  36.848      29.994      23.784      19.624      17.648      16.753      16.164      15.920      15.941      16.105    
  16.439      16.812      14.249      14.250      14.268      14.348      14.568      15.051      15.920      17.166    
  19.624      25.434      35.475      48.704      62.327      72.654      76.516      72.654      62.327      48.704    
  35.475      25.434      19.624      17.166      15.920      15.051      14.568      14.348      14.268      14.250    
  12.649      12.683      12.815      13.110      13.654      14.568      15.941      18.115      23.784      35.475    
  53.575      75.950      98.212      114.80      120.97      114.80      98.212      75.950      53.575      35.475    
  23.784      18.115      15.941      14.568      13.654      13.110      12.815      12.683      11.599      11.657    
  11.870      12.323      13.110      14.348      16.105      19.983      29.994      48.704      75.950      108.53    
  140.43      164.06      172.81      164.06      140.43      108.53      75.950      48.704      29.994      19.983    
  16.105      14.348      13.110      12.323      11.870      11.657      10.997      11.064      11.320      11.870    
  12.815      14.268      16.439      22.398      36.848      62.327      98.212      140.43      181.53      211.92    
  223.19      211.92      181.53      140.43      98.212      62.327      36.848      22.398      16.439      14.268    
  12.815      11.870      11.320      11.064      10.727      10.795      11.064      11.657      12.683      14.250    
  16.812      24.459      42.239      72.654      114.80      164.06      211.92      247.35      260.49      247.35    
  211.92      164.06      114.80      72.654      42.239      24.459      16.812      14.250      12.683      11.657    
  11.064      10.795      10.659      10.727      10.997      11.599      12.649      14.249      16.977      25.270    
  44.286      76.516      120.97      172.81      223.19      260.49      274.34      260.49      223.19      172.81    
  120.97      76.516      44.286      25.270      16.977      14.249      12.649      11.599      10.997      10.727    
  10.727      10.795      11.064      11.657      12.683      14.250      16.812      24.459      42.239      72.654    
  114.80      164.06      211.92      247.35      260.49      247.35      211.92      164.06      114.80      72.654    
  42.239      24.459      16.812      14.250      12.683      11.657      11.064      10.795      10.997      11.064    
  11.320      11.870      12.815      14.268      16.439      22.398      36.848      62.327      98.212      140.43    
  181.53      211.92      223.19      211.92      181.53      140.43      98.212      62.327      36.848      22.398    
  16.439      14.268      12.815      11.870      11.320      11.064      11.599      11.657      11.870      12.323    
  13.110      14.348      16.105      19.983      29.994      48.704      75.950      108.53      140.43      164.06    
  172.81      164.06      140.43      108.53      75.950      48.704      29.994      19.983      16.105      14.348    
  13.110      12.323      11.870      11.657      12.649      12.683      12.815      13.110      13.654      14.568    
  15.941      18.115      23.784      35.475      53.575      75.950      98.212      114.80      120.97      114.80    
  98.212      75.950      53.575      35.475      23.784      18.115      15.941      14.568      13.654      13.110    
  12.815      12.683      14.249      14.250      14.268      14.348      14.568      15.051      15.920      17.166    
  19.624      25.434      35.475      48.704      62.327      72.654      76.516      72.654      62.327      48.704    
  35.475      25.434      19.624      17.166      15.920      15.051      14.568      14.348      14.268      14.250    
  16.977      16.812      16.439      16.105      15.941      15.920      16.164      16.753      17.648      19.624    
  23.784      29.994      36.848      42.239      44.286      42.239      36.848      29.994      23.784      19.624    
  17.648      16.753      16.164      15.920      15.941      16.105      16.439      16.812      25.270      24.459    
  22.398      19.983      18.115      17.166      16.753      16.595      16.753      17.166      18.115      19.983    
  22.398      24.459      25.270      24.459      22.398      19.983      18.115      17.166      16.753      16.595    
  16.753      17.166      18.115      19.983      22.398      24.459      44.286      42.239      36.848      29.994    
  23.784      19.624      17.648      16.753      16.164      15.920      15.941      16.105      16.439      16.812    
  16.977      16.812      16.439      16.105      15.941      15.920      16.164      16.753      17.648      19.624    
  23.784      29.994      36.848      42.239      76.516      72.654      62.327      48.704      35.475      25.434    
  19.624      17.166      15.920      15.051      14.568      14.348      14.268      14.250      14.249      14.250    
  14.268      14.348      14.568      15.051      15.920      17.166      19.624      25.434      35.475      48.704    
  62.327      72.654      120.97      114.80      98.212      75.950      53.575      35.475      23.784      18.115    
  15.941      14.568      13.654      13.110      12.815      12.683      12.649      12.683      12.815      13.110    
  13.654      14.568      15.941      18.115      23.784      35.475      53.575      75.950      98.212      114.80    
  172.81      164.06      140.43      108.53      75.950      48.704      29.994      19.983      16.105      14.348    
  13.110      12.323      11.870      11.657      11.599      11.657      11.870      12.323      13.110      14.348    
  16.105      19.983      29.994      48.704      75.950      108.53      140.43      164.06      223.19      211.92    
  181.53      140.43      98.212      62.327      36.848      22.398      16.439      14.268      12.815      11.870    
  11.320      11.064      10.997      11.064      11.320      11.870      12.815      14.268      16.439      22.398    
  36.848      62.327      98.212      140.43      181.53      211.92      260.49      247.35      211.92      164.06    
  114.80      72.654      42.239      24.459      16.812      14.250      12.683      11.657      11.064      10.795    
  10.727      10.795      11.064      11.657      12.683      14.250      16.812      24.459      42.239      72.654    
  114.80      164.06      211.92      247.35      260.49      247.35      211.92      164.06      114.80      72.654    
  42.239      24.459      16.812      14.250      12.683      11.657      11.064      10.795      10.727      10.795    
  11.064      11.657      12.683      14.250      16.812      24.459      42.239      72.654      114.80      164.06    
  211.92      247.35      247.35      234.87      201.22      155.74      108.96      69.000      40.315      23.708    
  16.665      14.248      12.717      11.714      11.132      10.864      10.795      10.864      11.132      11.714    
  12.717      14.248      16.665      23.708      40.315      69.000      108.96      155.74      201.22      234.87    
  211.92      201.22      172.34      133.29      93.211      59.236      35.259      21.805      16.332      14.261    
  12.845      11.924      11.385      11.132      11.064      11.132      11.385      11.924      12.845      14.261    
  16.332      21.805      35.259      59.236      93.211      133.29      172.34      201.22      164.06      155.74    
  133.29      103.00      72.116      46.389      28.854      19.590      16.033      14.330      13.129      12.366    
  11.924      11.714      11.657      11.714      11.924      12.366      13.129      14.330      16.033      19.590    
  28.854      46.389      72.116      103.00      133.29      155.74      114.80      108.96      93.211      72.116    
  50.975      33.969      23.094      17.895      15.866      14.535      13.653      13.129      12.845      12.717    
  12.683      12.717      12.845      13.129      13.653      14.535      15.866      17.895      23.094      33.969    
  50.975      72.116      93.211      108.96      72.654      69.000      59.236      46.389      33.969      24.619    
  19.280      17.034      15.830      14.994      14.535      14.330      14.261      14.248      14.250      14.248    
  14.261      14.330      14.535      14.994      15.830      17.034      19.280      24.619      33.969      46.389    
  59.236      69.000      42.239      40.315      35.259      28.854      23.094      19.280      17.485      16.624    
  16.056      15.830      15.866      16.033      16.332      16.665      16.812      16.665      16.332      16.033    
  15.866      15.830      16.056      16.624      17.485      19.280      23.094      28.854      35.259      40.315    
  24.459      23.708      21.805      19.590      17.895      17.034      16.624      16.466      16.624      17.034    
  17.895      19.590      21.805      23.708      24.459      23.708      21.805      19.590      17.895      17.034    
  16.624      16.466      16.624      17.034      17.895      19.590      21.805      23.708      16.812      16.665    
  16.332      16.033      15.866      15.830      16.056      16.624      17.485      19.280      23.094      28.854    
  35.259      40.315      42.239      40.315      35.259      28.854      23.094      19.280      17.485      16.624    
  16.056      15.830      15.866      16.033      16.332      16.665      14.250      14.248      14.261      14.330    
  14.535      14.994      15.830      17.034      19.280      24.619      33.969      46.389      59.236      69.000    
  72.654      69.000      59.236      46.389      33.969      24.619      19.280      17.034      15.830      14.994    
  14.535      14.330      14.261      14.248      12.683      12.717      12.845      13.129      13.653      14.535    
  15.866      17.895      23.094      33.969      50.975      72.116      93.211      108.96      114.80      108.96    
  93.211      72.116      50.975      33.969      23.094      17.895      15.866      14.535      13.653      13.129    
  12.845      12.717      11.657      11.714      11.924      12.366      13.129      14.330      16.033      19.590    
  28.854      46.389      72.116      103.00      133.29      155.74      164.06      155.74      133.29      103.00    
  72.116      46.389      28.854      19.590      16.033      14.330      13.129      12.366      11.924      11.714    
  11.064      11.132      11.385      11.924      12.845      14.261      16.332      21.805      35.259      59.236    
  93.211      133.29      172.34      201.22      211.92      201.22      172.34      133.29      93.211      59.236    
  35.259      21.805      16.332      14.261      12.845      11.924      11.385      11.132      10.795      10.864    
  11.132      11.714      12.717      14.248      16.665      23.708      40.315      69.000      108.96      155.74    
  201.22      234.87      247.35      234.87      201.22      155.74      108.96      69.000      40.315      23.708    
  16.665      14.248      12.717      11.714      11.132      10.864      10.727      10.795      11.064      11.657    
  12.683      14.250      16.812      24.459      42.239      72.654      114.80      164.06      211.92      247.35    
  260.49      247.35      211.92      164.06      114.80      72.654      42.239      24.459      16.812      14.250    
  12.683      11.657      11.064      10.795      10.795      10.864      11.132      11.714      12.717      14.248    
  16.665      23.708      40.315      69.000      108.96      155.74      201.22      234.87      247.35      234.87    
  201.22      155.74      108.96      69.000      40.315      23.708      16.665      14.248      12.717      11.714    
  11.132      10.864      11.064      11.132      11.385      11.924      12.845      14.261      16.332      21.805    
  35.259      59.236      93.211      133.29      172.34      201.22      211.92      201.22      172.34      133.29    
  93.211      59.236      35.259      21.805      16.332      14.261      12.845      11.924      11.385      11.132    
  11.657      11.714      11.924      12.366      13.129      14.330      16.033      19.590      28.854      46.389    
  72.116      103.00      133.29      155.74      164.06      155.74      133.29      103.00      72.116      46.389    
  28.854      19.590      16.033      14.330      13.129      12.366      11.924      11.714      12.683      12.717    
  12.845      13.129      13.653      14.535      15.866      17.895      23.094      33.969      50.975      72.116    
  93.211      108.96      114.80      108.96      93.211      72.116      50.975      33.969      23.094      17.895    
  15.866      14.535      13.653      13.129      12.845      12.717      14.250      14.248      14.261      14.330    
  14.535      14.994      15.830      17.034      19.280      24.619      33.969      46.389      59.236      69.000    
  72.654      69.000      59.236      46.389      33.969      24.619      19.280      17.034      15.830      14.994    
  14.535      14.330      14.261      14.248      16.812      16.665      16.332      16.033      15.866      15.830    
  16.056      16.624      17.485      19.280      23.094      28.854      35.259      40.315      42.239      40.315    
  35.259      28.854      23.094      19.280      17.485      16.624      16.056      15.830      15.866      16.033    
  16.332      16.665      24.459      23.708      21.805      19.590      17.895      17.034      16.624      16.466    
  16.624      17.034      17.895      19.590      21.805      23.708      24.459      23.708      21.805      19.590    
  17.895      17.034      16.624      16.466      16.624      17.034      17.895      19.590      21.805      23.708    
  42.239      40.315      35.259      28.854      23.094      19.280      17.485      16.624      16.056      15.830    
  15.866      16.033      16.332      16.665      16.812      16.665      16.332      16.033      15.866      15.830    
  16.056      16.624      17.485      19.280      23.094      28.854      35.259      40.315      72.654      69.000    
  59.236      46.389      33.969      24.619      19.280      17.034      15.830      14.994      14.535      14.330    
  14.261      14.248      14.250      14.248      14.261      14.330      14.535      14.994      15.830      17.034    
  19.280      24.619      33.969      46.389      59.236      69.000      114.80      108.96      93.211      72.116    
  50.975      33.969      23.094      17.895      15.866      14.535      13.653      13.129      12.845      12.717    
  12.683      12.717      12.845      13.129      13.653      14.535      15.866      17.895      23.094      33.969    
  50.975      72.116      93.211      108.96      164.06      155.74      133.29      103.00      72.116      46.389    
  28.854      19.590      16.033      14.330      13.129      12.366      11.924      11.714      11.657      11.714    
  11.924      12.366      13.129      14.330      16.033      19.590      28.854      46.389      72.116      103.00    
  133.29      155.74      211.92      201.22      172.34      133.29      93.211      59.236      35.259      21.805    
  16.332      14.261      12.845      11.924      11.385      11.132      11.064      11.132      11.385      11.924    
  12.845      14.261      16.332      21.805      35.259      59.236      93.211      133.29      172.34      201.22    
  247.35      234.87      201.22      155.74      108.96      69.000      40.315      23.708      16.665      14.248    
  12.717      11.714      11.132      10.864      10.795      10.864      11.132      11.714      12.717      14.248    
  16.665      23.708      40.315      69.000      108.96      155.74      201.22      234.87      223.19      211.92    
  181.53      140.43      98.212      62.327      36.848      22.398      16.439      14.268      12.815      11.870    
  11.320      11.064      10.997      11.064      11.320      11.870      12.815      14.268      16.439      22.398    
  36.848      62.327      98.212      140.43      181.53      211.92      211.92      201.22      172.34      133.29    
  93.211      59.236      35.259      21.805      16.332      14.261      12.845      11.924      11.385      11.132    
  11.064      11.132      11.385      11.924      12.845      14.261      16.332      21.805      35.259      59.236    
  93.211      133.29      172.34      201.22      181.53      172.34      147.54      114.04      79.774      51.008    
  31.104      20.317      16.089      14.255      12.957      12.117      11.623      11.385      11.320      11.385    
  11.623      12.117      12.957      14.255      16.089      20.317      31.104      51.008      79.774      114.04    
  147.54      172.34      140.43      133.29      114.04      88.122      61.857      40.267      25.909      18.620    
  15.851      14.295      13.205      12.517      12.117      11.924      11.870      11.924      12.117      12.517    
  13.205      14.295      15.851      18.620      25.909      40.267      61.857      88.122      114.04      133.29    
  98.212      93.211      79.774      61.857      44.078      30.039      21.342      17.355      15.662      14.454    
  13.667      13.205      12.957      12.845      12.815      12.845      12.957      13.205      13.667      14.454    
  15.662      17.355      21.342      30.039      44.078      61.857      79.774      93.211      62.327      59.236    
  51.008      40.267      30.039      22.539      18.425      16.685      15.587      14.845      14.454      14.295    
  14.255      14.261      14.268      14.261      14.255      14.295      14.454      14.845      15.587      16.685    
  18.425      22.539      30.039      40.267      51.008      59.236      36.848      35.259      31.104      25.909    
  21.342      18.425      17.065      16.275      15.765      15.587      15.662      15.851      16.089      16.332    
  16.439      16.332      16.089      15.851      15.662      15.587      15.765      16.275      17.065      18.425    
  21.342      25.909      31.104      35.259      22.398      21.805      20.317      18.620      17.355      16.685    
  16.275      16.117      16.275      16.685      17.355      18.620      20.317      21.805      22.398      21.805    
  20.317      18.620      17.355      16.685      16.275      16.117      16.275      16.685      17.355      18.620    
  20.317      21.805      16.439      16.332      16.089      15.851      15.662      15.587      15.765      16.275    
  17.065      18.425      21.342      25.909      31.104      35.259      36.848      35.259      31.104      25.909    
  21.342      18.425      17.065      16.275      15.765      15.587      15.662      15.851      16.089      16.332    
  14.268      14.261      14.255      14.295      14.454      14.845      15.587      16.685      18.425      22.539    
  30.039      40.267      51.008      59.236      62.327      59.236      51.008      40.267      30.039      22.539    
  18.425      16.685      15.587      14.845      14.454      14.295      14.255      14.261      12.815      12.845    
  12.957      13.205      13.667      14.454      15.662      17.355      21.342      30.039      44.078      61.857    
  79.774      93.211      98.212      93.211      79.774      61.857      44.078      30.039      21.342      17.355    
  15.662      14.454      13.667      13.205      12.957      12.845      11.870      11.924      12.117      12.517    
  13.205      14.295      15.851      18.620      25.909      40.267      61.857      88.122      114.04      133.29    
  140.43      133.29      114.04      88.122      61.857      40.267      25.909      18.620      15.851      14.295    
  13.205      12.517      12.117      11.924      11.320      11.385      11.623      12.117      12.957      14.255    
  16.089      20.317      31.104      51.008      79.774      114.04      147.54      172.34      181.53      172.34    
  147.54      114.04      79.774      51.008      31.104      20.317      16.089      14.255      12.957      12.117    
  11.623      11.385      11.064      11.132      11.385      11.924      12.845      14.261      16.332      21.805    
  35.259      59.236      93.211      133.29      172.34      201.22      211.92      201.22      172.34      133.29    
  93.211      59.236      35.259      21.805      16.332      14.261      12.845      11.924      11.385      11.132    
  10.997      11.064      11.320      11.870      12.815      14.268      16.439      22.398      36.848      62.327    
  98.212      140.43      181.53      211.92      223.19      211.92      181.53      140.43      98.212      62.327    
  36.848      22.398      16.439      14.268      12.815      11.870      11.320      11.064      11.064      11.132    
  11.385      11.924      12.845      14.261      16.332      21.805      35.259      59.236      93.211      133.29    
  172.34      201.22      211.92      201.22      172.34      133.29      93.211      59.236      35.259      21.805    
  16.332      14.261      12.845      11.924      11.385      11.132      11.320      11.385      11.623      12.117    
  12.957      14.255      16.089      20.317      31.104      51.008      79.774      114.04      147.54      172.34    
  181.53      172.34      147.54      114.04      79.774      51.008      31.104      20.317      16.089      14.255    
  12.957      12.117      11.623      11.385      11.870      11.924      12.117      12.517      13.205      14.295    
  15.851      18.620      25.909      40.267      61.857      88.122      114.04      133.29      140.43      133.29    
  114.04      88.122      61.857      40.267      25.909      18.620      15.851      14.295      13.205      12.517    
  12.117      11.924      12.815      12.845      12.957      13.205      13.667      14.454      15.662      17.355    
  21.342      30.039      44.078      61.857      79.774      93.211      98.212      93.211      79.774      61.857    
  44.078      30.039      21.342      17.355      15.662      14.454      13.667      13.205      12.957      12.845    
  14.268      14.261      14.255      14.295      14.454      14.845      15.587      16.685      18.425      22.539    
  30.039      40.267      51.008      59.236      62.327      59.236      51.008      40.267      30.039      22.539    
  18.425      16.685      15.587      14.845      14.454      14.295      14.255      14.261      16.439      16.332    
  16.089      15.851      15.662      15.587      15.765      16.275      17.065      18.425      21.342      25.909    
  31.104      35.259      36.848      35.259      31.104      25.909      21.342      18.425      17.065      16.275    
  15.765      15.587      15.662      15.851      16.089      16.332      22.398      21.805      20.317      18.620    
  17.355      16.685      16.275      16.117      16.275      16.685      17.355      18.620      20.317      21.805    
  22.398      21.805      20.317      18.620      17.355      16.685      16.275      16.117      16.275      16.685    
  17.355      18.620      20.317      21.805      36.848      35.259      31.104      25.909      21.342      18.425    
  17.065      16.275      15.765      15.587      15.662      15.851      16.089      16.332      16.439      16.332    
  16.089      15.851      15.662      15.587      15.765      16.275      17.065      18.425      21.342      25.909    
  31.104      35.259      62.327      59.236      51.008      40.267      30.039      22.539      18.425      16.685    
  15.587      14.845      14.454      14.295      14.255      14.261      14.268      14.261      14.255      14.295    
  14.454      14.845      15.587      16.685      18.425      22.539      30.039      40.267      51.008      59.236    
  98.212      93.211      79.774      61.857      44.078      30.039      21.342      17.355      15.662      14.454    
  13.667      13.205      12.957      12.845      12.815      12.845      12.957      13.205      13.667      14.454    
  15.662      17.355      21.342      30.039      44.078      61.857      79.774      93.211      140.43      133.29    
  114.04      88.122      61.857      40.267      25.909      18.620      15.851      14.295      13.205      12.517    
  12.117      11.924      11.870      11.924      12.117      12.517      13.205      14.295      15.851      18.620    
  25.909      40.267      61.857      88.122      114.04      133.29      181.53      172.34      147.54      114.04    
  79.774      51.008      31.104      20.317      16.089      14.255      12.957      12.117      11.623      11.385    
  11.320      11.385      11.623      12.117      12.957      14.255      16.089      20.317      31.104      51.008    
  79.774      114.04      147.54      172.34      211.92      201.22      172.34      133.29      93.211      59.236    
  35.259      21.805      16.332      14.261      12.845      11.924      11.385      11.132      11.064      11.132    
  11.385      11.924      12.845      14.261      16.332      21.805      35.259      59.236      93.211      133.29    
  172.34      201.22      172.81      164.06      140.43      108.53      75.950      48.704      29.994      19.983    
  16.105      14.348      13.110      12.323      11.870      11.657      11.599      11.657      11.870      12.323    
  13.110      14.348      16.105      19.983      29.994      48.704      75.950      108.53      140.43      164.06    
  164.06      155.74      133.29      103.00      72.116      46.389      28.854      19.590      16.033      14.330    
  13.129      12.366      11.924      11.714      11.657      11.714      11.924      12.366      13.129      14.330    
  16.033      19.590      28.854      46.389      72.116      103.00      133.29      155.74      140.43      133.29    
  114.04      88.122      61.857      40.267      25.909      18.620      15.851      14.295      13.205      12.517    
  12.117      11.924      11.870      11.924      12.117      12.517      13.205      14.295      15.851      18.620    
  25.909      40.267      61.857      88.122      114.04      133.29      108.53      103.00      88.122      68.214    
  48.320      32.403      22.314      17.543      15.615      14.285      13.386      12.833      12.517      12.366    