unknown system                          
   1.00000000000000     
     3.198132    0.000000    0.000000
     0.000000    3.198132    0.000000
     0.000000    0.000000    3.198132
   Fe
     4
Direct
  0.000000  0.000000  0.000000
  0.500000  0.500000  0.000000
  0.500000  0.000000  0.500000
  0.000000  0.500000  0.500000
 
   28   28   28
 0.27434058913E+03 0.26049478637E+03 0.22318804824E+03 0.17281193820E+03 0.12096618315E+03
 0.76515550051E+02 0.44286433024E+02 0.25270090309E+02 0.16976539628E+02 0.14249311921E+02
 0.12648857813E+02 0.11599415201E+02 0.10996652240E+02 0.10726617301E+02 0.10659271389E+02
 0.10726617301E+02 0.10996652240E+02 0.11599415201E+02 0.12648857813E+02 0.14249311921E+02
 0.16976539628E+02 0.25270090309E+02 0.44286433024E+02 0.76515550051E+02 0.12096618315E+03
 0.17281193820E+03 0.22318804824E+03 0.26049478637E+03 0.26049478637E+03 0.24735063906E+03
 0.21192090299E+03 0.16405745008E+03 0.11480497743E+03 0.72654338089E+02 0.42239142308E+02
 0.24459018857E+02 0.16812380137E+02 0.14249761837E+02 0.12683223957E+02 0.11656776362E+02
 0.11064099108E+02 0.10795000249E+02 0.10726617301E+02 0.10795000249E+02 0.11064099108E+02
 0.11656776362E+02 0.12683223957E+02 0.14249761837E+02 0.16812380137E+02 0.24459018857E+02
 0.42239142308E+02 0.72654338089E+02 0.11480497743E+03 0.16405745008E+03 0.21192090299E+03
 0.24735063906E+03 0.22318804824E+03 0.21192090299E+03 0.18152521541E+03 0.14043342365E+03
 0.98212307838E+02 0.62326549243E+02 0.36848452182E+02 0.22397504763E+02 0.16439260614E+02
 0.14267594901E+02 0.12815209375E+02 0.11869952206E+02 0.11320138335E+02 0.11064099108E+02
 0.10996652240E+02 0.11064099108E+02 0.11320138335E+02 0.11869952206E+02 0.12815209375E+02
 0.14267594901E+02 0.16439260614E+02 0.22397504763E+02 0.36848452182E+02 0.62326549243E+02
 0.98212307838E+02 0.14043342365E+03 0.18152521541E+03 0.21192090299E+03 0.17281193820E+03
 0.16405745008E+03 0.14043342365E+03 0.10853170927E+03 0.75950344564E+02 0.48704125445E+02
 0.29993785552E+02 0.19982714942E+02 0.16105479286E+02 0.14347660681E+02 0.13109997710E+02
 0.12323368731E+02 0.11869952206E+02 0.11656776362E+02 0.11599415201E+02 0.11656776362E+02
 0.11869952206E+02 0.12323368731E+02 0.13109997710E+02 0.14347660681E+02 0.16105479286E+02
 0.19982714942E+02 0.29993785552E+02 0.48704125445E+02 0.75950344564E+02 0.10853170927E+03
 0.14043342365E+03 0.16405745008E+03 0.12096618315E+03 0.11480497743E+03 0.98212307838E+02
 0.75950344564E+02 0.53574754637E+02 0.35475046702E+02 0.23784462958E+02 0.18114893380E+02
 0.15940968873E+02 0.14567662490E+02 0.13653572658E+02 0.13109997710E+02 0.12815209375E+02
 0.12683223957E+02 0.12648857813E+02 0.12683223957E+02 0.12815209375E+02 0.13109997710E+02
 0.13653572658E+02 0.14567662490E+02 0.15940968873E+02 0.18114893380E+02 0.23784462958E+02
 0.35475046702E+02 0.53574754637E+02 0.75950344564E+02 0.98212307838E+02 0.11480497743E+03
 0.76515550051E+02 0.72654338089E+02 0.62326549243E+02 0.48704125445E+02 0.35475046702E+02
 0.25433873145E+02 0.19624245012E+02 0.17165600742E+02 0.15919846519E+02 0.15050989779E+02
 0.14567662490E+02 0.14347660681E+02 0.14267594901E+02 0.14249761837E+02 0.14249311921E+02
 0.14249761837E+02 0.14267594901E+02 0.14347660681E+02 0.14567662490E+02 0.15050989779E+02
 0.15919846519E+02 0.17165600742E+02 0.19624245012E+02 0.25433873145E+02 0.35475046702E+02
 0.48704125445E+02 0.62326549243E+02 0.72654338089E+02 0.44286433024E+02 0.42239142308E+02
 0.36848452182E+02 0.29993785552E+02 0.23784462958E+02 0.19624245012E+02 0.17647623671E+02
 0.16753174806E+02 0.16163639371E+02 0.15919846519E+02 0.15940968873E+02 0.16105479286E+02
 0.16439260614E+02 0.16812380137E+02 0.16976539628E+02 0.16812380137E+02 0.16439260614E+02
 0.16105479286E+02 0.15940968873E+02 0.15919846519E+02 0.16163639371E+02 0.16753174806E+02
 0.17647623671E+02 0.19624245012E+02 0.23784462958E+02 0.29993785552E+02 0.36848452182E+02
 0.42239142308E+02 0.25270090309E+02 0.24459018857E+02 0.22397504763E+02 0.19982714942E+02
 0.18114893380E+02 0.17165600742E+02 0.16753174806E+02 0.16595254607E+02 0.16753174806E+02
 0.17165600742E+02 0.18114893380E+02 0.19982714942E+02 0.22397504763E+02 0.24459018857E+02
 0.25270090309E+02 0.24459018857E+02 0.22397504763E+02 0.19982714942E+02 0.18114893380E+02
 0.17165600742E+02 0.16753174806E+02 0.16595254607E+02 0.16753174806E+02 0.17165600742E+02
 0.18114893380E+02 0.19982714942E+02 0.22397504763E+02 0.24459018857E+02 0.16976539628E+02
 0.16812380137E+02 0.16439260614E+02 0.16105479286E+02 0.15940968873E+02 0.15919846519E+02
 0.16163639371E+02 0.16753174806E+02 0.17647623671E+02 0.19624245012E+02 0.23784462958E+02
 0.29993785552E+02 0.36848452182E+02 0.42239142308E+02 0.44286433024E+02 0.42239142308E+02
 0.36848452182E+02 0.29993785552E+02 0.23784462958E+02 0.19624245012E+02 0.17647623671E+02
 0.16753174806E+02 0.16163639371E+02 0.15919846519E+02 0.15940968873E+02 0.16105479286E+02
 0.16439260614E+02 0.16812380137E+02 0.14249311921E+02 0.14249761837E+02 0.14267594901E+02
 0.14347660681E+02 0.14567662490E+02 0.15050989779E+02 0.15919846519E+02 0.17165600742E+02
 0.19624245012E+02 0.25433873145E+02 0.35475046702E+02 0.48704125445E+02 0.62326549243E+02
 0.72654338089E+02 0.76515550051E+02 0.72654338089E+02 0.62326549243E+02 0.48704125445E+02
 0.35475046702E+02 0.25433873145E+02 0.19624245012E+02 0.17165600742E+02 0.15919846519E+02
 0.15050989779E+02 0.14567662490E+02 0.14347660681E+02 0.14267594901E+02 0.14249761837E+02
 0.12648857813E+02 0.12683223957E+02 0.12815209375E+02 0.13109997710E+02 0.13653572658E+02
 0.14567662490E+02 0.15940968873E+02 0.18114893380E+02 0.23784462958E+02 0.35475046702E+02
 0.53574754637E+02 0.75950344564E+02 0.98212307838E+02 0.11480497743E+03 0.12096618315E+03
 0.11480497743E+03 0.98212307838E+02 0.75950344564E+02 0.53574754637E+02 0.35475046702E+02
 0.23784462958E+02 0.18114893380E+02 0.15940968873E+02 0.14567662490E+02 0.13653572658E+02
 0.13109997710E+02 0.12815209375E+02 0.12683223957E+02 0.11599415201E+02 0.11656776362E+02
 0.11869952206E+02 0.12323368731E+02 0.13109997710E+02 0.14347660681E+02 0.16105479286E+02
 0.19982714942E+02 0.29993785552E+02 0.48704125445E+02 0.75950344564E+02 0.10853170927E+03
 0.14043342365E+03 0.16405745008E+03 0.17281193820E+03 0.16405745008E+03 0.14043342365E+03
 0.10853170927E+03 0.75950344564E+02 0.48704125445E+02 0.29993785552E+02 0.19982714942E+02
 0.16105479286E+02 0.14347660681E+02 0.13109997710E+02 0.12323368731E+02 0.11869952206E+02
 0.11656776362E+02 0.10996652240E+02 0.11064099108E+02 0.11320138335E+02 0.11869952206E+02
 0.12815209375E+02 0.14267594901E+02 0.16439260614E+02 0.22397504763E+02 0.36848452182E+02
 0.62326549243E+02 0.98212307838E+02 0.14043342365E+03 0.18152521541E+03 0.21192090299E+03
 0.22318804824E+03 0.21192090299E+03 0.18152521541E+03 0.14043342365E+03 0.98212307838E+02
 0.62326549243E+02 0.36848452182E+02 0.22397504763E+02 0.16439260614E+02 0.14267594901E+02
 0.12815209375E+02 0.11869952206E+02 0.11320138335E+02 0.11064099108E+02 0.10726617301E+02
 0.10795000249E+02 0.11064099108E+02 0.11656776362E+02 0.12683223957E+02 0.14249761837E+02
 0.16812380137E+02 0.24459018857E+02 0.42239142308E+02 0.72654338089E+02 0.11480497743E+03
 0.16405745008E+03 0.21192090299E+03 0.24735063906E+03 0.26049478637E+03 0.24735063906E+03
 0.21192090299E+03 0.16405745008E+03 0.11480497743E+03 0.72654338089E+02 0.42239142308E+02
 0.24459018857E+02 0.16812380137E+02 0.14249761837E+02 0.12683223957E+02 0.11656776362E+02
 0.11064099108E+02 0.10795000249E+02 0.10659271389E+02 0.10726617301E+02 0.10996652240E+02
 0.11599415201E+02 0.12648857813E+02 0.14249311921E+02 0.16976539628E+02 0.25270090309E+02
 0.44286433024E+02 0.76515550051E+02 0.12096618315E+03 0.17281193820E+03 0.22318804824E+03
 0.26049478637E+03 0.27434058913E+03 0.26049478637E+03 0.22318804824E+03 0.17281193820E+03
 0.12096618315E+03 0.76515550051E+02 0.44286433024E+02 0.25270090309E+02 0.16976539628E+02
 0.14249311921E+02 0.12648857813E+02 0.11599415201E+02 0.10996652240E+02 0.10726617301E+02
 0.10726617301E+02 0.10795000249E+02 0.11064099108E+02 0.11656776362E+02 0.12683223957E+02
 0.14249761837E+02 0.16812380137E+02 0.24459018857E+02 0.42239142308E+02 0.72654338089E+02
 0.11480497743E+03 0.16405745008E+03 0.21192090299E+03 0.24735063906E+03 0.26049478637E+03
 0.24735063906E+03 0.21192090299E+03 0.16405745008E+03 0.11480497743E+03 0.72654338089E+02
 0.42239142308E+02 0.24459018857E+02 0.16812380137E+02 0.14249761837E+02 0.12683223957E+02
 0.11656776362E+02 0.11064099108E+02 0.10795000249E+02 0.10996652240E+02 0.11064099108E+02
 0.11320138335E+02 0.11869952206E+02 0.12815209375E+02 0.14267594901E+02 0.16439260614E+02
 0.22397504763E+02 0.36848452182E+02 0.62326549243E+02 0.98212307838E+02 0.14043342365E+03
 0.18152521541E+03 0.21192090299E+03 0.22318804824E+03 0.21192090299E+03 0.18152521541E+03
 0.14043342365E+03 0.98212307838E+02 0.62326549243E+02 0.36848452182E+02 0.22397504763E+02
 0.16439260614E+02 0.14267594901E+02 0.12815209375E+02 0.11869952206E+02 0.11320138335E+02
 0.11064099108E+02 0.11599415201E+02 0.11656776362E+02 0.11869952206E+02 0.12323368731E+02
 0.13109997710E+02 0.14347660681E+02 0.16105479286E+02 0.19982714942E+02 0.29993785552E+02
 0.48704125445E+02 0.75950344564E+02 0.10853170927E+03 0.14043342365E+03 0.16405745008E+03
 0.17281193820E+03 0.16405745008E+03 0.14043342365E+03 0.10853170927E+03 0.75950344564E+02
 0.48704125445E+02 0.29993785552E+02 0.19982714942E+02 0.16105479286E+02 0.14347660681E+02
 0.13109997710E+02 0.12323368731E+02 0.11869952206E+02 0.11656776362E+02 0.12648857813E+02
 0.12683223957E+02 0.12815209375E+02 0.13109997710E+02 0.13653572658E+02 0.14567662490E+02
 0.15940968873E+02 0.18114893380E+02 0.23784462958E+02 0.35475046702E+02 0.53574754637E+02
 0.75950344564E+02 0.98212307838E+02 0.11480497743E+03 0.12096618315E+03 0.11480497743E+03
 0.98212307838E+02 0.75950344564E+02 0.53574754637E+02 0.35475046702E+02 0.23784462958E+02
 0.18114893380E+02 0.15940968873E+02 0.14567662490E+02 0.13653572658E+02 0.13109997710E+02
 0.12815209375E+02 0.12683223957E+02 0.14249311921E+02 0.14249761837E+02 0.14267594901E+02
 0.14347660681E+02 0.14567662490E+02 0.15050989779E+02 0.15919846519E+02 0.17165600742E+02
 0.19624245012E+02 0.25433873145E+02 0.35475046702E+02 0.48704125445E+02 0.62326549243E+02
 0.72654338089E+02 0.76515550051E+02 0.72654338089E+02 0.62326549243E+02 0.48704125445E+02
 0.35475046702E+02 0.25433873145E+02 0.19624245012E+02 0.17165600742E+02 0.15919846519E+02
 0.15050989779E+02 0.14567662490E+02 0.14347660681E+02 0.14267594901E+02 0.14249761837E+02
 0.16976539628E+02 0.16812380137E+02 0.16439260614E+02 0.16105479286E+02 0.15940968873E+02
 0.15919846519E+02 0.16163639371E+02 0.16753174806E+02 0.17647623671E+02 0.19624245012E+02
 0.23784462958E+02 0.29993785552E+02 0.36848452182E+02 0.42239142308E+02 0.44286433024E+02
 0.42239142308E+02 0.36848452182E+02 0.29993785552E+02 0.23784462958E+02 0.19624245012E+02
 0.17647623671E+02 0.16753174806E+02 0.16163639371E+02 0.15919846519E+02 0.15940968873E+02
 0.16105479286E+02 0.16439260614E+02 0.16812380137E+02 0.25270090309E+02 0.24459018857E+02
 0.22397504763E+02 0.19982714942E+02 0.18114893380E+02 0.17165600742E+02 0.16753174806E+02
 0.16595254607E+02 0.16753174806E+02 0.17165600742E+02 0.18114893380E+02 0.19982714942E+02
 0.22397504763E+02 0.24459018857E+02 0.25270090309E+02 0.24459018857E+02 0.22397504763E+02
 0.19982714942E+02 0.18114893380E+02 0.17165600742E+02 0.16753174806E+02 0.16595254607E+02
 0.16753174806E+02 0.17165600742E+02 0.18114893380E+02 0.19982714942E+02 0.22397504763E+02
 0.24459018857E+02 0.44286433024E+02 0.42239142308E+02 0.36848452182E+02 0.29993785552E+02
 0.23784462958E+02 0.19624245012E+02 0.17647623671E+02 0.16753174806E+02 0.16163639371E+02
 0.15919846519E+02 0.15940968873E+02 0.16105479286E+02 0.16439260614E+02 0.16812380137E+02
 0.16976539628E+02 0.16812380137E+02 0.16439260614E+02 0.16105479286E+02 0.15940968873E+02
 0.15919846519E+02 0.16163639371E+02 0.16753174806E+02 0.17647623671E+02 0.19624245012E+02
 0.23784462958E+02 0.29993785552E+02 0.36848452182E+02 0.42239142308E+02 0.76515550051E+02
 0.72654338089E+02 0.62326549243E+02 0.48704125445E+02 0.35475046702E+02 0.25433873145E+02
 0.19624245012E+02 0.17165600742E+02 0.15919846519E+02 0.15050989779E+02 0.14567662490E+02
 0.14347660681E+02 0.14267594901E+02 0.14249761837E+02 0.14249311921E+02 0.14249761837E+02
 0.14267594901E+02 0.14347660681E+02 0.14567662490E+02 0.15050989779E+02 0.15919846519E+02
 0.17165600742E+02 0.19624245012E+02 0.25433873145E+02 0.35475046702E+02 0.48704125445E+02
 0.62326549243E+02 0.72654338089E+02 0.12096618315E+03 0.11480497743E+03 0.98212307838E+02
 0.75950344564E+02 0.53574754637E+02 0.35475046702E+02 0.23784462958E+02 0.18114893380E+02
 0.15940968873E+02 0.14567662490E+02 0.13653572658E+02 0.13109997710E+02 0.12815209375E+02
 0.12683223957E+02 0.12648857813E+02 0.12683223957E+02 0.12815209375E+02 0.13109997710E+02
 0.13653572658E+02 0.14567662490E+02 0.15940968873E+02 0.18114893380E+02 0.23784462958E+02
 0.35475046702E+02 0.53574754637E+02 0.75950344564E+02 0.98212307838E+02 0.11480497743E+03
 0.17281193820E+03 0.16405745008E+03 0.14043342365E+03 0.10853170927E+03 0.75950344564E+02
 0.48704125445E+02 0.29993785552E+02 0.19982714942E+02 0.16105479286E+02 0.14347660681E+02
 0.13109997710E+02 0.12323368731E+02 0.11869952206E+02 0.11656776362E+02 0.11599415201E+02
 0.11656776362E+02 0.11869952206E+02 0.12323368731E+02 0.13109997710E+02 0.14347660681E+02
 0.16105479286E+02 0.19982714942E+02 0.29993785552E+02 0.48704125445E+02 0.75950344564E+02
 0.10853170927E+03 0.14043342365E+03 0.16405745008E+03 0.22318804824E+03 0.21192090299E+03
 0.18152521541E+03 0.14043342365E+03 0.98212307838E+02 0.62326549243E+02 0.36848452182E+02
 0.22397504763E+02 0.16439260614E+02 0.14267594901E+02 0.12815209375E+02 0.11869952206E+02
 0.11320138335E+02 0.11064099108E+02 0.10996652240E+02 0.11064099108E+02 0.11320138335E+02
 0.11869952206E+02 0.12815209375E+02 0.14267594901E+02 0.16439260614E+02 0.22397504763E+02
 0.36848452182E+02 0.62326549243E+02 0.98212307838E+02 0.14043342365E+03 0.18152521541E+03
 0.21192090299E+03 0.26049478637E+03 0.24735063906E+03 0.21192090299E+03 0.16405745008E+03
 0.11480497743E+03 0.72654338089E+02 0.42239142308E+02 0.24459018857E+02 0.16812380137E+02
 0.14249761837E+02 0.12683223957E+02 0.11656776362E+02 0.11064099108E+02 0.10795000249E+02
 0.10726617301E+02 0.10795000249E+02 0.11064099108E+02 0.11656776362E+02 0.12683223957E+02
 0.14249761837E+02 0.16812380137E+02 0.24459018857E+02 0.42239142308E+02 0.72654338089E+02
 0.11480497743E+03 0.16405745008E+03 0.21192090299E+03 0.24735063906E+03 0.26049478637E+03
 0.24735063906E+03 0.21192090299E+03 0.16405745008E+03 0.11480497743E+03 0.72654338089E+02
 0.42239142308E+02 0.24459018857E+02 0.16812380137E+02 0.14249761837E+02 0.12683223957E+02
 0.11656776362E+02 0.11064099108E+02 0.10795000249E+02 0.10726617301E+02 0.10795000249E+02
 0.11064099108E+02 0.11656776362E+02 0.12683223957E+02 0.14249761837E+02 0.16812380137E+02
 0.24459018857E+02 0.42239142308E+02 0.72654338089E+02 0.11480497743E+03 0.16405745008E+03
 0.21192090299E+03 0.24735063906E+03 0.24735063906E+03 0.23486988875E+03 0.20121723096E+03
 0.15573878898E+03 0.10895565128E+03 0.69000209834E+02 0.40315426112E+02 0.23708071487E+02
 0.16665396693E+02 0.14248419461E+02 0.12716811835E+02 0.11713868534E+02 0.11131804119E+02
 0.10864177751E+02 0.10795000249E+02 0.10864177751E+02 0.11131804119E+02 0.11713868534E+02
 0.12716811835E+02 0.14248419461E+02 0.16665396693E+02 0.23708071487E+02 0.40315426112E+02
 0.69000209834E+02 0.10895565128E+03 0.15573878898E+03 0.20121723096E+03 0.23486988875E+03
 0.21192090299E+03 0.20121723096E+03 0.17233687835E+03 0.13329348680E+03 0.93210996558E+02
 0.59236328589E+02 0.35258874006E+02 0.21804982077E+02 0.16332319024E+02 0.14260566524E+02
 0.12844790866E+02 0.11923624230E+02 0.11385274377E+02 0.11131804119E+02 0.11064099108E+02
 0.11131804119E+02 0.11385274377E+02 0.11923624230E+02 0.12844790866E+02 0.14260566524E+02
 0.16332319024E+02 0.21804982077E+02 0.35258874006E+02 0.59236328589E+02 0.93210996558E+02
 0.13329348680E+03 0.17233687835E+03 0.20121723096E+03 0.16405745008E+03 0.15573878898E+03
 0.13329348680E+03 0.10300077719E+03 0.72115667429E+02 0.46388763729E+02 0.28854295439E+02
 0.19590208627E+02 0.16032637017E+02 0.14330460407E+02 0.13129065257E+02 0.12365564379E+02
 0.11923624230E+02 0.11713868534E+02 0.11656776362E+02 0.11713868534E+02 0.11923624230E+02
 0.12365564379E+02 0.13129065257E+02 0.14330460407E+02 0.16032637017E+02 0.19590208627E+02
 0.28854295439E+02 0.46388763729E+02 0.72115667429E+02 0.10300077719E+03 0.13329348680E+03
 0.15573878898E+03 0.11480497743E+03 0.10895565128E+03 0.93210996558E+02 0.72115667429E+02
 0.50974668486E+02 0.33969454156E+02 0.23094135718E+02 0.17894879002E+02 0.15866274458E+02
 0.14534673341E+02 0.13652639747E+02 0.13129065257E+02 0.12844790866E+02 0.12716811835E+02
 0.12683223957E+02 0.12716811835E+02 0.12844790866E+02 0.13129065257E+02 0.13652639747E+02
 0.14534673341E+02 0.15866274458E+02 0.17894879002E+02 0.23094135718E+02 0.33969454156E+02
 0.50974668486E+02 0.72115667429E+02 0.93210996558E+02 0.10895565128E+03 0.72654338089E+02
 0.69000209834E+02 0.59236328589E+02 0.46388763729E+02 0.33969454156E+02 0.24619377403E+02
 0.19280051174E+02 0.17033981020E+02 0.15829915005E+02 0.14994093018E+02 0.14534673341E+02
 0.14330460407E+02 0.14260566524E+02 0.14248419461E+02 0.14249761837E+02 0.14248419461E+02
 0.14260566524E+02 0.14330460407E+02 0.14534673341E+02 0.14994093018E+02 0.15829915005E+02
 0.17033981020E+02 0.19280051174E+02 0.24619377403E+02 0.33969454156E+02 0.46388763729E+02
 0.59236328589E+02 0.69000209834E+02 0.42239142308E+02 0.40315426112E+02 0.35258874006E+02
 0.28854295439E+02 0.23094135718E+02 0.19280051174E+02 0.17485174139E+02 0.16624449406E+02
 0.16055556727E+02 0.15829915005E+02 0.15866274458E+02 0.16032637017E+02 0.16332319024E+02
 0.16665396693E+02 0.16812380137E+02 0.16665396693E+02 0.16332319024E+02 0.16032637017E+02
 0.15866274458E+02 0.15829915005E+02 0.16055556727E+02 0.16624449406E+02 0.17485174139E+02
 0.19280051174E+02 0.23094135718E+02 0.28854295439E+02 0.35258874006E+02 0.40315426112E+02
 0.24459018857E+02 0.23708071487E+02 0.21804982077E+02 0.19590208627E+02 0.17894879002E+02
 0.17033981020E+02 0.16624449406E+02 0.16465888714E+02 0.16624449406E+02 0.17033981020E+02
 0.17894879002E+02 0.19590208627E+02 0.21804982077E+02 0.23708071487E+02 0.24459018857E+02
 0.23708071487E+02 0.21804982077E+02 0.19590208627E+02 0.17894879002E+02 0.17033981020E+02
 0.16624449406E+02 0.16465888714E+02 0.16624449406E+02 0.17033981020E+02 0.17894879002E+02
 0.19590208627E+02 0.21804982077E+02 0.23708071487E+02 0.16812380137E+02 0.16665396693E+02
 0.16332319024E+02 0.16032637017E+02 0.15866274458E+02 0.15829915005E+02 0.16055556727E+02
 0.16624449406E+02 0.17485174139E+02 0.19280051174E+02 0.23094135718E+02 0.28854295439E+02
 0.35258874006E+02 0.40315426112E+02 0.42239142308E+02 0.40315426112E+02 0.35258874006E+02
 0.28854295439E+02 0.23094135718E+02 0.19280051174E+02 0.17485174139E+02 0.16624449406E+02
 0.16055556727E+02 0.15829915005E+02 0.15866274458E+02 0.16032637017E+02 0.16332319024E+02
 0.16665396693E+02 0.14249761837E+02 0.14248419461E+02 0.14260566524E+02 0.14330460407E+02
 0.14534673341E+02 0.14994093018E+02 0.15829915005E+02 0.17033981020E+02 0.19280051174E+02
 0.24619377403E+02 0.33969454156E+02 0.46388763729E+02 0.59236328589E+02 0.69000209834E+02
 0.72654338089E+02 0.69000209834E+02 0.59236328589E+02 0.46388763729E+02 0.33969454156E+02
 0.24619377403E+02 0.19280051174E+02 0.17033981020E+02 0.15829915005E+02 0.14994093018E+02
 0.14534673341E+02 0.14330460407E+02 0.14260566524E+02 0.14248419461E+02 0.12683223957E+02
 0.12716811835E+02 0.12844790866E+02 0.13129065257E+02 0.13652639747E+02 0.14534673341E+02
 0.15866274458E+02 0.17894879002E+02 0.23094135718E+02 0.33969454156E+02 0.50974668486E+02
 0.72115667429E+02 0.93210996558E+02 0.10895565128E+03 0.11480497743E+03 0.10895565128E+03
 0.93210996558E+02 0.72115667429E+02 0.50974668486E+02 0.33969454156E+02 0.23094135718E+02
 0.17894879002E+02 0.15866274458E+02 0.14534673341E+02 0.13652639747E+02 0.13129065257E+02
 0.12844790866E+02 0.12716811835E+02 0.11656776362E+02 0.11713868534E+02 0.11923624230E+02
 0.12365564379E+02 0.13129065257E+02 0.14330460407E+02 0.16032637017E+02 0.19590208627E+02
 0.28854295439E+02 0.46388763729E+02 0.72115667429E+02 0.10300077719E+03 0.13329348680E+03
 0.15573878898E+03 0.16405745008E+03 0.15573878898E+03 0.13329348680E+03 0.10300077719E+03
 0.72115667429E+02 0.46388763729E+02 0.28854295439E+02 0.19590208627E+02 0.16032637017E+02
 0.14330460407E+02 0.13129065257E+02 0.12365564379E+02 0.11923624230E+02 0.11713868534E+02
 0.11064099108E+02 0.11131804119E+02 0.11385274377E+02 0.11923624230E+02 0.12844790866E+02
 0.14260566524E+02 0.16332319024E+02 0.21804982077E+02 0.35258874006E+02 0.59236328589E+02
 0.93210996558E+02 0.13329348680E+03 0.17233687835E+03 0.20121723096E+03 0.21192090299E+03
 0.20121723096E+03 0.17233687835E+03 0.13329348680E+03 0.93210996558E+02 0.59236328589E+02
 0.35258874006E+02 0.21804982077E+02 0.16332319024E+02 0.14260566524E+02 0.12844790866E+02
 0.11923624230E+02 0.11385274377E+02 0.11131804119E+02 0.10795000249E+02 0.10864177751E+02
 0.11131804119E+02 0.11713868534E+02 0.12716811835E+02 0.14248419461E+02 0.16665396693E+02
 0.23708071487E+02 0.40315426112E+02 0.69000209834E+02 0.10895565128E+03 0.15573878898E+03
 0.20121723096E+03 0.23486988875E+03 0.24735063906E+03 0.23486988875E+03 0.20121723096E+03
 0.15573878898E+03 0.10895565128E+03 0.69000209834E+02 0.40315426112E+02 0.23708071487E+02
 0.16665396693E+02 0.14248419461E+02 0.12716811835E+02 0.11713868534E+02 0.11131804119E+02
 0.10864177751E+02 0.10726617301E+02 0.10795000249E+02 0.11064099108E+02 0.11656776362E+02
 0.12683223957E+02 0.14249761837E+02 0.16812380137E+02 0.24459018857E+02 0.42239142308E+02
 0.72654338089E+02 0.11480497743E+03 0.16405745008E+03 0.21192090299E+03 0.24735063906E+03
 0.26049478637E+03 0.24735063906E+03 0.21192090299E+03 0.16405745008E+03 0.11480497743E+03
 0.72654338089E+02 0.42239142308E+02 0.24459018857E+02 0.16812380137E+02 0.14249761837E+02
 0.12683223957E+02 0.11656776362E+02 0.11064099108E+02 0.10795000249E+02 0.10795000249E+02
 0.10864177751E+02 0.11131804119E+02 0.11713868534E+02 0.12716811835E+02 0.14248419461E+02
 0.16665396693E+02 0.23708071487E+02 0.40315426112E+02 0.69000209834E+02 0.10895565128E+03
 0.15573878898E+03 0.20121723096E+03 0.23486988875E+03 0.24735063906E+03 0.23486988875E+03
 0.20121723096E+03 0.15573878898E+03 0.10895565128E+03 0.69000209834E+02 0.40315426112E+02
 0.23708071487E+02 0.16665396693E+02 0.14248419461E+02 0.12716811835E+02 0.11713868534E+02
 0.11131804119E+02 0.10864177751E+02 0.11064099108E+02 0.11131804119E+02 0.11385274377E+02
 0.11923624230E+02 0.12844790866E+02 0.14260566524E+02 0.16332319024E+02 0.21804982077E+02
 0.35258874006E+02 0.59236328589E+02 0.93210996558E+02 0.13329348680E+03 0.17233687835E+03
 0.20121723096E+03 0.21192090299E+03 0.20121723096E+03 0.17233687835E+03 0.13329348680E+03
 0.93210996558E+02 0.59236328589E+02 0.35258874006E+02 0.21804982077E+02 0.16332319024E+02
 0.14260566524E+02 0.12844790866E+02 0.11923624230E+02 0.11385274377E+02 0.11131804119E+02
 0.11656776362E+02 0.11713868534E+02 0.11923624230E+02 0.12365564379E+02 0.13129065257E+02
 0.14330460407E+02 0.16032637017E+02 0.19590208627E+02 0.28854295439E+02 0.46388763729E+02
 0.72115667429E+02 0.10300077719E+03 0.13329348680E+03 0.15573878898E+03 0.16405745008E+03
 0.15573878898E+03 0.13329348680E+03 0.10300077719E+03 0.72115667429E+02 0.46388763729E+02
 0.28854295439E+02 0.19590208627E+02 0.16032637017E+02 0.14330460407E+02 0.13129065257E+02
 0.12365564379E+02 0.11923624230E+02 0.11713868534E+02 0.12683223957E+02 0.12716811835E+02
 0.12844790866E+02 0.13129065257E+02 0.13652639747E+02 0.14534673341E+02 0.15866274458E+02
 0.17894879002E+02 0.23094135718E+02 0.33969454156E+02 0.50974668486E+02 0.72115667429E+02
 0.93210996558E+02 0.10895565128E+03 0.11480497743E+03 0.10895565128E+03 0.93210996558E+02
 0.72115667429E+02 0.50974668486E+02 0.33969454156E+02 0.23094135718E+02 0.17894879002E+02
 0.15866274458E+02 0.14534673341E+02 0.13652639747E+02 0.13129065257E+02 0.12844790866E+02
 0.12716811835E+02 0.14249761837E+02 0.14248419461E+02 0.14260566524E+02 0.14330460407E+02
 0.14534673341E+02 0.14994093018E+02 0.15829915005E+02 0.17033981020E+02 0.19280051174E+02
 0.24619377403E+02 0.33969454156E+02 0.46388763729E+02 0.59236328589E+02 0.69000209834E+02
 0.72654338089E+02 0.69000209834E+02 0.59236328589E+02 0.46388763729E+02 0.33969454156E+02
 0.24619377403E+02 0.19280051174E+02 0.17033981020E+02 0.15829915005E+02 0.14994093018E+02
 0.14534673341E+02 0.14330460407E+02 0.14260566524E+02 0.14248419461E+02 0.16812380137E+02
 0.16665396693E+02 0.16332319024E+02 0.16032637017E+02 0.15866274458E+02 0.15829915005E+02
 0.16055556727E+02 0.16624449406E+02 0.17485174139E+02 0.19280051174E+02 0.23094135718E+02
 0.28854295439E+02 0.35258874006E+02 0.40315426112E+02 0.42239142308E+02 0.40315426112E+02
 0.35258874006E+02 0.28854295439E+02 0.23094135718E+02 0.19280051174E+02 0.17485174139E+02
 0.16624449406E+02 0.16055556727E+02 0.15829915005E+02 0.15866274458E+02 0.16032637017E+02
 0.16332319024E+02 0.16665396693E+02 0.24459018857E+02 0.23708071487E+02 0.21804982077E+02
 0.19590208627E+02 0.17894879002E+02 0.17033981020E+02 0.16624449406E+02 0.16465888714E+02
 0.16624449406E+02 0.17033981020E+02 0.17894879002E+02 0.19590208627E+02 0.21804982077E+02
 0.23708071487E+02 0.24459018857E+02 0.23708071487E+02 0.21804982077E+02 0.19590208627E+02
 0.17894879002E+02 0.17033981020E+02 0.16624449406E+02 0.16465888714E+02 0.16624449406E+02
 0.17033981020E+02 0.17894879002E+02 0.19590208627E+02 0.21804982077E+02 0.23708071487E+02
 0.42239142308E+02 0.40315426112E+02 0.35258874006E+02 0.28854295439E+02 0.23094135718E+02
 0.19280051174E+02 0.17485174139E+02 0.16624449406E+02 0.16055556727E+02 0.15829915005E+02
 0.15866274458E+02 0.16032637017E+02 0.16332319024E+02 0.16665396693E+02 0.16812380137E+02
 0.16665396693E+02 0.16332319024E+02 0.16032637017E+02 0.15866274458E+02 0.15829915005E+02
 0.16055556727E+02 0.16624449406E+02 0.17485174139E+02 0.19280051174E+02 0.23094135718E+02
 0.28854295439E+02 0.35258874006E+02 0.40315426112E+02 0.72654338089E+02 0.69000209834E+02
 0.59236328589E+02 0.46388763729E+02 0.33969454156E+02 0.24619377403E+02 0.19280051174E+02
 0.17033981020E+02 0.15829915005E+02 0.14994093018E+02 0.14534673341E+02 0.14330460407E+02
 0.14260566524E+02 0.14248419461E+02 0.14249761837E+02 0.14248419461E+02 0.14260566524E+02
 0.14330460407E+02 0.14534673341E+02 0.14994093018E+02 0.15829915005E+02 0.17033981020E+02
 0.19280051174E+02 0.24619377403E+02 0.33969454156E+02 0.46388763729E+02 0.59236328589E+02
 0.69000209834E+02 0.11480497743E+03 0.10895565128E+03 0.93210996558E+02 0.72115667429E+02
 0.50974668486E+02 0.33969454156E+02 0.23094135718E+02 0.17894879002E+02 0.15866274458E+02
 0.14534673341E+02 0.13652639747E+02 0.13129065257E+02 0.12844790866E+02 0.12716811835E+02
 0.12683223957E+02 0.12716811835E+02 0.12844790866E+02 0.13129065257E+02 0.13652639747E+02
 0.14534673341E+02 0.15866274458E+02 0.17894879002E+02 0.23094135718E+02 0.33969454156E+02
 0.50974668486E+02 0.72115667429E+02 0.93210996558E+02 0.10895565128E+03 0.16405745008E+03
 0.15573878898E+03 0.13329348680E+03 0.10300077719E+03 0.72115667429E+02 0.46388763729E+02
 0.28854295439E+02 0.19590208627E+02 0.16032637017E+02 0.14330460407E+02 0.13129065257E+02
 0.12365564379E+02 0.11923624230E+02 0.11713868534E+02 0.11656776362E+02 0.11713868534E+02
 0.11923624230E+02 0.12365564379E+02 0.13129065257E+02 0.14330460407E+02 0.16032637017E+02
 0.19590208627E+02 0.28854295439E+02 0.46388763729E+02 0.72115667429E+02 0.10300077719E+03
 0.13329348680E+03 0.15573878898E+03 0.21192090299E+03 0.20121723096E+03 0.17233687835E+03
 0.13329348680E+03 0.93210996558E+02 0.59236328589E+02 0.35258874006E+02 0.21804982077E+02
 0.16332319024E+02 0.14260566524E+02 0.12844790866E+02 0.11923624230E+02 0.11385274377E+02
 0.11131804119E+02 0.11064099108E+02 0.11131804119E+02 0.11385274377E+02 0.11923624230E+02
 0.12844790866E+02 0.14260566524E+02 0.16332319024E+02 0.21804982077E+02 0.35258874006E+02
 0.59236328589E+02 0.93210996558E+02 0.13329348680E+03 0.17233687835E+03 0.20121723096E+03
 0.24735063906E+03 0.23486988875E+03 0.20121723096E+03 0.15573878898E+03 0.10895565128E+03
 0.69000209834E+02 0.40315426112E+02 0.23708071487E+02 0.16665396693E+02 0.14248419461E+02
 0.12716811835E+02 0.11713868534E+02 0.11131804119E+02 0.10864177751E+02 0.10795000249E+02
 0.10864177751E+02 0.11131804119E+02 0.11713868534E+02 0.12716811835E+02 0.14248419461E+02
 0.16665396693E+02 0.23708071487E+02 0.40315426112E+02 0.69000209834E+02 0.10895565128E+03
 0.15573878898E+03 0.20121723096E+03 0.23486988875E+03 0.22318804824E+03 0.21192090299E+03
 0.18152521541E+03 0.14043342365E+03 0.98212307838E+02 0.62326549243E+02 0.36848452182E+02
 0.22397504763E+02 0.16439260614E+02 0.14267594901E+02 0.12815209375E+02 0.11869952206E+02
 0.11320138335E+02 0.11064099108E+02 0.10996652240E+02 0.11064099108E+02 0.11320138335E+02
 0.11869952206E+02 0.12815209375E+02 0.14267594901E+02 0.16439260614E+02 0.22397504763E+02
 0.36848452182E+02 0.62326549243E+02 0.98212307838E+02 0.14043342365E+03 0.18152521541E+03
 0.21192090299E+03 0.21192090299E+03 0.20121723096E+03 0.17233687835E+03 0.13329348680E+03
 0.93210996558E+02 0.59236328589E+02 0.35258874006E+02 0.21804982077E+02 0.16332319024E+02
 0.14260566524E+02 0.12844790866E+02 0.11923624230E+02 0.11385274377E+02 0.11131804119E+02
 0.11064099108E+02 0.11131804119E+02 0.11385274377E+02 0.11923624230E+02 0.12844790866E+02
 0.14260566524E+02 0.16332319024E+02 0.21804982077E+02 0.35258874006E+02 0.59236328589E+02
 0.93210996558E+02 0.13329348680E+03 0.17233687835E+03 0.20121723096E+03 0.18152521541E+03