<?xml version="1.0" encoding="ISO-8859-1"?>
<modeling>
 <generator>
  <i name="program" type="string">vasp </i>
  <i name="version" type="string">6.2.0  </i>
  <i name="subversion" type="string">18Jan21 (build Mar 17 2021 09:06:54) complex                          serial </i>
  <i name="platform" type="string">LinuxIFC </i>
  <i name="date" type="string">2021 09 09 </i>
  <i name="time" type="string">09:04:58 </i>
 </generator>
 <incar>
  <i type="string" name="PREC">normal</i>
  <i type="int" name="ICHARG">     1</i>
  <i type="int" name="IBRION">     1</i>
  <i name="EDIFF">      0.00000100</i>
  <i type="int" name="NSW">     0</i>
  <i type="int" name="ISIF">     4</i>
  <i name="ENCUT">    300.00000000</i>
  <i type="int" name="NBANDS">    40</i>
  <i type="int" name="ISMEAR">     1</i>
  <i name="SIGMA">      0.20000000</i>
  <i type="logical" name="LCHARG"> T  </i>
  <i type="int" name="KPAR">     1</i>
  <i type="int" name="NCORE">     1</i>
  <i type="string" name="GGA">PE</i>
 </incar>
 <primitive_cell>
  <structure name="primitive_cell" >
   <crystal>
    <varray name="basis" >
     <v>       1.59906588      -1.59906588       0.00000000 </v>
     <v>       1.59906588       0.00000000       1.59906588 </v>
     <v>       0.00000000      -1.59906588       1.59906588 </v>
    </varray>
    <i name="volume">      8.17766027 </i>
    <varray name="rec_basis" >
     <v>       0.31268255      -0.31268255      -0.31268255 </v>
     <v>       0.31268255       0.31268255       0.31268255 </v>
     <v>      -0.31268255      -0.31268255       0.31268255 </v>
    </varray>
   </crystal>
   <varray name="positions" >
    <v>       0.00000000       0.00000000       0.00000000 </v>
   </varray>
  </structure>
  <varray name="primitive_index" >
   <v type="int" >        1 </v>
  </varray>
 </primitive_cell>
 <kpoints>
  <generation param="Monkhorst-Pack">
   <v type="int" name="divisions">      11       11       11 </v>
   <v name="usershift">      0.00000000       0.00000000       0.00000000 </v>
   <v name="genvec1">      0.09090909       0.00000000       0.00000000 </v>
   <v name="genvec2">      0.00000000       0.09090909       0.00000000 </v>
   <v name="genvec3">      0.00000000       0.00000000       0.09090909 </v>
   <v name="shift">      0.00000000       0.00000000       0.00000000 </v>
  </generation>
  <varray name="kpointlist" >
   <v>       0.00000000       0.00000000       0.00000000 </v>
   <v>       0.09090909       0.00000000       0.00000000 </v>
   <v>       0.18181818       0.00000000       0.00000000 </v>
   <v>       0.27272727       0.00000000       0.00000000 </v>
   <v>       0.36363636       0.00000000       0.00000000 </v>
   <v>       0.45454545       0.00000000       0.00000000 </v>
   <v>       0.09090909       0.09090909       0.00000000 </v>
   <v>       0.18181818       0.09090909       0.00000000 </v>
   <v>       0.27272727       0.09090909       0.00000000 </v>
   <v>       0.36363636       0.09090909       0.00000000 </v>
   <v>       0.45454545       0.09090909       0.00000000 </v>
   <v>       0.18181818       0.18181818       0.00000000 </v>
   <v>       0.27272727       0.18181818       0.00000000 </v>
   <v>       0.36363636       0.18181818       0.00000000 </v>
   <v>       0.45454545       0.18181818       0.00000000 </v>
   <v>       0.27272727       0.27272727       0.00000000 </v>
   <v>       0.36363636       0.27272727       0.00000000 </v>
   <v>       0.45454545       0.27272727       0.00000000 </v>
   <v>       0.36363636       0.36363636       0.00000000 </v>
   <v>       0.45454545       0.36363636       0.00000000 </v>
   <v>       0.45454545       0.45454545       0.00000000 </v>
   <v>       0.09090909       0.09090909       0.09090909 </v>
   <v>       0.18181818       0.09090909       0.09090909 </v>
   <v>       0.27272727       0.09090909       0.09090909 </v>
   <v>       0.36363636       0.09090909       0.09090909 </v>
   <v>       0.45454545       0.09090909       0.09090909 </v>
   <v>       0.18181818       0.18181818       0.09090909 </v>
   <v>       0.27272727       0.18181818       0.09090909 </v>
   <v>       0.36363636       0.18181818       0.09090909 </v>
   <v>       0.45454545       0.18181818       0.09090909 </v>
   <v>       0.27272727       0.27272727       0.09090909 </v>
   <v>       0.36363636       0.27272727       0.09090909 </v>
   <v>       0.45454545       0.27272727       0.09090909 </v>
   <v>       0.36363636       0.36363636       0.09090909 </v>
   <v>       0.45454545       0.36363636       0.09090909 </v>
   <v>       0.45454545       0.45454545       0.09090909 </v>
   <v>       0.18181818       0.18181818       0.18181818 </v>
   <v>       0.27272727       0.18181818       0.18181818 </v>
   <v>       0.36363636       0.18181818       0.18181818 </v>
   <v>       0.45454545       0.18181818       0.18181818 </v>
   <v>       0.27272727       0.27272727       0.18181818 </v>
   <v>       0.36363636       0.27272727       0.18181818 </v>
   <v>       0.45454545       0.27272727       0.18181818 </v>
   <v>       0.36363636       0.36363636       0.18181818 </v>
   <v>       0.45454545       0.36363636       0.18181818 </v>
   <v>       0.45454545       0.45454545       0.18181818 </v>
   <v>       0.27272727       0.27272727       0.27272727 </v>
   <v>       0.36363636       0.27272727       0.27272727 </v>
   <v>       0.45454545       0.27272727       0.27272727 </v>
   <v>       0.36363636       0.36363636       0.27272727 </v>
   <v>       0.45454545       0.36363636       0.27272727 </v>
   <v>       0.45454545       0.45454545       0.27272727 </v>
   <v>       0.36363636       0.36363636       0.36363636 </v>
   <v>       0.45454545       0.36363636       0.36363636 </v>
   <v>       0.45454545       0.45454545       0.36363636 </v>
   <v>       0.45454545       0.45454545       0.45454545 </v>
  </varray>
  <varray name="weights" >
   <v>       0.00075131 </v>
   <v>       0.00450789 </v>
   <v>       0.00450789 </v>
   <v>       0.00450789 </v>
   <v>       0.00450789 </v>
   <v>       0.00450789 </v>
   <v>       0.00901578 </v>
   <v>       0.01803156 </v>
   <v>       0.01803156 </v>
   <v>       0.01803156 </v>
   <v>       0.01803156 </v>
   <v>       0.00901578 </v>
   <v>       0.01803156 </v>
   <v>       0.01803156 </v>
   <v>       0.01803156 </v>
   <v>       0.00901578 </v>
   <v>       0.01803156 </v>
   <v>       0.01803156 </v>
   <v>       0.00901578 </v>
   <v>       0.01803156 </v>
   <v>       0.00901578 </v>
   <v>       0.00601052 </v>
   <v>       0.01803156 </v>
   <v>       0.01803156 </v>
   <v>       0.01803156 </v>
   <v>       0.01803156 </v>
   <v>       0.01803156 </v>
   <v>       0.03606311 </v>
   <v>       0.03606311 </v>
   <v>       0.03606311 </v>
   <v>       0.01803156 </v>
   <v>       0.03606311 </v>
   <v>       0.03606311 </v>
   <v>       0.01803156 </v>
   <v>       0.03606311 </v>
   <v>       0.01803156 </v>
   <v>       0.00601052 </v>
   <v>       0.01803156 </v>
   <v>       0.01803156 </v>
   <v>       0.01803156 </v>
   <v>       0.01803156 </v>
   <v>       0.03606311 </v>
   <v>       0.03606311 </v>
   <v>       0.01803156 </v>
   <v>       0.03606311 </v>
   <v>       0.01803156 </v>
   <v>       0.00601052 </v>
   <v>       0.01803156 </v>
   <v>       0.01803156 </v>
   <v>       0.01803156 </v>
   <v>       0.03606311 </v>
   <v>       0.01803156 </v>
   <v>       0.00601052 </v>
   <v>       0.01803156 </v>
   <v>       0.01803156 </v>
   <v>       0.00601052 </v>
  </varray>
 </kpoints>
 <parameters>
  <separator name="general" >
   <i type="string" name="SYSTEM">unknown system</i>
   <i type="logical" name="LCOMPAT"> F  </i>
  </separator>
  <separator name="electronic" >
   <i type="string" name="PREC">normal</i>
   <i name="ENMAX">    300.00000000</i>
   <i name="ENAUG">    511.36800000</i>
   <i name="EDIFF">      0.00000100</i>
   <i type="int" name="IALGO">    38</i>
   <i type="int" name="IWAVPR">     0</i>
   <i type="int" name="NBANDS">    40</i>
   <i type="int" name="NBANDSLOW">    -1</i>
   <i type="int" name="NBANDSHIGH">    -1</i>
   <i name="NELECT">     32.00000000</i>
   <i type="int" name="TURBO">     0</i>
   <i type="int" name="IRESTART">     0</i>
   <i type="int" name="NREBOOT">     0</i>
   <i type="int" name="NMIN">     0</i>
   <i name="EREF">      0.00000000</i>
   <separator name="electronic smearing" >
    <i type="int" name="ISMEAR">     1</i>
    <i name="SIGMA">      0.20000000</i>
    <i name="KSPACING">      0.50000000</i>
    <i type="logical" name="KGAMMA"> T  </i>
    <i type="logical" name="KBLOWUP"> T  </i>
   </separator>
   <separator name="electronic projectors" >
    <i type="logical" name="LREAL"> F  </i>
    <v name="ROPT">      0.00000000</v>
    <i type="int" name="LMAXPAW">  -100</i>
    <i type="int" name="LMAXMIX">     2</i>
    <i type="logical" name="NLSPLINE"> F  </i>
   </separator>
   <separator name="electronic startup" >
    <i type="int" name="ISTART">     0</i>
    <i type="int" name="ICHARG">     1</i>
    <i type="int" name="INIWAV">     1</i>
   </separator>
   <separator name="electronic spin" >
    <i type="int" name="ISPIN">     1</i>
    <i type="logical" name="LNONCOLLINEAR"> F  </i>
    <v name="MAGMOM">      1.00000000      1.00000000      1.00000000      1.00000000</v>
    <i name="NUPDOWN">     -1.00000000</i>
    <i type="logical" name="LSORBIT"> F  </i>
    <v name="SAXIS">      0.00000000      0.00000000      1.00000000</v>
    <i type="logical" name="LSPIRAL"> F  </i>
    <v name="QSPIRAL">      0.00000000      0.00000000      0.00000000</v>
    <i type="logical" name="LZEROZ"> F  </i>
   </separator>
   <separator name="electronic exchange-correlation" >
    <i type="logical" name="LASPH"> F  </i>
    <i type="logical" name="LMETAGGA"> F  </i>
   </separator>
   <separator name="electronic convergence" >
    <i type="int" name="NELM">    60</i>
    <i type="int" name="NELMDL">    -5</i>
    <i type="int" name="NELMIN">     2</i>
    <i name="ENINI">    300.00000000</i>
    <separator name="electronic convergence detail" >
     <i type="logical" name="LDIAG"> T  </i>
     <i type="logical" name="LSUBROT"> F  </i>
     <i name="WEIMIN">      0.00000000</i>
     <i name="EBREAK">      0.00000001</i>
     <i name="DEPER">      0.30000000</i>
     <i type="int" name="NRMM">     4</i>
     <i name="TIME">      0.40000000</i>
    </separator>
   </separator>
   <separator name="electronic mixer" >
    <i name="AMIX">      0.40000000</i>
    <i name="BMIX">      1.00000000</i>
    <i name="AMIN">      0.10000000</i>
    <i name="AMIX_MAG">      1.60000000</i>
    <i name="BMIX_MAG">      1.00000000</i>
    <separator name="electronic mixer details" >
     <i type="int" name="IMIX">     4</i>
     <i type="logical" name="MIXFIRST"> F  </i>
     <i type="int" name="MAXMIX">   -45</i>
     <i name="WC">    100.00000000</i>
     <i type="int" name="INIMIX">     1</i>
     <i type="int" name="MIXPRE">     1</i>
     <i type="int" name="MREMOVE">     5</i>
    </separator>
   </separator>
   <separator name="electronic dipolcorrection" >
    <i type="logical" name="LDIPOL"> F  </i>
    <i type="logical" name="LMONO"> F  </i>
    <i type="int" name="IDIPOL">     0</i>
    <i name="EPSILON">      1.00000000</i>
    <v name="DIPOL">   -100.00000000   -100.00000000   -100.00000000</v>
    <i name="EFIELD">      0.00000000</i>
   </separator>
  </separator>
  <separator name="grids" >
   <i type="int" name="NGX">    14</i>
   <i type="int" name="NGY">    14</i>
   <i type="int" name="NGZ">    14</i>
   <i type="int" name="NGXF">    28</i>
   <i type="int" name="NGYF">    28</i>
   <i type="int" name="NGZF">    28</i>
   <i type="logical" name="ADDGRID"> F  </i>
  </separator>
  <separator name="ionic" >
   <i type="int" name="NSW">     0</i>
   <i type="int" name="IBRION">    -1</i>
   <i type="int" name="MDALGO">     0</i>
   <i type="int" name="ISIF">     4</i>
   <i name="PSTRESS">      0.00000000</i>
   <i name="EDIFFG">      0.00001000</i>
   <i type="int" name="NFREE">     0</i>
   <i name="POTIM">      0.50000000</i>
   <i name="SMASS">     -3.00000000</i>
   <i name="SCALEE">      1.00000000</i>
  </separator>
  <separator name="ionic md" >
   <i name="TEBEG">      0.00010000</i>
   <i name="TEEND">      0.00010000</i>
   <i type="int" name="NBLOCK">     1</i>
   <i type="int" name="KBLOCK">     1</i>
   <i type="int" name="NPACO">   256</i>
   <i name="APACO">     16.00000000</i>
  </separator>
  <separator name="symmetry" >
   <i type="int" name="ISYM">     2</i>
   <i name="SYMPREC">      0.00001000</i>
  </separator>
  <separator name="dos" >
   <i type="int" name="LORBIT">     0</i>
   <v name="RWIGS">     -1.00000000</v>
   <i type="int" name="NEDOS">   301</i>
   <i name="EMIN">     10.00000000</i>
   <i name="EMAX">    -10.00000000</i>
   <i name="EFERMI">      0.00000000</i>
  </separator>
  <separator name="writing" >
   <i type="int" name="NWRITE">     2</i>
   <i type="logical" name="LWAVE"> T  </i>
   <i type="logical" name="LDOWNSAMPLE"> F  </i>
   <i type="logical" name="LCHARG"> T  </i>
   <i type="logical" name="LPARD"> F  </i>
   <i type="logical" name="LVTOT"> F  </i>
   <i type="logical" name="LVHAR"> F  </i>
   <i type="logical" name="LELF"> F  </i>
   <i type="logical" name="LOPTICS"> F  </i>
   <v name="STM">      0.00000000      0.00000000      0.00000000      0.00000000      0.00000000      0.00000000      0.00000000</v>
  </separator>
  <separator name="performance" >
   <i type="int" name="NPAR">     1</i>
   <i type="int" name="NSIM">     4</i>
   <i type="int" name="NBLK">    -1</i>
   <i type="logical" name="LPLANE"> T  </i>
   <i type="logical" name="LSCALAPACK"> F  </i>
   <i type="logical" name="LSCAAWARE"> F  </i>
   <i type="logical" name="LSCALU"> F  </i>
   <i type="logical" name="LASYNC"> F  </i>
   <i type="logical" name="LORBITALREAL"> F  </i>
  </separator>
  <separator name="miscellaneous" >
   <i type="int" name="IDIOT">     3</i>
   <i type="int" name="PHON_NSTRUCT">    -1</i>
   <i type="logical" name="LMUSIC"> F  </i>
   <v name="POMASS">     55.84700000</v>
   <v name="DARWINR">      0.00000000</v>
   <v name="DARWINV">      1.00000000</v>
   <i type="logical" name="LCORR"> T  </i>
  </separator>
  <i type="logical" name="GGA_COMPAT"> T  </i>
  <i type="logical" name="LBERRY"> F  </i>
  <i type="int" name="ICORELEVEL">     0</i>
  <i type="logical" name="LDAU"> F  </i>
  <i type="int" name="I_CONSTRAINED_M">     0</i>
  <separator name="electronic exchange-correlation" >
   <i type="string" name="GGA">PE</i>
   <i type="int" name="VOSKOWN">     0</i>
   <i type="logical" name="LHFCALC"> F  </i>
   <i type="string" name="PRECFOCK"></i>
   <i type="logical" name="LSYMGRAD"> F  </i>
   <i type="logical" name="LHFONE"> F  </i>
   <i type="logical" name="LRHFCALC"> F  </i>
   <i type="logical" name="LTHOMAS"> F  </i>
   <i type="logical" name="LMODELHF"> F  </i>
   <i type="logical" name="LFOCKACE"> F  </i>
   <i name="ENCUT4O">     -1.00000000</i>
   <i type="int" name="EXXOEP">     0</i>
   <i type="int" name="FOURORBIT">     0</i>
   <i name="AEXX">      0.00000000</i>
   <i name="HFALPHA">      0.00000000</i>
   <i name="MCALPHA">      0.00000000</i>
   <i name="ALDAX">      1.00000000</i>
   <i name="AGGAX">      1.00000000</i>
   <i name="ALDAC">      1.00000000</i>
   <i name="AGGAC">      1.00000000</i>
   <i type="int" name="NKREDX">     1</i>
   <i type="int" name="NKREDY">     1</i>
   <i type="int" name="NKREDZ">     1</i>
   <i type="logical" name="SHIFTRED"> F  </i>
   <i type="logical" name="ODDONLY"> F  </i>
   <i type="logical" name="EVENONLY"> F  </i>
   <i type="int" name="LMAXFOCK">     0</i>
   <i type="int" name="NMAXFOCKAE">     0</i>
   <i type="logical" name="LFOCKAEDFT"> F  </i>
   <i name="HFSCREEN">      0.00000000</i>
   <i name="HFSCREENC">      0.00000000</i>
   <i type="int" name="NBANDSGWLOW">     0</i>
  </separator>
  <separator name="vdW DFT" >
   <i type="logical" name="LUSE_VDW"> F  </i>
   <i name="Zab_VDW">     -0.84910000</i>
   <i name="PARAM1">      0.12340000</i>
   <i name="PARAM2">      1.00000000</i>
   <i name="PARAM3">      0.00000000</i>
  </separator>
  <separator name="model GW" >
   <i type="int" name="MODEL_GW">     0</i>
   <i name="MODEL_EPS0">      4.90659616</i>
   <i name="MODEL_ALPHA">      1.00000000</i>
  </separator>
  <separator name="linear response parameters" >
   <i type="logical" name="LEPSILON"> F  </i>
   <i type="logical" name="LRPA"> F  </i>
   <i type="logical" name="LNABLA"> F  </i>
   <i type="logical" name="LVEL"> F  </i>
   <i type="int" name="KINTER">     0</i>
   <i name="CSHIFT">      0.10000000</i>
   <i name="OMEGAMAX">     -1.00000000</i>
   <i name="DEG_THRESHOLD">      0.00200000</i>
   <i name="RTIME">     -0.10000000</i>
   <i name="WPLASMAI">      0.00000000</i>
   <v name="DFIELD">      0.00000000      0.00000000      0.00000000</v>
   <v name="WPLASMA">      0.00000000      0.00000000      0.00000000      0.00000000      0.00000000      0.00000000      0.00000000      0.00000000      0.00000000</v>
  </separator>
  <separator name="orbital magnetization" >
   <i type="logical" name="NUCIND"> F  </i>
   <v name="MAGPOS">      0.00000000      0.00000000      0.00000000</v>
   <i type="logical" name="LNICSALL"> T  </i>
   <i type="logical" name="ORBITALMAG"> F  </i>
   <i type="logical" name="LMAGBLOCH"> F  </i>
   <i type="logical" name="LCHIMAG"> F  </i>
   <i type="logical" name="LGAUGE"> T  </i>
   <i type="int" name="MAGATOM">     0</i>
   <v name="MAGDIPOL">      0.00000000      0.00000000      0.00000000</v>
   <v name="AVECCONST">      0.00000000      0.00000000      0.00000000</v>
  </separator>
  <separator name="response functions" >
   <i type="logical" name="LFINITE_TEMPERATURE"> F  </i>
   <i type="logical" name="LADDER"> F  </i>
   <i type="logical" name="LRPAFORCE"> F  </i>
   <i type="logical" name="LFXC"> F  </i>
   <i type="logical" name="LHARTREE"> T  </i>
   <i type="int" name="IBSE">     0</i>
   <v type="int" name="KPOINT">    -1     0     0     0</v>
   <i type="logical" name="LTCTC"> F  </i>
   <i type="logical" name="LTCTE"> F  </i>
   <i type="logical" name="LTETE"> F  </i>
   <i type="logical" name="LTRIPLET"> F  </i>
   <i type="logical" name="LFXCEPS"> F  </i>
   <i type="logical" name="LFXHEG"> F  </i>
   <i type="int" name="NATURALO">     2</i>
   <i type="logical" name="LHOLEGF"> F  </i>
   <i type="logical" name="L2ORDER"> F  </i>
   <i type="logical" name="LDMP1"> F  </i>
   <i type="logical" name="LMP2LT"> F  </i>
   <i type="logical" name="LSMP2LT"> F  </i>
   <i type="logical" name="LGWLF"> F  </i>
   <i name="ENCUTGW">     -2.00000000</i>
   <i name="ENCUTGWSOFT">     -2.00000000</i>
   <i name="ENCUTLF">     -1.00000000</i>
   <i type="logical" name="LESF_SPLINES"> F  </i>
   <i type="int" name="LMAXMP2">    -1</i>
   <i name="SCISSOR">      0.00000000</i>
   <i type="int" name="NOMEGA">     0</i>
   <i type="int" name="NOMEGAR">     0</i>
   <i type="int" name="NBANDSGW">    -1</i>
   <i type="int" name="NBANDSO">    -1</i>
   <i type="int" name="NBANDSV">    -1</i>
   <i type="int" name="NELM">     1</i>
   <i type="int" name="NELMHF">     1</i>
   <i type="int" name="DIM">     3</i>
   <i type="int" name="IESPILON">     4</i>
   <i type="int" name="ANTIRES">     0</i>
   <i name="OMEGAMAX">    -30.00000000</i>
   <i name="OMEGAMIN">    -30.00000000</i>
   <i name="OMEGATL">   -200.00000000</i>
   <i type="int" name="OMEGAGRID">     0</i>
   <i name="CSHIFT">     -0.10000000</i>
   <i type="logical" name="LSELFENERGY"> F  </i>
   <i type="logical" name="LSPECTRAL"> F  </i>
   <i type="logical" name="LSPECTRALGW"> F  </i>
   <i type="logical" name="LSINGLES"> F  </i>
   <i type="logical" name="LFERMIGW"> F  </i>
   <i type="logical" name="ODDONLYGW"> F  </i>
   <i type="logical" name="EVENONLYGW"> F  </i>
   <i type="int" name="NKREDLFX">     1</i>
   <i type="int" name="NKREDLFY">     1</i>
   <i type="int" name="NKREDLFZ">     1</i>
   <i type="int" name="MAXMEM">  2800</i>
   <i type="int" name="TELESCOPE">     0</i>
   <i type="int" name="NTAUPAR">    -1</i>
   <i type="int" name="NOMEGAPAR">    -1</i>
   <i name="DAMP_NEWTON">      0.80000001</i>
   <i name="LAMBDA">      1.00000000</i>
  </separator>
  <separator name="External order field" >
   <i name="OFIELD_KAPPA">      0.00000000</i>
   <v name="OFIELD_K">      0.00000000      0.00000000      0.00000000</v>
   <i name="OFIELD_Q6_NEAR">      0.00000000</i>
   <i name="OFIELD_Q6_FAR">      0.00000000</i>
   <i name="OFIELD_A">      0.00000000</i>
  </separator>
 </parameters>
 <atominfo>
  <atoms>       4 </atoms>
  <types>       1 </types>
  <array name="atoms" >
   <dimension dim="1">ion</dimension>
   <field type="string">element</field>
   <field type="int">atomtype</field>
   <set>
    <rc><c>Fe</c><c>   1</c></rc>
    <rc><c>Fe</c><c>   1</c></rc>
    <rc><c>Fe</c><c>   1</c></rc>
    <rc><c>Fe</c><c>   1</c></rc>
   </set>
  </array>
  <array name="atomtypes" >
   <dimension dim="1">type</dimension>
   <field type="int">atomspertype</field>
   <field type="string">element</field>
   <field>mass</field>
   <field>valence</field>
   <field type="string">pseudopotential</field>
   <set>
    <rc><c>   4</c><c>Fe</c><c>     55.84700000</c><c>      8.00000000</c><c>  PAW_PBE Fe 06Sep2000                  </c></rc>
   </set>
  </array>
 </atominfo>
 <structure name="initialpos" >
  <crystal>
   <varray name="basis" >
    <v>       3.19813176       0.00000000       0.00000000 </v>
    <v>       0.00000000       3.19813176       0.00000000 </v>
    <v>       0.00000000       0.00000000       3.19813176 </v>
   </varray>
   <i name="volume">     32.71064107 </i>
   <varray name="rec_basis" >
    <v>       0.31268255       0.00000000       0.00000000 </v>
    <v>       0.00000000       0.31268255       0.00000000 </v>
    <v>       0.00000000       0.00000000       0.31268255 </v>
   </varray>
  </crystal>
  <varray name="positions" >
   <v>       0.00000000       0.00000000       0.00000000 </v>
   <v>       0.50000000       0.50000000       0.00000000 </v>
   <v>       0.50000000       0.00000000       0.50000000 </v>
   <v>       0.00000000       0.50000000       0.50000000 </v>
  </varray>
 </structure>
 <calculation>
  <scstep>
   <time name="dav">    0.70    0.72</time>
   <time name="total">    0.72    0.74</time>
   <energy>
    <i name="alphaZ">    338.06137083 </i>
    <i name="ewald">  -2642.38424296 </i>
    <i name="hartreedc">   -349.73533883 </i>
    <i name="XCdc">     19.98707387 </i>
    <i name="pawpsdc">   2219.38341365 </i>
    <i name="pawaedc">  -2250.19294531 </i>
    <i name="eentropy">     -0.00760693 </i>
    <i name="bandstr">    453.65989232 </i>
    <i name="atom">   2377.15350596 </i>
    <i name="e_fr_energy">    165.92512261 </i>
    <i name="e_wo_entrp">    165.93272954 </i>
    <i name="e_0_energy">    165.92765826 </i>
   </energy>
  </scstep>
  <scstep>
   <time name="dav">    0.63    0.63</time>
   <time name="total">    0.63    0.63</time>
   <energy>
    <i name="e_fr_energy">    -21.30807265 </i>
    <i name="e_wo_entrp">    -21.30320082 </i>
    <i name="e_0_energy">    -21.30644870 </i>
   </energy>
  </scstep>
  <scstep>
   <time name="dav">    0.66    0.66</time>
   <time name="total">    0.67    0.67</time>
   <energy>
    <i name="e_fr_energy">    -34.98618237 </i>
    <i name="e_wo_entrp">    -34.99078900 </i>
    <i name="e_0_energy">    -34.98771792 </i>
   </energy>
  </scstep>
  <scstep>
   <time name="dav">    0.65    0.65</time>
   <time name="total">    0.66    0.66</time>
   <energy>
    <i name="e_fr_energy">    -35.15682648 </i>
    <i name="e_wo_entrp">    -35.16147169 </i>
    <i name="e_0_energy">    -35.15837489 </i>
   </energy>
  </scstep>
  <scstep>
   <time name="dav">    0.67    0.67</time>
   <time name="total">    0.71    0.71</time>
   <energy>
    <i name="e_fr_energy">    -35.15821452 </i>
    <i name="e_wo_entrp">    -35.16285984 </i>
    <i name="e_0_energy">    -35.15976296 </i>
   </energy>
  </scstep>
  <scstep>
   <time name="dav">    0.67    0.67</time>
   <time name="total">    0.72    0.72</time>
   <energy>
    <i name="e_fr_energy">    -30.40304455 </i>
    <i name="e_wo_entrp">    -30.40954343 </i>
    <i name="e_0_energy">    -30.40521085 </i>
   </energy>
  </scstep>
  <scstep>
   <time name="dav">    0.71    0.71</time>
   <time name="total">    0.76    0.76</time>
   <energy>
    <i name="e_fr_energy">    -30.21321213 </i>
    <i name="e_wo_entrp">    -30.21955131 </i>
    <i name="e_0_energy">    -30.21532519 </i>
   </energy>
  </scstep>
  <scstep>
   <time name="dav">    0.73    0.73</time>
   <time name="total">    0.77    0.77</time>
   <energy>
    <i name="e_fr_energy">    -30.12009033 </i>
    <i name="e_wo_entrp">    -30.12613344 </i>
    <i name="e_0_energy">    -30.12210470 </i>
   </energy>
  </scstep>
  <scstep>
   <time name="dav">    0.66    0.66</time>
   <time name="total">    0.71    0.71</time>
   <energy>
    <i name="e_fr_energy">    -30.11742004 </i>
    <i name="e_wo_entrp">    -30.12335291 </i>
    <i name="e_0_energy">    -30.11939766 </i>
   </energy>
  </scstep>
  <scstep>
   <time name="dav">    0.66    0.66</time>
   <time name="total">    0.70    0.71</time>
   <energy>
    <i name="e_fr_energy">    -30.11725157 </i>
    <i name="e_wo_entrp">    -30.12317945 </i>
    <i name="e_0_energy">    -30.11922753 </i>
   </energy>
  </scstep>
  <scstep>
   <time name="dav">    0.82    0.82</time>
   <time name="total">    0.87    0.87</time>
   <energy>
    <i name="e_fr_energy">    -30.11703036 </i>
    <i name="e_wo_entrp">    -30.12297057 </i>
    <i name="e_0_energy">    -30.11901043 </i>
   </energy>
  </scstep>
  <scstep>
   <time name="dav">    0.66    0.66</time>
   <time name="total">    0.71    0.71</time>
   <energy>
    <i name="e_fr_energy">    -30.11701872 </i>
    <i name="e_wo_entrp">    -30.12295844 </i>
    <i name="e_0_energy">    -30.11899863 </i>
   </energy>
  </scstep>
  <scstep>
   <time name="dav">    0.43    0.43</time>
   <time name="total">    0.47    0.47</time>
   <energy>
    <i name="e_fr_energy">    -30.11702004 </i>
    <i name="e_wo_entrp">    -30.12295995 </i>
    <i name="e_0_energy">    -30.11900001 </i>
   </energy>
  </scstep>
  <scstep>
   <time name="dav">    0.43    0.43</time>
   <time name="total">    0.44    0.44</time>
   <energy>
    <i name="alphaZ">    338.06137083 </i>
    <i name="ewald">  -2642.38424296 </i>
    <i name="hartreedc">   -285.07807458 </i>
    <i name="XCdc">     16.91005191 </i>
    <i name="pawpsdc">   3611.38262767 </i>
    <i name="pawaedc">  -3652.14155274 </i>
    <i name="eentropy">      0.00593984 </i>
    <i name="bandstr">    205.97335393 </i>
    <i name="atom">   2377.15350596 </i>
    <i name="e_fr_energy">    -30.11702014 </i>
    <i name="e_wo_entrp">    -30.12295998 </i>
    <i name="e_0_energy">    -30.11900008 </i>
   </energy>
  </scstep>
  <structure>
   <crystal>
    <varray name="basis" >
     <v>       3.19813176       0.00000000       0.00000000 </v>
     <v>       0.00000000       3.19813176       0.00000000 </v>
     <v>       0.00000000       0.00000000       3.19813176 </v>
    </varray>
    <i name="volume">     32.71064107 </i>
    <varray name="rec_basis" >
     <v>       0.31268255       0.00000000       0.00000000 </v>
     <v>       0.00000000       0.31268255       0.00000000 </v>
     <v>       0.00000000       0.00000000       0.31268255 </v>
    </varray>
   </crystal>
   <varray name="positions" >
    <v>       0.00000000       0.00000000       0.00000000 </v>
    <v>       0.50000000       0.50000000       0.00000000 </v>
    <v>       0.50000000       0.00000000       0.50000000 </v>
    <v>       0.00000000       0.50000000       0.50000000 </v>
   </varray>
  </structure>
  <varray name="forces" >
   <v>      -0.00000000      -0.00000000      -0.00000000 </v>
   <v>      -0.00000000      -0.00000000       0.00000000 </v>
   <v>       0.00000000       0.00000000       0.00000000 </v>
   <v>       0.00000000       0.00000000      -0.00000000 </v>
  </varray>
  <varray name="stress" >
   <v>    1070.32348044      -0.00000000      -0.00000000 </v>
   <v>      -0.00000000    1070.32348044      -0.00000000 </v>
   <v>      -0.00000000       0.00000000    1070.32348044 </v>
  </varray>
  <energy>
   <i name="e_fr_energy">    -30.11702014 </i>
   <i name="e_wo_entrp">    -30.12295998 </i>
   <i name="e_0_energy">    -30.11900008 </i>
  </energy>
  <time name="totalsc">   10.08   10.10</time>
  <eigenvalues>
   <array>
    <dimension dim="1">band</dimension>
    <dimension dim="2">kpoint</dimension>
    <dimension dim="3">spin</dimension>
    <field>eigene</field>
    <field>occ</field>
    <set>
     <set comment="spin 1">
      <set comment="kpoint 1">
       <r>   -0.4857    1.0000 </r>
       <r>    2.9050    1.0000 </r>
       <r>    2.9050    1.0000 </r>
       <r>    2.9050    1.0000 </r>
       <r>    3.8489    1.0000 </r>
       <r>    3.8489    1.0000 </r>
       <r>    3.8489    1.0000 </r>
       <r>    7.3768    1.0000 </r>
       <r>    7.3768    1.0000 </r>
       <r>    7.3768    1.0000 </r>
       <r>    9.5534    0.7932 </r>
       <r>    9.5534    0.7932 </r>
       <r>   11.0034   -0.0000 </r>
       <r>   11.0034   -0.0000 </r>
       <r>   11.0034   -0.0000 </r>
       <r>   11.4242   -0.0000 </r>
       <r>   11.4242   -0.0000 </r>
       <r>   11.4242   -0.0000 </r>
       <r>   11.4242   -0.0000 </r>
       <r>   11.4242   -0.0000 </r>
       <r>   11.4242   -0.0000 </r>
       <r>   13.7249   -0.0000 </r>
       <r>   13.7249   -0.0000 </r>
       <r>   13.7249   -0.0000 </r>
       <r>   24.1790    0.0000 </r>
       <r>   24.1790    0.0000 </r>
       <r>   24.1790    0.0000 </r>
       <r>   28.6121    0.0000 </r>
       <r>   28.6121    0.0000 </r>
       <r>   28.6121    0.0000 </r>
       <r>   28.6121    0.0000 </r>
       <r>   28.6121    0.0000 </r>
       <r>   28.6121    0.0000 </r>
       <r>   34.8327    0.0000 </r>
       <r>   35.1413    0.0000 </r>
       <r>   35.1413    0.0000 </r>
       <r>   35.1413    0.0000 </r>
       <r>   41.8759    0.0000 </r>
       <r>   41.8773    0.0000 </r>
       <r>   41.8792    0.0000 </r>
      </set>
      <set comment="kpoint 2">
       <r>   -0.3430    1.0000 </r>
       <r>    2.9652    1.0000 </r>
       <r>    3.0011    1.0000 </r>
       <r>    3.0011    1.0000 </r>
       <r>    3.9094    1.0000 </r>
       <r>    3.9276    1.0000 </r>
       <r>    3.9276    1.0000 </r>
       <r>    7.2910    1.0000 </r>
       <r>    7.4368    1.0000 </r>
       <r>    7.4368    1.0000 </r>
       <r>    9.4726    0.9842 </r>
       <r>    9.5812    0.6929 </r>
       <r>   10.7862   -0.0000 </r>
       <r>   10.7862   -0.0000 </r>
       <r>   10.8978   -0.0000 </r>
       <r>   10.8978   -0.0000 </r>
       <r>   10.9723   -0.0000 </r>
       <r>   11.3052   -0.0000 </r>
       <r>   11.3052   -0.0000 </r>
       <r>   11.4245   -0.0000 </r>
       <r>   11.4245   -0.0000 </r>
       <r>   13.2016   -0.0000 </r>
       <r>   14.4413   -0.0000 </r>
       <r>   14.4413   -0.0000 </r>
       <r>   24.1431    0.0000 </r>
       <r>   24.1431    0.0000 </r>
       <r>   24.8064    0.0000 </r>
       <r>   28.0953    0.0000 </r>
       <r>   28.0953    0.0000 </r>
       <r>   28.3859    0.0000 </r>
       <r>   28.3859    0.0000 </r>
       <r>   28.8567    0.0000 </r>
       <r>   28.8567    0.0000 </r>
       <r>   34.8336    0.0000 </r>
       <r>   35.1356    0.0000 </r>
       <r>   35.7202    0.0000 </r>
       <r>   35.7202    0.0000 </r>
       <r>   41.0873    0.0000 </r>
       <r>   41.5929    0.0000 </r>
       <r>   41.5929    0.0000 </r>
      </set>
      <set comment="kpoint 3">
       <r>    0.0746    1.0000 </r>
       <r>    3.1246    1.0000 </r>
       <r>    3.2742    1.0000 </r>
       <r>    3.2742    1.0000 </r>
       <r>    4.0882    1.0000 </r>
       <r>    4.1629    1.0000 </r>
       <r>    4.1629    1.0000 </r>
       <r>    7.0451    1.0000 </r>
       <r>    7.6151    1.0000 </r>
       <r>    7.6151    1.0000 </r>
       <r>    9.2421    1.0099 </r>
       <r>    9.6627    0.3561 </r>
       <r>    9.6780    0.2962 </r>
       <r>    9.6780    0.2962 </r>
       <r>   10.5970   -0.0000 </r>
       <r>   10.5970   -0.0000 </r>
       <r>   10.8820   -0.0000 </r>
       <r>   10.9727   -0.0000 </r>
       <r>   10.9727   -0.0000 </r>
       <r>   11.4251   -0.0000 </r>
       <r>   11.4251   -0.0000 </r>
       <r>   11.9532   -0.0000 </r>
       <r>   15.7844    0.0000 </r>
       <r>   15.7844    0.0000 </r>
       <r>   24.0451    0.0000 </r>
       <r>   24.0451    0.0000 </r>
       <r>   26.3673    0.0000 </r>
       <r>   26.8805    0.0000 </r>
       <r>   26.8805    0.0000 </r>
       <r>   27.8575    0.0000 </r>
       <r>   27.8575    0.0000 </r>
       <r>   29.5627    0.0000 </r>
       <r>   29.5627    0.0000 </r>
       <r>   34.8381    0.0000 </r>
       <r>   35.1189    0.0000 </r>
       <r>   37.1942    0.0000 </r>
       <r>   37.1942    0.0000 </r>
       <r>   39.3165    0.0000 </r>
       <r>   40.4488    0.0000 </r>
       <r>   40.4488    0.0000 </r>
      </set>
      <set comment="kpoint 4">
       <r>    0.7338    1.0000 </r>
       <r>    3.3103    1.0000 </r>
       <r>    3.6741    1.0000 </r>
       <r>    3.6741    1.0000 </r>
       <r>    4.3763    1.0000 </r>
       <r>    4.5518    1.0000 </r>
       <r>    4.5518    1.0000 </r>
       <r>    6.6701    1.0000 </r>
       <r>    7.9071    1.0000 </r>
       <r>    7.9071    1.0000 </r>
       <r>    8.5591    1.0000 </r>
       <r>    8.5591    1.0000 </r>
       <r>    8.9051    1.0000 </r>
       <r>    9.7921    0.0052 </r>
       <r>   10.1557   -0.0006 </r>
       <r>   10.1557   -0.0006 </r>
       <r>   10.4879   -0.0000 </r>
       <r>   10.4879   -0.0000 </r>
       <r>   10.5016   -0.0000 </r>
       <r>   10.7410   -0.0000 </r>
       <r>   11.4262   -0.0000 </r>
       <r>   11.4262   -0.0000 </r>
       <r>   17.2932    0.0000 </r>
       <r>   17.2932    0.0000 </r>
       <r>   23.9078    0.0000 </r>
       <r>   23.9078    0.0000 </r>
       <r>   25.3844    0.0000 </r>
       <r>   25.3844    0.0000 </r>
       <r>   27.2969    0.0000 </r>
       <r>   27.2969    0.0000 </r>
       <r>   28.3507    0.0000 </r>
       <r>   30.6596    0.0000 </r>
       <r>   30.6596    0.0000 </r>
       <r>   34.8539    0.0000 </r>
       <r>   35.0928    0.0000 </r>
       <r>   37.5189    0.0000 </r>
       <r>   38.9361    0.0000 </r>
       <r>   38.9361    0.0000 </r>
       <r>   39.1874    0.0000 </r>
       <r>   39.1874    0.0000 </r>
      </set>
      <set comment="kpoint 5">
       <r>    1.5645    1.0000 </r>
       <r>    3.3724    1.0000 </r>
       <r>    4.1013    1.0000 </r>
       <r>    4.1013    1.0000 </r>
       <r>    4.7585    1.0000 </r>
       <r>    5.0892    1.0000 </r>
       <r>    5.0892    1.0000 </r>
       <r>    6.2090    1.0000 </r>
       <r>    7.5172    1.0000 </r>
       <r>    7.5172    1.0000 </r>
       <r>    8.3032    1.0000 </r>
       <r>    8.3032    1.0000 </r>
       <r>    8.5468    1.0000 </r>
       <r>    9.2435    1.0102 </r>
       <r>    9.6849    0.2703 </r>
       <r>    9.6849    0.2703 </r>
       <r>    9.9226   -0.0289 </r>
       <r>    9.9226   -0.0289 </r>
       <r>    9.9600   -0.0204 </r>
       <r>   10.5622   -0.0000 </r>
       <r>   11.4265   -0.0000 </r>
       <r>   11.4265   -0.0000 </r>
       <r>   18.8758    0.0000 </r>
       <r>   18.8758    0.0000 </r>
       <r>   23.7683    0.0000 </r>
       <r>   23.7683    0.0000 </r>
       <r>   23.7796    0.0000 </r>
       <r>   23.7796    0.0000 </r>
       <r>   26.8810    0.0000 </r>
       <r>   26.8810    0.0000 </r>
       <r>   30.4265    0.0000 </r>
       <r>   32.0606    0.0000 </r>
       <r>   32.0606    0.0000 </r>
       <r>   34.8739    0.0000 </r>
       <r>   35.0596    0.0000 </r>
       <r>   35.8136    0.0000 </r>
       <r>   37.2049    0.0000 </r>
       <r>   37.2049    0.0000 </r>
       <r>   41.4785    0.0000 </r>
       <r>   41.4785    0.0000 </r>
      </set>
      <set comment="kpoint 6">
       <r>    2.4304    1.0000 </r>
       <r>    3.1005    1.0000 </r>
       <r>    4.3956    1.0000 </r>
       <r>    4.3956    1.0000 </r>
       <r>    5.2126    1.0000 </r>
       <r>    5.7086    1.0000 </r>
       <r>    5.7687    1.0000 </r>
       <r>    5.7687    1.0000 </r>
       <r>    6.5818    1.0000 </r>
       <r>    6.5818    1.0000 </r>
       <r>    8.3242    1.0000 </r>
       <r>    8.4868    1.0000 </r>
       <r>    8.7887    1.0000 </r>
       <r>    8.7887    1.0000 </r>
       <r>    9.3398    1.0301 </r>
       <r>    9.3398    1.0301 </r>
       <r>    9.3624    1.0340 </r>
       <r>    9.3624    1.0340 </r>
       <r>   10.1545   -0.0006 </r>
       <r>   10.3605   -0.0000 </r>
       <r>   11.4269   -0.0000 </r>
       <r>   11.4269   -0.0000 </r>
       <r>   20.5006    0.0000 </r>
       <r>   20.5006    0.0000 </r>
       <r>   22.1441    0.0000 </r>
       <r>   22.1441    0.0000 </r>
       <r>   23.6811    0.0000 </r>
       <r>   23.6811    0.0000 </r>
       <r>   26.6723    0.0000 </r>
       <r>   26.6723    0.0000 </r>
       <r>   32.3572    0.0000 </r>
       <r>   33.6688    0.0000 </r>
       <r>   33.6688    0.0000 </r>
       <r>   34.1319    0.0000 </r>
       <r>   34.9028    0.0000 </r>
       <r>   34.9334    0.0000 </r>
       <r>   35.4179    0.0000 </r>
       <r>   35.4179    0.0000 </r>
       <r>   44.0945    0.0000 </r>
       <r>   44.0945    0.0000 </r>
      </set>
      <set comment="kpoint 7">
       <r>   -0.2023    1.0000 </r>
       <r>    3.0623    1.0000 </r>
       <r>    3.0623    1.0000 </r>
       <r>    3.0938    1.0000 </r>
       <r>    3.9867    1.0000 </r>
       <r>    3.9867    1.0000 </r>
       <r>    4.0052    1.0000 </r>
       <r>    7.2420    1.0000 </r>
       <r>    7.4630    1.0000 </r>
       <r>    7.4894    1.0000 </r>
       <r>    9.4485    1.0111 </r>
       <r>    9.5603    0.7699 </r>
       <r>   10.3984   -0.0000 </r>
       <r>   10.5839   -0.0000 </r>
       <r>   10.5839   -0.0000 </r>
       <r>   10.7988   -0.0000 </r>
       <r>   10.9181   -0.0000 </r>
       <r>   10.9181   -0.0000 </r>
       <r>   11.3051   -0.0000 </r>
       <r>   11.3051   -0.0000 </r>
       <r>   11.3502   -0.0000 </r>
       <r>   13.9396   -0.0000 </r>
       <r>   13.9396   -0.0000 </r>
       <r>   14.9827   -0.0000 </r>
       <r>   24.0764    0.0000 </r>
       <r>   24.7816    0.0000 </r>
       <r>   24.7816    0.0000 </r>
       <r>   26.9811    0.0000 </r>
       <r>   28.3240    0.0000 </r>
       <r>   28.3240    0.0000 </r>
       <r>   28.6268    0.0000 </r>
       <r>   28.6268    0.0000 </r>
       <r>   29.0953    0.0000 </r>
       <r>   34.7930    0.0000 </r>
       <r>   35.7483    0.0000 </r>
       <r>   35.7483    0.0000 </r>
       <r>   35.9594    0.0000 </r>
       <r>   39.6583    0.0000 </r>
       <r>   41.3253    0.0000 </r>
       <r>   42.4016    0.0000 </r>
      </set>
      <set comment="kpoint 8">
       <r>    0.2099    1.0000 </r>
       <r>    3.2247    1.0000 </r>
       <r>    3.3386    1.0000 </r>
       <r>    3.3580    1.0000 </r>
       <r>    4.1610    1.0000 </r>
       <r>    4.2175    1.0000 </r>
       <r>    4.2353    1.0000 </r>
       <r>    7.0226    1.0000 </r>
       <r>    7.6234    1.0000 </r>
       <r>    7.6432    1.0000 </r>
       <r>    9.2508    1.0113 </r>
       <r>    9.4911    0.9547 </r>
       <r>    9.4934    0.9504 </r>
       <r>    9.6362    0.4662 </r>
       <r>   10.1210   -0.0014 </r>
       <r>   10.5152   -0.0000 </r>
       <r>   10.6081   -0.0000 </r>
       <r>   10.8392   -0.0000 </r>
       <r>   10.9719   -0.0000 </r>
       <r>   11.3049   -0.0000 </r>
       <r>   11.3093   -0.0000 </r>
       <r>   12.7994   -0.0000 </r>
       <r>   15.2389    0.0000 </r>
       <r>   16.1684    0.0000 </r>
       <r>   23.8086    0.0000 </r>
       <r>   24.7116    0.0000 </r>
       <r>   25.7749    0.0000 </r>
       <r>   26.3365    0.0000 </r>
       <r>   27.0884    0.0000 </r>
       <r>   28.0969    0.0000 </r>
       <r>   28.9768    0.0000 </r>
       <r>   29.1587    0.0000 </r>
       <r>   29.3353    0.0000 </r>
       <r>   34.6751    0.0000 </r>
       <r>   35.7723    0.0000 </r>
       <r>   36.8950    0.0000 </r>
       <r>   37.2443    0.0000 </r>
       <r>   37.9251    0.0000 </r>
       <r>   40.5379    0.0000 </r>
       <r>   41.8530    0.0000 </r>
      </set>
      <set comment="kpoint 9">
       <r>    0.8606    1.0000 </r>
       <r>    3.4151    1.0000 </r>
       <r>    3.7444    1.0000 </r>
       <r>    3.7492    1.0000 </r>
       <r>    4.4418    1.0000 </r>
       <r>    4.5985    1.0000 </r>
       <r>    4.6094    1.0000 </r>
       <r>    6.6650    1.0000 </r>
       <r>    7.8761    1.0000 </r>
       <r>    7.9103    1.0000 </r>
       <r>    8.3986    1.0000 </r>
       <r>    8.4678    1.0000 </r>
       <r>    8.9544    1.0000 </r>
       <r>    9.4327    1.0226 </r>
       <r>    9.7861    0.0127 </r>
       <r>   10.0964   -0.0023 </r>
       <r>   10.1723   -0.0004 </r>
       <r>   10.4867   -0.0000 </r>
       <r>   10.6307   -0.0000 </r>
       <r>   11.2996   -0.0000 </r>
       <r>   11.3041   -0.0000 </r>
       <r>   11.6221   -0.0000 </r>
       <r>   16.6463    0.0000 </r>
       <r>   17.5941    0.0000 </r>
       <r>   23.1267    0.0000 </r>
       <r>   24.6123    0.0000 </r>
       <r>   24.9902    0.0000 </r>
       <r>   25.5800    0.0000 </r>
       <r>   27.5607    0.0000 </r>
       <r>   28.2476    0.0000 </r>
       <r>   28.6266    0.0000 </r>
       <r>   29.9674    0.0000 </r>
       <r>   30.4969    0.0000 </r>
       <r>   34.4643    0.0000 </r>
       <r>   35.8591    0.0000 </r>
       <r>   36.2570    0.0000 </r>
       <r>   38.5962    0.0000 </r>
       <r>   39.2247    0.0000 </r>
       <r>   39.3872    0.0000 </r>
       <r>   40.2107    0.0000 </r>
      </set>
      <set comment="kpoint 10">
       <r>    1.6815    1.0000 </r>
       <r>    3.4810    1.0000 </r>
       <r>    4.1783    1.0000 </r>
       <r>    4.1808    1.0000 </r>
       <r>    4.8139    1.0000 </r>
       <r>    5.1118    1.0000 </r>
       <r>    5.1244    1.0000 </r>
       <r>    6.2207    1.0000 </r>
       <r>    7.3885    1.0000 </r>
       <r>    7.4794    1.0000 </r>
       <r>    8.0698    1.0000 </r>
       <r>    8.3041    1.0000 </r>
       <r>    8.6531    1.0000 </r>
       <r>    8.7673    1.0000 </r>
       <r>    9.6486    0.4140 </r>
       <r>    9.7025    0.2083 </r>
       <r>    9.9209   -0.0292 </r>
       <r>    9.9851   -0.0150 </r>
       <r>   10.1835   -0.0003 </r>
       <r>   10.8594   -0.0000 </r>
       <r>   11.2984   -0.0000 </r>
       <r>   11.3028   -0.0000 </r>
       <r>   18.0716    0.0000 </r>
       <r>   19.1303    0.0000 </r>
       <r>   22.0490    0.0000 </r>
       <r>   23.9773    0.0000 </r>
       <r>   24.5160    0.0000 </r>
       <r>   24.6514    0.0000 </r>
       <r>   27.2234    0.0000 </r>
       <r>   27.9506    0.0000 </r>
       <r>   30.0859    0.0000 </r>
       <r>   31.1683    0.0000 </r>
       <r>   32.1170    0.0000 </r>
       <r>   34.1060    0.0000 </r>
       <r>   34.7048    0.0000 </r>
       <r>   36.0095    0.0000 </r>
       <r>   38.1141    0.0000 </r>
       <r>   38.2420    0.0000 </r>
       <r>   40.8265    0.0000 </r>
       <r>   41.5483    0.0000 </r>
      </set>
      <set comment="kpoint 11">
       <r>    2.5399    1.0000 </r>
       <r>    3.2090    1.0000 </r>
       <r>    4.4837    1.0000 </r>
       <r>    4.4845    1.0000 </r>
       <r>    5.2552    1.0000 </r>
       <r>    5.7357    1.0000 </r>
       <r>    5.7364    1.0000 </r>
       <r>    5.7876    1.0000 </r>
       <r>    6.4944    1.0000 </r>
       <r>    6.5776    1.0000 </r>
       <r>    8.0263    1.0000 </r>
       <r>    8.1246    1.0000 </r>
       <r>    8.7881    1.0000 </r>
       <r>    9.0248    1.0001 </r>
       <r>    9.3385    1.0299 </r>
       <r>    9.3486    1.0319 </r>
       <r>    9.3693    1.0348 </r>
       <r>    9.5590    0.7741 </r>
       <r>   10.2212   -0.0001 </r>
       <r>   10.4918   -0.0000 </r>
       <r>   11.2993   -0.0000 </r>
       <r>   11.3011   -0.0000 </r>
       <r>   19.4688    0.0000 </r>
       <r>   20.7256    0.0000 </r>
       <r>   20.8026    0.0000 </r>
       <r>   22.3510    0.0000 </r>
       <r>   24.4691    0.0000 </r>
       <r>   24.5040    0.0000 </r>
       <r>   27.1734    0.0000 </r>
       <r>   27.4249    0.0000 </r>
       <r>   31.7077    0.0000 </r>
       <r>   32.4025    0.0000 </r>
       <r>   33.2110    0.0000 </r>
       <r>   33.4350    0.0000 </r>
       <r>   34.0825    0.0000 </r>
       <r>   36.1635    0.0000 </r>
       <r>   36.3592    0.0000 </r>
       <r>   37.0401    0.0000 </r>
       <r>   43.3592    0.0000 </r>
       <r>   44.1728    0.0000 </r>
      </set>
      <set comment="kpoint 12">
       <r>    0.6061    1.0000 </r>
       <r>    3.5107    1.0000 </r>
       <r>    3.5107    1.0000 </r>
       <r>    3.5985    1.0000 </r>
       <r>    4.3783    1.0000 </r>
       <r>    4.3783    1.0000 </r>
       <r>    4.4475    1.0000 </r>
       <r>    6.8963    1.0000 </r>
       <r>    7.7145    1.0000 </r>
       <r>    7.7227    1.0000 </r>
       <r>    8.9505    1.0000 </r>
       <r>    9.0306    1.0001 </r>
       <r>    9.0306    1.0001 </r>
       <r>    9.1778    1.0033 </r>
       <r>    9.6669    0.3393 </r>
       <r>   10.2773   -0.0000 </r>
       <r>   10.5646   -0.0000 </r>
       <r>   10.5646   -0.0000 </r>
       <r>   10.9696   -0.0000 </r>
       <r>   10.9696   -0.0000 </r>
       <r>   11.1312   -0.0000 </r>
       <r>   14.0288   -0.0000 </r>
       <r>   14.0288   -0.0000 </r>
       <r>   17.1286    0.0000 </r>
       <r>   22.8558    0.0000 </r>
       <r>   25.0609    0.0000 </r>
       <r>   26.2344    0.0000 </r>
       <r>   26.2344    0.0000 </r>
       <r>   27.6751    0.0000 </r>
       <r>   27.6751    0.0000 </r>
       <r>   28.8512    0.0000 </r>
       <r>   28.8512    0.0000 </r>
       <r>   30.4464    0.0000 </r>
       <r>   34.2383    0.0000 </r>
       <r>   36.1984    0.0000 </r>
       <r>   36.6037    0.0000 </r>
       <r>   37.3434    0.0000 </r>
       <r>   37.3434    0.0000 </r>
       <r>   40.6134    0.0000 </r>
       <r>   43.2895    0.0000 </r>
      </set>
      <set comment="kpoint 13">
       <r>    1.2313    1.0000 </r>
       <r>    3.7159    1.0000 </r>
       <r>    3.9348    1.0000 </r>
       <r>    3.9642    1.0000 </r>
       <r>    4.6366    1.0000 </r>
       <r>    4.7359    1.0000 </r>
       <r>    4.7792    1.0000 </r>
       <r>    6.6211    1.0000 </r>
       <r>    7.8195    1.0000 </r>
       <r>    7.9540    1.0000 </r>
       <r>    7.9971    1.0000 </r>
       <r>    8.1869    1.0000 </r>
       <r>    8.4266    1.0000 </r>
       <r>    8.9779    1.0000 </r>
       <r>    9.8618   -0.0349 </r>
       <r>    9.9182   -0.0298 </r>
       <r>   10.1545   -0.0006 </r>
       <r>   10.3828   -0.0000 </r>
       <r>   10.4830   -0.0000 </r>
       <r>   10.9662   -0.0000 </r>
       <r>   11.0277   -0.0000 </r>
       <r>   12.7486   -0.0000 </r>
       <r>   15.2849    0.0000 </r>
       <r>   18.3975    0.0000 </r>
       <r>   21.5059    0.0000 </r>
       <r>   24.9143    0.0000 </r>
       <r>   26.0131    0.0000 </r>
       <r>   26.1389    0.0000 </r>
       <r>   27.8763    0.0000 </r>
       <r>   28.4850    0.0000 </r>
       <r>   28.5558    0.0000 </r>
       <r>   30.2537    0.0000 </r>
       <r>   30.7240    0.0000 </r>
       <r>   33.5874    0.0000 </r>
       <r>   34.5962    0.0000 </r>
       <r>   37.4514    0.0000 </r>
       <r>   37.5601    0.0000 </r>
       <r>   39.3958    0.0000 </r>
       <r>   40.3410    0.0000 </r>
       <r>   41.8987    0.0000 </r>
      </set>
      <set comment="kpoint 14">
       <r>    2.0217    1.0000 </r>
       <r>    3.7938    1.0000 </r>
       <r>    4.3944    1.0000 </r>
       <r>    4.4005    1.0000 </r>
       <r>    4.9774    1.0000 </r>
       <r>    5.1862    1.0000 </r>
       <r>    5.2269    1.0000 </r>
       <r>    6.2417    1.0000 </r>
       <r>    7.0651    1.0000 </r>
       <r>    7.3585    1.0000 </r>
       <r>    7.8091    1.0000 </r>
       <r>    7.8544    1.0000 </r>
       <r>    8.3243    1.0000 </r>
       <r>    8.8931    1.0000 </r>
       <r>    9.5305    0.8635 </r>
       <r>    9.6984    0.2223 </r>
       <r>    9.9180   -0.0298 </r>
       <r>   10.0314   -0.0076 </r>
       <r>   10.1618   -0.0005 </r>
       <r>   10.9628   -0.0000 </r>
       <r>   10.9821   -0.0000 </r>
       <r>   11.7228   -0.0000 </r>
       <r>   16.5225    0.0000 </r>
       <r>   19.8295    0.0000 </r>
       <r>   20.1773    0.0000 </r>
       <r>   24.5398    0.0000 </r>
       <r>   24.9530    0.0000 </r>
       <r>   25.6849    0.0000 </r>
       <r>   28.4679    0.0000 </r>
       <r>   29.2759    0.0000 </r>
       <r>   29.6193    0.0000 </r>
       <r>   30.1672    0.0000 </r>
       <r>   32.2955    0.0000 </r>
       <r>   32.7793    0.0000 </r>
       <r>   33.1439    0.0000 </r>
       <r>   37.9076    0.0000 </r>
       <r>   39.3833    0.0000 </r>
       <r>   39.5259    0.0000 </r>
       <r>   39.7366    0.0000 </r>
       <r>   41.7660    0.0000 </r>
      </set>
      <set comment="kpoint 15">
       <r>    2.8556    1.0000 </r>
       <r>    3.5202    1.0000 </r>
       <r>    4.7368    1.0000 </r>
       <r>    4.7384    1.0000 </r>
       <r>    5.3790    1.0000 </r>
       <r>    5.6507    1.0000 </r>
       <r>    5.8126    1.0000 </r>
       <r>    5.8405    1.0000 </r>
       <r>    6.2680    1.0000 </r>
       <r>    6.5601    1.0000 </r>
       <r>    7.5647    1.0000 </r>
       <r>    7.6331    1.0000 </r>
       <r>    8.7957    1.0000 </r>
       <r>    9.1219    1.0010 </r>
       <r>    9.2860    1.0181 </r>
       <r>    9.3392    1.0300 </r>
       <r>    9.3504    1.0322 </r>
       <r>    9.5591    0.7740 </r>
       <r>   10.5401   -0.0000 </r>
       <r>   10.9610   -0.0000 </r>
       <r>   10.9651   -0.0000 </r>
       <r>   11.0248   -0.0000 </r>
       <r>   17.7313    0.0000 </r>
       <r>   18.9332    0.0000 </r>
       <r>   21.3553    0.0000 </r>
       <r>   22.9353    0.0000 </r>
       <r>   25.1033    0.0000 </r>
       <r>   25.3569    0.0000 </r>
       <r>   28.8095    0.0000 </r>
       <r>   29.4225    0.0000 </r>
       <r>   30.5518    0.0000 </r>
       <r>   30.7403    0.0000 </r>
       <r>   31.8161    0.0000 </r>
       <r>   31.8194    0.0000 </r>
       <r>   34.6465    0.0000 </r>
       <r>   37.0809    0.0000 </r>
       <r>   38.3948    0.0000 </r>
       <r>   39.0259    0.0000 </r>
       <r>   41.8587    0.0000 </r>
       <r>   44.4124    0.0000 </r>
      </set>
      <set comment="kpoint 16">
       <r>    1.8149    1.0000 </r>
       <r>    4.1686    1.0000 </r>
       <r>    4.1686    1.0000 </r>
       <r>    4.2934    1.0000 </r>
       <r>    4.9550    1.0000 </r>
       <r>    4.9550    1.0000 </r>
       <r>    5.0401    1.0000 </r>
       <r>    6.4821    1.0000 </r>
       <r>    7.5050    1.0000 </r>
       <r>    7.5050    1.0000 </r>
       <r>    7.7246    1.0000 </r>
       <r>    7.7604    1.0000 </r>
       <r>    8.1097    1.0000 </r>
       <r>    8.8518    1.0000 </r>
       <r>    9.6366    0.4645 </r>
       <r>   10.0060   -0.0112 </r>
       <r>   10.0060   -0.0112 </r>
       <r>   10.1443   -0.0008 </r>
       <r>   10.4795   -0.0000 </r>
       <r>   10.4795   -0.0000 </r>
       <r>   10.7783   -0.0000 </r>
       <r>   13.8691   -0.0000 </r>
       <r>   13.8691   -0.0000 </r>
       <r>   19.5244    0.0000 </r>
       <r>   19.8962    0.0000 </r>
       <r>   25.0070    0.0000 </r>
       <r>   26.9810    0.0000 </r>
       <r>   26.9810    0.0000 </r>
       <r>   27.2556    0.0000 </r>
       <r>   27.2556    0.0000 </r>
       <r>   30.2639    0.0000 </r>
       <r>   30.2639    0.0000 </r>
       <r>   32.4593    0.0000 </r>
       <r>   32.5368    0.0000 </r>
       <r>   33.0604    0.0000 </r>
       <r>   36.7617    0.0000 </r>
       <r>   39.6957    0.0000 </r>
       <r>   39.6957    0.0000 </r>
       <r>   41.1936    0.0000 </r>
       <r>   42.8483    0.0000 </r>
      </set>
      <set comment="kpoint 17">
       <r>    2.5519    1.0000 </r>
       <r>    4.2674    1.0000 </r>
       <r>    4.6846    1.0000 </r>
       <r>    4.7063    1.0000 </r>
       <r>    5.2406    1.0000 </r>
       <r>    5.3233    1.0000 </r>
       <r>    5.3870    1.0000 </r>
       <r>    6.2343    1.0000 </r>
       <r>    6.6850    1.0000 </r>
       <r>    7.1173    1.0000 </r>
       <r>    7.1397    1.0000 </r>
       <r>    7.6146    1.0000 </r>
       <r>    8.4106    1.0000 </r>
       <r>    8.7662    1.0000 </r>
       <r>    9.3216    1.0262 </r>
       <r>    9.5764    0.7111 </r>
       <r>    9.6956    0.2318 </r>
       <r>    9.9203   -0.0294 </r>
       <r>   10.4803   -0.0000 </r>
       <r>   10.5784   -0.0000 </r>
       <r>   10.6174   -0.0000 </r>
       <r>   12.6822   -0.0000 </r>
       <r>   14.9724   -0.0000 </r>
       <r>   18.4680    0.0000 </r>
       <r>   20.8465    0.0000 </r>
       <r>   25.2110    0.0000 </r>
       <r>   25.3837    0.0000 </r>
       <r>   26.5727    0.0000 </r>
       <r>   28.0064    0.0000 </r>
       <r>   28.3112    0.0000 </r>
       <r>   30.5824    0.0000 </r>
       <r>   31.4260    0.0000 </r>
       <r>   31.6909    0.0000 </r>
       <r>   32.6100    0.0000 </r>
       <r>   32.6882    0.0000 </r>
       <r>   37.8640    0.0000 </r>
       <r>   40.1134    0.0000 </r>
       <r>   40.4778    0.0000 </r>
       <r>   41.4545    0.0000 </r>
       <r>   42.1057    0.0000 </r>
      </set>
      <set comment="kpoint 18">
       <r>    3.3367    1.0000 </r>
       <r>    3.9869    1.0000 </r>
       <r>    5.1019    1.0000 </r>
       <r>    5.1181    1.0000 </r>
       <r>    5.5463    1.0000 </r>
       <r>    5.5706    1.0000 </r>
       <r>    5.9149    1.0000 </r>
       <r>    5.9159    1.0000 </r>
       <r>    5.9909    1.0000 </r>
       <r>    6.5146    1.0000 </r>
       <r>    7.0643    1.0000 </r>
       <r>    7.3198    1.0000 </r>
       <r>    8.8378    1.0000 </r>
       <r>    8.9273    1.0000 </r>
       <r>    9.1329    1.0013 </r>
       <r>    9.2296    1.0082 </r>
       <r>    9.2874    1.0184 </r>
       <r>    9.3553    1.0330 </r>
       <r>   10.4935   -0.0000 </r>
       <r>   10.5319   -0.0000 </r>
       <r>   11.1167   -0.0000 </r>
       <r>   11.7883   -0.0000 </r>
       <r>   16.0722    0.0000 </r>
       <r>   17.2142    0.0000 </r>
       <r>   22.2904    0.0000 </r>
       <r>   23.8155    0.0000 </r>
       <r>   25.5281    0.0000 </r>
       <r>   25.9813    0.0000 </r>
       <r>   29.1278    0.0000 </r>
       <r>   29.3589    0.0000 </r>
       <r>   30.2797    0.0000 </r>
       <r>   30.4678    0.0000 </r>
       <r>   31.1678    0.0000 </r>
       <r>   31.9508    0.0000 </r>
       <r>   35.1771    0.0000 </r>
       <r>   37.8193    0.0000 </r>
       <r>   40.2446    0.0000 </r>
       <r>   40.6239    0.0000 </r>
       <r>   41.1444    0.0000 </r>
       <r>   42.9596    0.0000 </r>
      </set>
      <set comment="kpoint 19">
       <r>    3.2122    1.0000 </r>
       <r>    4.8157    1.0000 </r>
       <r>    4.8157    1.0000 </r>
       <r>    5.0583    1.0000 </r>
       <r>    5.4971    1.0000 </r>
       <r>    5.5881    1.0000 </r>
       <r>    5.5881    1.0000 </r>
       <r>    6.1595    1.0000 </r>
       <r>    6.4754    1.0000 </r>
       <r>    6.4754    1.0000 </r>
       <r>    6.8190    1.0000 </r>
       <r>    7.4133    1.0000 </r>
       <r>    8.5973    1.0000 </r>
       <r>    8.6143    1.0000 </r>
       <r>    9.0606    1.0002 </r>
       <r>    9.2993    1.0210 </r>
       <r>    9.2993    1.0210 </r>
       <r>    9.9389   -0.0252 </r>
       <r>    9.9389   -0.0252 </r>
       <r>   10.3122   -0.0000 </r>
       <r>   11.1457   -0.0000 </r>
       <r>   13.6586   -0.0000 </r>
       <r>   13.6586   -0.0000 </r>
       <r>   16.9957    0.0000 </r>
       <r>   22.0722    0.0000 </r>
       <r>   25.5449    0.0000 </r>
       <r>   26.4304    0.0000 </r>
       <r>   26.4304    0.0000 </r>
       <r>   27.3954    0.0000 </r>
       <r>   27.3954    0.0000 </r>
       <r>   30.1072    0.0000 </r>
       <r>   30.3990    0.0000 </r>
       <r>   33.1081    0.0000 </r>
       <r>   33.1081    0.0000 </r>
       <r>   34.9206    0.0000 </r>
       <r>   36.9145    0.0000 </r>
       <r>   40.5120    0.0000 </r>
       <r>   42.5708    0.0000 </r>
       <r>   42.5708    0.0000 </r>
       <r>   42.8570    0.0000 </r>
      </set>
      <set comment="kpoint 20">
       <r>    3.9117    1.0000 </r>
       <r>    4.5177    1.0000 </r>
       <r>    5.2854    1.0000 </r>
       <r>    5.3950    1.0000 </r>
       <r>    5.6080    1.0000 </r>
       <r>    5.8060    1.0000 </r>
       <r>    5.9421    1.0000 </r>
       <r>    5.9943    1.0000 </r>
       <r>    6.0084    1.0000 </r>
       <r>    6.4212    1.0000 </r>
       <r>    6.6693    1.0000 </r>
       <r>    7.0755    1.0000 </r>
       <r>    8.6463    1.0000 </r>
       <r>    8.8893    1.0000 </r>
       <r>    8.9349    1.0000 </r>
       <r>    8.9544    1.0000 </r>
       <r>    8.9763    1.0000 </r>
       <r>    9.4107    1.0320 </r>
       <r>    9.9924   -0.0136 </r>
       <r>   10.1073   -0.0018 </r>
       <r>   11.8169   -0.0000 </r>
       <r>   12.6267   -0.0000 </r>
       <r>   14.6624   -0.0000 </r>
       <r>   15.7493    0.0000 </r>
       <r>   23.4393    0.0000 </r>
       <r>   24.8979    0.0000 </r>
       <r>   26.0058    0.0000 </r>
       <r>   26.6198    0.0000 </r>
       <r>   27.5920    0.0000 </r>
       <r>   28.2821    0.0000 </r>
       <r>   28.8264    0.0000 </r>
       <r>   29.2691    0.0000 </r>
       <r>   33.8115    0.0000 </r>
       <r>   34.6956    0.0000 </r>
       <r>   35.7805    0.0000 </r>
       <r>   38.4410    0.0000 </r>
       <r>   38.7756    0.0000 </r>
       <r>   41.6017    0.0000 </r>
       <r>   42.8570    0.0000 </r>
       <r>   43.0523    0.0000 </r>
      </set>
      <set comment="kpoint 21">
       <r>    4.4854    1.0000 </r>
       <r>    4.9746    1.0000 </r>
       <r>    4.9746    1.0000 </r>
       <r>    5.2562    1.0000 </r>
       <r>    6.0223    1.0000 </r>
       <r>    6.0505    1.0000 </r>
       <r>    6.0505    1.0000 </r>
       <r>    6.0588    1.0000 </r>
       <r>    6.2649    1.0000 </r>
       <r>    6.3572    1.0000 </r>
       <r>    6.3572    1.0000 </r>
       <r>    6.7856    1.0000 </r>
       <r>    8.5170    1.0000 </r>
       <r>    8.6697    1.0000 </r>
       <r>    8.6730    1.0000 </r>
       <r>    8.6730    1.0000 </r>
       <r>    9.1830    1.0036 </r>
       <r>    9.5370    0.8448 </r>
       <r>    9.5370    0.8448 </r>
       <r>    9.7658    0.0444 </r>
       <r>   12.6058   -0.0000 </r>
       <r>   13.5271   -0.0000 </r>
       <r>   13.5271   -0.0000 </r>
       <r>   14.5412   -0.0000 </r>
       <r>   24.7283    0.0000 </r>
       <r>   26.1215    0.0000 </r>
       <r>   26.1215    0.0000 </r>
       <r>   26.6073    0.0000 </r>
       <r>   27.3597    0.0000 </r>
       <r>   27.3597    0.0000 </r>
       <r>   27.4369    0.0000 </r>
       <r>   28.2363    0.0000 </r>
       <r>   36.5412    0.0000 </r>
       <r>   36.5412    0.0000 </r>
       <r>   37.4571    0.0000 </r>
       <r>   37.6646    0.0000 </r>
       <r>   38.6404    0.0000 </r>
       <r>   40.4369    0.0000 </r>
       <r>   40.5516    0.0000 </r>
       <r>   40.5516    0.0000 </r>
      </set>
      <set comment="kpoint 22">
       <r>   -0.0638    1.0000 </r>
       <r>    3.1555    1.0000 </r>
       <r>    3.1555    1.0000 </r>
       <r>    3.1555    1.0000 </r>
       <r>    4.0629    1.0000 </r>
       <r>    4.0629    1.0000 </r>
       <r>    4.0629    1.0000 </r>
       <r>    7.1974    1.0000 </r>
       <r>    7.5113    1.0000 </r>
       <r>    7.5113    1.0000 </r>
       <r>    9.4860    0.9637 </r>
       <r>    9.4860    0.9637 </r>
       <r>   10.2381   -0.0001 </r>
       <r>   10.2381   -0.0001 </r>
       <r>   10.2381   -0.0001 </r>
       <r>   10.7052   -0.0000 </r>
       <r>   10.7052   -0.0000 </r>
       <r>   10.7052   -0.0000 </r>
       <r>   11.3061   -0.0000 </r>
       <r>   11.3061   -0.0000 </r>
       <r>   11.3061   -0.0000 </r>
       <r>   14.4652   -0.0000 </r>
       <r>   14.4652   -0.0000 </r>
       <r>   14.4652   -0.0000 </r>
       <r>   24.7148    0.0000 </r>
       <r>   24.7148    0.0000 </r>
       <r>   24.7148    0.0000 </r>
       <r>   27.2225    0.0000 </r>
       <r>   27.2225    0.0000 </r>
       <r>   27.2225    0.0000 </r>
       <r>   29.3282    0.0000 </r>
       <r>   29.3282    0.0000 </r>
       <r>   29.3282    0.0000 </r>
       <r>   34.6866    0.0000 </r>
       <r>   35.9746    0.0000 </r>
       <r>   35.9746    0.0000 </r>
       <r>   35.9746    0.0000 </r>
       <r>   38.7598    0.0000 </r>
       <r>   41.9473    0.0000 </r>
       <r>   41.9473    0.0000 </r>
      </set>
      <set comment="kpoint 23">
       <r>    0.3422    1.0000 </r>
       <r>    3.3194    1.0000 </r>
       <r>    3.4215    1.0000 </r>
       <r>    3.4215    1.0000 </r>
       <r>    4.2335    1.0000 </r>
       <r>    4.2889    1.0000 </r>
       <r>    4.2889    1.0000 </r>
       <r>    7.0015    1.0000 </r>
       <r>    7.6422    1.0000 </r>
       <r>    7.6555    1.0000 </r>
       <r>    9.2813    1.0171 </r>
       <r>    9.3278    1.0276 </r>
       <r>    9.3278    1.0276 </r>
       <r>    9.5959    0.6347 </r>
       <r>    9.7786    0.0232 </r>
       <r>   10.4379   -0.0000 </r>
       <r>   10.4438   -0.0000 </r>
       <r>   10.4438   -0.0000 </r>
       <r>   11.1832   -0.0000 </r>
       <r>   11.2667   -0.0000 </r>
       <r>   11.2667   -0.0000 </r>
       <r>   13.2872   -0.0000 </r>
       <r>   15.5886    0.0000 </r>
       <r>   15.5886    0.0000 </r>
       <r>   24.4076    0.0000 </r>
       <r>   24.4076    0.0000 </r>
       <r>   26.0945    0.0000 </r>
       <r>   26.0945    0.0000 </r>
       <r>   26.2100    0.0000 </r>
       <r>   27.9619    0.0000 </r>
       <r>   29.3727    0.0000 </r>
       <r>   29.3727    0.0000 </r>
       <r>   30.0025    0.0000 </r>
       <r>   34.3657    0.0000 </r>
       <r>   35.9992    0.0000 </r>
       <r>   36.9165    0.0000 </r>
       <r>   36.9165    0.0000 </r>
       <r>   37.3954    0.0000 </r>
       <r>   40.8033    0.0000 </r>
       <r>   42.2071    0.0000 </r>
      </set>
      <set comment="kpoint 24">
       <r>    0.9828    1.0000 </r>
       <r>    3.5112    1.0000 </r>
       <r>    3.8166    1.0000 </r>
       <r>    3.8166    1.0000 </r>
       <r>    4.5087    1.0000 </r>
       <r>    4.6548    1.0000 </r>
       <r>    4.6548    1.0000 </r>
       <r>    6.6644    1.0000 </r>
       <r>    7.8592    1.0000 </r>
       <r>    7.8932    1.0000 </r>
       <r>    8.3228    1.0000 </r>
       <r>    8.3228    1.0000 </r>
       <r>    9.0221    1.0001 </r>
       <r>    9.0960    1.0005 </r>
       <r>    9.7688    0.0390 </r>
       <r>   10.0397   -0.0066 </r>
       <r>   10.0645   -0.0043 </r>
       <r>   10.0645   -0.0043 </r>
       <r>   10.9987   -0.0000 </r>
       <r>   11.2317   -0.0000 </r>
       <r>   11.2317   -0.0000 </r>
       <r>   11.9964   -0.0000 </r>
       <r>   16.8988    0.0000 </r>
       <r>   16.8988    0.0000 </r>
       <r>   23.5859    0.0000 </r>
       <r>   23.5859    0.0000 </r>
       <r>   25.5294    0.0000 </r>
       <r>   25.5294    0.0000 </r>
       <r>   27.8248    0.0000 </r>
       <r>   28.8270    0.0000 </r>
       <r>   28.8270    0.0000 </r>
       <r>   29.3203    0.0000 </r>
       <r>   31.0610    0.0000 </r>
       <r>   33.7460    0.0000 </r>
       <r>   36.1237    0.0000 </r>
       <r>   36.2158    0.0000 </r>
       <r>   38.6434    0.0000 </r>
       <r>   38.6434    0.0000 </r>
       <r>   39.2602    0.0000 </r>
       <r>   41.1555    0.0000 </r>
      </set>
      <set comment="kpoint 25">
       <r>    1.7913    1.0000 </r>
       <r>    3.5772    1.0000 </r>
       <r>    4.2541    1.0000 </r>
       <r>    4.2541    1.0000 </r>
       <r>    4.8736    1.0000 </r>
       <r>    5.1396    1.0000 </r>
       <r>    5.1396    1.0000 </r>
       <r>    6.2389    1.0000 </r>
       <r>    7.3701    1.0000 </r>
       <r>    7.3701    1.0000 </r>
       <r>    7.9820    1.0000 </r>
       <r>    8.2190    1.0000 </r>
       <r>    8.3772    1.0000 </r>
       <r>    8.9485    1.0000 </r>
       <r>    9.5691    0.7384 </r>
       <r>    9.6358    0.4678 </r>
       <r>    9.6358    0.4678 </r>
       <r>    9.9908   -0.0139 </r>
       <r>   10.7687   -0.0000 </r>
       <r>   10.8753   -0.0000 </r>
       <r>   11.2128   -0.0000 </r>
       <r>   11.2128   -0.0000 </r>
       <r>   18.2434    0.0000 </r>
       <r>   18.2434    0.0000 </r>
       <r>   22.4484    0.0000 </r>
       <r>   22.4484    0.0000 </r>
       <r>   25.3778    0.0000 </r>
       <r>   25.3778    0.0000 </r>
       <r>   28.1745    0.0000 </r>
       <r>   28.1745    0.0000 </r>
       <r>   29.1850    0.0000 </r>
       <r>   31.2044    0.0000 </r>
       <r>   32.4262    0.0000 </r>
       <r>   32.8100    0.0000 </r>
       <r>   35.3194    0.0000 </r>
       <r>   36.3642    0.0000 </r>
       <r>   37.5355    0.0000 </r>
       <r>   39.5184    0.0000 </r>
       <r>   40.8605    0.0000 </r>
       <r>   40.8605    0.0000 </r>
      </set>
      <set comment="kpoint 26">
       <r>    2.6387    1.0000 </r>
       <r>    3.3039    1.0000 </r>
       <r>    4.5715    1.0000 </r>
       <r>    4.5715    1.0000 </r>
       <r>    5.3047    1.0000 </r>
       <r>    5.7108    1.0000 </r>
       <r>    5.7108    1.0000 </r>
       <r>    5.7718    1.0000 </r>
       <r>    6.5432    1.0000 </r>
       <r>    6.5432    1.0000 </r>
       <r>    7.8842    1.0000 </r>
       <r>    7.9289    1.0000 </r>
       <r>    8.6217    1.0000 </r>
       <r>    9.0818    1.0004 </r>
       <r>    9.3176    1.0252 </r>
       <r>    9.3321    1.0285 </r>
       <r>    9.3321    1.0285 </r>
       <r>    9.9853   -0.0150 </r>
       <r>   10.2447   -0.0001 </r>
       <r>   10.5108   -0.0000 </r>
       <r>   11.2053   -0.0000 </r>
       <r>   11.2053   -0.0000 </r>
       <r>   19.4589    0.0000 </r>
       <r>   19.4589    0.0000 </r>
       <r>   21.3342    0.0000 </r>
       <r>   21.3342    0.0000 </r>
       <r>   25.3545    0.0000 </r>
       <r>   25.3545    0.0000 </r>
       <r>   27.7595    0.0000 </r>
       <r>   27.7595    0.0000 </r>
       <r>   30.4466    0.0000 </r>
       <r>   31.6672    0.0000 </r>
       <r>   33.0502    0.0000 </r>
       <r>   34.0147    0.0000 </r>
       <r>   34.4030    0.0000 </r>
       <r>   35.7473    0.0000 </r>
       <r>   36.8921    0.0000 </r>
       <r>   37.9505    0.0000 </r>
       <r>   43.3327    0.0000 </r>
       <r>   43.3327    0.0000 </r>
      </set>
      <set comment="kpoint 27">
       <r>    0.7292    1.0000 </r>
       <r>    3.5899    1.0000 </r>
       <r>    3.5899    1.0000 </r>
       <r>    3.6594    1.0000 </r>
       <r>    4.4479    1.0000 </r>
       <r>    4.4479    1.0000 </r>
       <r>    4.4977    1.0000 </r>
       <r>    6.8880    1.0000 </r>
       <r>    7.7188    1.0000 </r>
       <r>    7.7229    1.0000 </r>
       <r>    8.8177    1.0000 </r>
       <r>    8.8956    1.0000 </r>
       <r>    8.8956    1.0000 </r>
       <r>    9.2534    1.0118 </r>
       <r>    9.6082    0.5841 </r>
       <r>   10.1309   -0.0011 </r>
       <r>   10.2072   -0.0002 </r>
       <r>   10.2072   -0.0002 </r>
       <r>   11.1509   -0.0000 </r>
       <r>   11.1509   -0.0000 </r>
       <r>   11.1712   -0.0000 </r>
       <r>   14.3075   -0.0000 </r>
       <r>   14.3075   -0.0000 </r>
       <r>   16.4520    0.0000 </r>
       <r>   23.2983    0.0000 </r>
       <r>   25.5617    0.0000 </r>
       <r>   25.5617    0.0000 </r>
       <r>   25.6162    0.0000 </r>
       <r>   27.1998    0.0000 </r>
       <r>   27.1998    0.0000 </r>
       <r>   30.0068    0.0000 </r>
       <r>   30.0068    0.0000 </r>
       <r>   30.6511    0.0000 </r>
       <r>   33.5405    0.0000 </r>
       <r>   36.4136    0.0000 </r>
       <r>   36.6382    0.0000 </r>
       <r>   37.0185    0.0000 </r>
       <r>   37.0185    0.0000 </r>
       <r>   40.8397    0.0000 </r>
       <r>   42.8847    0.0000 </r>
      </set>
      <set comment="kpoint 28">
       <r>    1.3393    1.0000 </r>
       <r>    3.7856    1.0000 </r>
       <r>    3.9945    1.0000 </r>
       <r>    4.0221    1.0000 </r>
       <r>    4.7070    1.0000 </r>
       <r>    4.7916    1.0000 </r>
       <r>    4.8202    1.0000 </r>
       <r>    6.6366    1.0000 </r>
       <r>    7.8115    1.0000 </r>
       <r>    7.9047    1.0000 </r>
       <r>    7.9535    1.0000 </r>
       <r>    8.0813    1.0000 </r>
       <r>    8.3156    1.0000 </r>
       <r>    9.0965    1.0006 </r>
       <r>    9.7936    0.0034 </r>
       <r>    9.8180   -0.0190 </r>
       <r>    9.8235   -0.0225 </r>
       <r>    9.9170   -0.0301 </r>
       <r>   10.9563   -0.0000 </r>
       <r>   11.0551   -0.0000 </r>
       <r>   11.0655   -0.0000 </r>
       <r>   12.9204   -0.0000 </r>
       <r>   15.4592    0.0000 </r>
       <r>   17.5383    0.0000 </r>
       <r>   21.9563    0.0000 </r>
       <r>   24.3868    0.0000 </r>
       <r>   25.6143    0.0000 </r>
       <r>   26.6413    0.0000 </r>
       <r>   26.9963    0.0000 </r>
       <r>   28.9992    0.0000 </r>
       <r>   29.4706    0.0000 </r>
       <r>   30.9014    0.0000 </r>
       <r>   31.0645    0.0000 </r>
       <r>   32.4437    0.0000 </r>
       <r>   35.4427    0.0000 </r>
       <r>   37.2327    0.0000 </r>
       <r>   37.4800    0.0000 </r>
       <r>   38.7848    0.0000 </r>
       <r>   40.0181    0.0000 </r>
       <r>   42.5275    0.0000 </r>
      </set>
      <set comment="kpoint 29">
       <r>    2.1091    1.0000 </r>
       <r>    3.8490    1.0000 </r>
       <r>    4.4556    1.0000 </r>
       <r>    4.4556    1.0000 </r>
       <r>    5.0522    1.0000 </r>
       <r>    5.1957    1.0000 </r>
       <r>    5.2250    1.0000 </r>
       <r>    6.2818    1.0000 </r>
       <r>    7.0987    1.0000 </r>
       <r>    7.3038    1.0000 </r>
       <r>    7.7708    1.0000 </r>
       <r>    7.7857    1.0000 </r>
       <r>    8.1717    1.0000 </r>
       <r>    9.1219    1.0010 </r>
       <r>    9.3688    1.0347 </r>
       <r>    9.4437    1.0151 </r>
       <r>    9.5492    0.8069 </r>
       <r>   10.1242   -0.0013 </r>
       <r>   10.6341   -0.0000 </r>
       <r>   10.9861   -0.0000 </r>
       <r>   10.9907   -0.0000 </r>
       <r>   11.7461   -0.0000 </r>
       <r>   16.6149    0.0000 </r>
       <r>   18.5432    0.0000 </r>
       <r>   20.8867    0.0000 </r>
       <r>   23.1298    0.0000 </r>
       <r>   25.7903    0.0000 </r>
       <r>   26.8471    0.0000 </r>
       <r>   27.7310    0.0000 </r>
       <r>   29.0254    0.0000 </r>
       <r>   30.3269    0.0000 </r>
       <r>   30.8194    0.0000 </r>
       <r>   31.2507    0.0000 </r>
       <r>   32.6334    0.0000 </r>
       <r>   34.5014    0.0000 </r>
       <r>   37.6084    0.0000 </r>
       <r>   38.5736    0.0000 </r>
       <r>   39.4052    0.0000 </r>
       <r>   40.8848    0.0000 </r>
       <r>   40.9987    0.0000 </r>
      </set>
      <set comment="kpoint 30">
       <r>    2.9204    1.0000 </r>
       <r>    3.5705    1.0000 </r>
       <r>    4.8187    1.0000 </r>
       <r>    4.8200    1.0000 </r>
       <r>    5.4531    1.0000 </r>
       <r>    5.5411    1.0000 </r>
       <r>    5.6246    1.0000 </r>
       <r>    5.8740    1.0000 </r>
       <r>    6.4804    1.0000 </r>
       <r>    6.6347    1.0000 </r>
       <r>    7.5085    1.0000 </r>
       <r>    7.5945    1.0000 </r>
       <r>    8.5087    1.0000 </r>
       <r>    8.9150    1.0000 </r>
       <r>    9.2079    1.0057 </r>
       <r>    9.2508    1.0113 </r>
       <r>    9.5100    0.9159 </r>
       <r>   10.1074   -0.0018 </r>
       <r>   10.4917   -0.0000 </r>
       <r>   10.9549   -0.0000 </r>
       <r>   10.9556   -0.0000 </r>
       <r>   10.9653   -0.0000 </r>
       <r>   17.7142    0.0000 </r>
       <r>   18.6126    0.0000 </r>
       <r>   20.8916    0.0000 </r>
       <r>   21.9147    0.0000 </r>
       <r>   26.1030    0.0000 </r>
       <r>   26.5138    0.0000 </r>
       <r>   28.8709    0.0000 </r>
       <r>   29.0860    0.0000 </r>
       <r>   29.6010    0.0000 </r>
       <r>   30.0512    0.0000 </r>
       <r>   32.2802    0.0000 </r>
       <r>   33.4794    0.0000 </r>
       <r>   34.6521    0.0000 </r>
       <r>   36.7322    0.0000 </r>
       <r>   38.2655    0.0000 </r>
       <r>   39.3490    0.0000 </r>
       <r>   41.7781    0.0000 </r>
       <r>   43.0813    0.0000 </r>
      </set>
      <set comment="kpoint 31">
       <r>    1.8984    1.0000 </r>
       <r>    4.1951    1.0000 </r>
       <r>    4.1951    1.0000 </r>
       <r>    4.3344    1.0000 </r>
       <r>    5.0234    1.0000 </r>
       <r>    5.0234    1.0000 </r>
       <r>    5.0702    1.0000 </r>
       <r>    6.5274    1.0000 </r>
       <r>    7.4975    1.0000 </r>
       <r>    7.4975    1.0000 </r>
       <r>    7.6718    1.0000 </r>
       <r>    7.7578    1.0000 </r>
       <r>    7.9927    1.0000 </r>
       <r>    9.0383    1.0001 </r>
       <r>    9.4686    0.9895 </r>
       <r>    9.6091    0.5802 </r>
       <r>    9.6091    0.5802 </r>
       <r>   10.0918   -0.0025 </r>
       <r>   10.7972   -0.0000 </r>
       <r>   10.7972   -0.0000 </r>
       <r>   10.8779   -0.0000 </r>
       <r>   13.9576   -0.0000 </r>
       <r>   13.9576   -0.0000 </r>
       <r>   18.2102    0.0000 </r>
       <r>   20.6682    0.0000 </r>
       <r>   25.2781    0.0000 </r>
       <r>   25.2781    0.0000 </r>
       <r>   25.8088    0.0000 </r>
       <r>   28.6649    0.0000 </r>
       <r>   28.6649    0.0000 </r>
       <r>   30.7645    0.0000 </r>
       <r>   30.7645    0.0000 </r>
       <r>   31.0874    0.0000 </r>
       <r>   32.6270    0.0000 </r>
       <r>   34.3750    0.0000 </r>
       <r>   36.7722    0.0000 </r>
       <r>   39.0617    0.0000 </r>
       <r>   39.0617    0.0000 </r>
       <r>   40.6122    0.0000 </r>
       <r>   43.7984    0.0000 </r>
      </set>
      <set comment="kpoint 32">
       <r>    2.5995    1.0000 </r>
       <r>    4.2438    1.0000 </r>
       <r>    4.6705    1.0000 </r>
       <r>    4.7268    1.0000 </r>
       <r>    5.3168    1.0000 </r>
       <r>    5.3440    1.0000 </r>
       <r>    5.3956    1.0000 </r>
       <r>    6.3165    1.0000 </r>
       <r>    6.7934    1.0000 </r>
       <r>    7.1389    1.0000 </r>
       <r>    7.1684    1.0000 </r>
       <r>    7.6159    1.0000 </r>
       <r>    8.1599    1.0000 </r>
       <r>    9.0843    1.0004 </r>
       <r>    9.1657    1.0026 </r>
       <r>    9.1965    1.0046 </r>
       <r>    9.3214    1.0261 </r>
       <r>   10.4276   -0.0000 </r>
       <r>   10.5214   -0.0000 </r>
       <r>   10.6663   -0.0000 </r>
       <r>   10.7199   -0.0000 </r>
       <r>   12.6810   -0.0000 </r>
       <r>   15.0010   -0.0000 </r>
       <r>   18.0226    0.0000 </r>
       <r>   20.5905    0.0000 </r>
       <r>   23.9606    0.0000 </r>
       <r>   26.1370    0.0000 </r>
       <r>   26.2825    0.0000 </r>
       <r>   28.0300    0.0000 </r>
       <r>   29.7766    0.0000 </r>
       <r>   29.9809    0.0000 </r>
       <r>   30.8358    0.0000 </r>
       <r>   32.8206    0.0000 </r>
       <r>   32.8249    0.0000 </r>
       <r>   33.2793    0.0000 </r>
       <r>   37.8703    0.0000 </r>
       <r>   39.5106    0.0000 </r>
       <r>   39.7507    0.0000 </r>
       <r>   41.2346    0.0000 </r>
       <r>   42.2497    0.0000 </r>
      </set>
      <set comment="kpoint 33">
       <r>    3.3398    1.0000 </r>
       <r>    3.9526    1.0000 </r>
       <r>    5.1115    1.0000 </r>
       <r>    5.1643    1.0000 </r>
       <r>    5.3846    1.0000 </r>
       <r>    5.5406    1.0000 </r>
       <r>    5.6987    1.0000 </r>
       <r>    6.0304    1.0000 </r>
       <r>    6.4525    1.0000 </r>
       <r>    6.7025    1.0000 </r>
       <r>    7.0862    1.0000 </r>
       <r>    7.3281    1.0000 </r>
       <r>    8.4166    1.0000 </r>
       <r>    8.7741    1.0000 </r>
       <r>    8.9852    1.0000 </r>
       <r>    9.0538    1.0002 </r>
       <r>    9.4217    1.0282 </r>
       <r>    9.9328   -0.0266 </r>
       <r>   10.6083   -0.0000 </r>
       <r>   10.6266   -0.0000 </r>
       <r>   11.0523   -0.0000 </r>
       <r>   11.7322   -0.0000 </r>
       <r>   16.0355    0.0000 </r>
       <r>   17.0718    0.0000 </r>
       <r>   21.5313    0.0000 </r>
       <r>   22.7058    0.0000 </r>
       <r>   26.6278    0.0000 </r>
       <r>   27.2790    0.0000 </r>
       <r>   27.3791    0.0000 </r>
       <r>   28.5454    0.0000 </r>
       <r>   31.1125    0.0000 </r>
       <r>   31.3236    0.0000 </r>
       <r>   32.0785    0.0000 </r>
       <r>   32.1986    0.0000 </r>
       <r>   35.2414    0.0000 </r>
       <r>   37.6701    0.0000 </r>
       <r>   40.1799    0.0000 </r>
       <r>   40.1847    0.0000 </r>
       <r>   41.0841    0.0000 </r>
       <r>   42.3079    0.0000 </r>
      </set>
      <set comment="kpoint 34">
       <r>    3.2007    1.0000 </r>
       <r>    4.6719    1.0000 </r>
       <r>    4.6719    1.0000 </r>
       <r>    4.9813    1.0000 </r>
       <r>    5.5004    1.0000 </r>
       <r>    5.7038    1.0000 </r>
       <r>    5.7038    1.0000 </r>
       <r>    6.3011    1.0000 </r>
       <r>    6.6217    1.0000 </r>
       <r>    6.6217    1.0000 </r>
       <r>    6.9623    1.0000 </r>
       <r>    7.4318    1.0000 </r>
       <r>    8.1733    1.0000 </r>
       <r>    8.8792    1.0000 </r>
       <r>    8.9710    1.0000 </r>
       <r>    8.9710    1.0000 </r>
       <r>    9.0913    1.0005 </r>
       <r>   10.2621   -0.0000 </r>
       <r>   10.2621   -0.0000 </r>
       <r>   10.4630   -0.0000 </r>
       <r>   11.0799   -0.0000 </r>
       <r>   13.6283   -0.0000 </r>
       <r>   13.6283   -0.0000 </r>
       <r>   16.8107    0.0000 </r>
       <r>   21.3937    0.0000 </r>
       <r>   24.9296    0.0000 </r>
       <r>   24.9296    0.0000 </r>
       <r>   26.5953    0.0000 </r>
       <r>   28.4179    0.0000 </r>
       <r>   28.9760    0.0000 </r>
       <r>   28.9760    0.0000 </r>
       <r>   32.0798    0.0000 </r>
       <r>   33.2452    0.0000 </r>
       <r>   33.2452    0.0000 </r>
       <r>   35.0524    0.0000 </r>
       <r>   36.9006    0.0000 </r>
       <r>   39.9528    0.0000 </r>
       <r>   41.5519    0.0000 </r>
       <r>   41.5519    0.0000 </r>
       <r>   42.9630    0.0000 </r>
      </set>
      <set comment="kpoint 35">
       <r>    3.8239    1.0000 </r>
       <r>    4.3577    1.0000 </r>
       <r>    5.0144    1.0000 </r>
       <r>    5.1256    1.0000 </r>
       <r>    5.6845    1.0000 </r>
       <r>    5.8591    1.0000 </r>
       <r>    6.0236    1.0000 </r>
       <r>    6.2104    1.0000 </r>
       <r>    6.4642    1.0000 </r>
       <r>    6.7113    1.0000 </r>
       <r>    6.7463    1.0000 </r>
       <r>    7.1095    1.0000 </r>
       <r>    8.3011    1.0000 </r>
       <r>    8.5936    1.0000 </r>
       <r>    8.7007    1.0000 </r>
[...]
       <r>   10.8795   -0.0000 </r>
       <r>   10.9927   -0.0000 </r>
       <r>   10.9927   -0.0000 </r>
       <r>   11.0296   -0.0000 </r>
       <r>   11.9267   -0.0000 </r>
       <r>   13.2964   -0.0000 </r>
       <r>   13.2964   -0.0000 </r>
       <r>   20.5917    0.0000 </r>
       <r>   20.5917    0.0000 </r>
       <r>   21.7854    0.0000 </r>
       <r>   22.7321    0.0000 </r>
       <r>   32.3398    0.0000 </r>
       <r>   32.3398    0.0000 </r>
       <r>   33.1200    0.0000 </r>
       <r>   33.6822    0.0000 </r>
       <r>   37.0282    0.0000 </r>
       <r>   37.0282    0.0000 </r>
       <r>   38.2712    0.0000 </r>
       <r>   39.2237    0.0000 </r>
       <r>   39.2237    0.0000 </r>
       <r>   39.6752    0.0000 </r>
       <r>   39.7388    0.0000 </r>
       <r>   41.7544    0.0000 </r>
      </set>
      <set comment="kpoint 55">
       <r>    3.4157    1.0000 </r>
       <r>    3.5612    1.0000 </r>
       <r>    3.5612    1.0000 </r>
       <r>    3.6299    1.0000 </r>
       <r>    6.9115    1.0000 </r>
       <r>    7.0092    1.0000 </r>
       <r>    7.0092    1.0000 </r>
       <r>    7.2352    1.0000 </r>
       <r>    7.3456    1.0000 </r>
       <r>    7.4308    1.0000 </r>
       <r>    7.4308    1.0000 </r>
       <r>    7.4571    1.0000 </r>
       <r>    8.7280    1.0000 </r>
       <r>    8.7319    1.0000 </r>
       <r>    8.7319    1.0000 </r>
       <r>    8.8542    1.0000 </r>
       <r>   10.7459   -0.0000 </r>
       <r>   10.9380   -0.0000 </r>
       <r>   10.9380   -0.0000 </r>
       <r>   10.9484   -0.0000 </r>
       <r>   11.3496   -0.0000 </r>
       <r>   12.1496   -0.0000 </r>
       <r>   12.1496   -0.0000 </r>
       <r>   12.6355   -0.0000 </r>
       <r>   20.5968    0.0000 </r>
       <r>   21.0137    0.0000 </r>
       <r>   21.0137    0.0000 </r>
       <r>   21.7437    0.0000 </r>
       <r>   32.7523    0.0000 </r>
       <r>   33.0068    0.0000 </r>
       <r>   33.0068    0.0000 </r>
       <r>   33.4076    0.0000 </r>
       <r>   38.5995    0.0000 </r>
       <r>   38.6388    0.0000 </r>
       <r>   38.6388    0.0000 </r>
       <r>   39.3135    0.0000 </r>
       <r>   39.7613    0.0000 </r>
       <r>   40.1891    0.0000 </r>
       <r>   40.1891    0.0000 </r>
       <r>   41.5811    0.0000 </r>
      </set>
      <set comment="kpoint 56">
       <r>    3.3435    1.0000 </r>
       <r>    3.4153    1.0000 </r>
       <r>    3.4153    1.0000 </r>
       <r>    3.4153    1.0000 </r>
       <r>    7.1451    1.0000 </r>
       <r>    7.1451    1.0000 </r>
       <r>    7.1451    1.0000 </r>
       <r>    7.2555    1.0000 </r>
       <r>    7.2555    1.0000 </r>
       <r>    7.2938    1.0000 </r>
       <r>    7.2938    1.0000 </r>
       <r>    7.2938    1.0000 </r>
       <r>    9.4219    1.0281 </r>
       <r>    9.4219    1.0281 </r>
       <r>    9.4219    1.0281 </r>
       <r>    9.6466    0.4224 </r>
       <r>   10.9729   -0.0000 </r>
       <r>   10.9729   -0.0000 </r>
       <r>   11.0422   -0.0000 </r>
       <r>   11.0422   -0.0000 </r>
       <r>   11.0422   -0.0000 </r>
       <r>   11.6001   -0.0000 </r>
       <r>   11.6001   -0.0000 </r>
       <r>   11.6001   -0.0000 </r>
       <r>   20.5986    0.0000 </r>
       <r>   20.5986    0.0000 </r>
       <r>   20.5986    0.0000 </r>
       <r>   20.9976    0.0000 </r>
       <r>   33.1899    0.0000 </r>
       <r>   33.1899    0.0000 </r>
       <r>   33.1899    0.0000 </r>
       <r>   33.3758    0.0000 </r>
       <r>   40.2345    0.0000 </r>
       <r>   40.2345    0.0000 </r>
       <r>   40.2345    0.0000 </r>
       <r>   40.3308    0.0000 </r>
       <r>   40.3308    0.0000 </r>
       <r>   40.3308    0.0000 </r>
       <r>   41.2225    0.0000 </r>
       <r>   41.2225    0.0000 </r>
      </set>
     </set>
    </set>
   </array>
  </eigenvalues>
  <separator name="orbital magnetization" >
   <v name="MAGDIPOLOUT">      0.00000000      0.00000000      0.00000000</v>
  </separator>
  <dos>
   <i name="efermi">      9.62817553 </i>
   <total>
    <array>
     <dimension dim="1">gridpoints</dimension>
     <dimension dim="2">spin</dimension>
     <field>energy</field>
     <field>total</field>
     <field>integrated</field>
     <set>
      <set comment="spin 1">
       <r>    -2.7306     0.0000     0.0000 </r>
       <r>    -2.5659     0.0000     0.0000 </r>
       <r>    -2.4013     0.0000     0.0000 </r>
       <r>    -2.2367    -0.0000    -0.0000 </r>
       <r>    -2.0721    -0.0000    -0.0000 </r>
       <r>    -1.9074    -0.0000    -0.0000 </r>
       <r>    -1.7428    -0.0000    -0.0000 </r>
       <r>    -1.5782    -0.0000    -0.0000 </r>
       <r>    -1.4135    -0.0000    -0.0000 </r>
       <r>    -1.2489    -0.0000    -0.0000 </r>
       <r>    -1.0843    -0.0000    -0.0000 </r>
       <r>    -0.9197    -0.0000    -0.0000 </r>
       <r>    -0.7550    -0.0007    -0.0001 </r>
       <r>    -0.5904    -0.0013    -0.0003 </r>
       <r>    -0.4258     0.0139     0.0020 </r>
       <r>    -0.2612     0.0677     0.0131 </r>
       <r>    -0.0965     0.1030     0.0301 </r>
       <r>     0.0681     0.0905     0.0450 </r>
       <r>     0.2327     0.1818     0.0749 </r>
       <r>     0.3973     0.2198     0.1111 </r>
       <r>     0.5620     0.1028     0.1280 </r>
       <r>     0.7266     0.2001     0.1610 </r>
       <r>     0.8912     0.3101     0.2120 </r>
       <r>     1.0558     0.2489     0.2530 </r>
       <r>     1.2205     0.2374     0.2921 </r>
       <r>     1.3851     0.3636     0.3519 </r>
       <r>     1.5497     0.2188     0.3879 </r>
       <r>     1.7143     0.3407     0.4440 </r>
       <r>     1.8790     0.4426     0.5169 </r>
       <r>     2.0436     0.4614     0.5929 </r>
       <r>     2.2082     0.4996     0.6751 </r>
       <r>     2.3729     0.2447     0.7154 </r>
       <r>     2.5375     0.5027     0.7982 </r>
       <r>     2.7021     0.8232     0.9337 </r>
       <r>     2.8667     0.6840     1.0463 </r>
       <r>     3.0314     0.7999     1.1780 </r>
       <r>     3.1960     1.3552     1.4011 </r>
       <r>     3.3606     2.5808     1.8259 </r>
       <r>     3.5252     3.2315     2.3579 </r>
       <r>     3.6899     3.1209     2.8717 </r>
       <r>     3.8545     3.8325     3.5026 </r>
       <r>     4.0191     4.2071     4.1952 </r>
       <r>     4.1837     4.4883     4.9341 </r>
       <r>     4.3484     5.1861     5.7879 </r>
       <r>     4.5130     5.0181     6.6140 </r>
       <r>     4.6776     5.3578     7.4960 </r>
       <r>     4.8422     4.8728     8.2982 </r>
       <r>     5.0069     3.8871     8.9381 </r>
       <r>     5.1715     4.3609     9.6561 </r>
       <r>     5.3361     4.5260    10.4012 </r>
       <r>     5.5007     4.0956    11.0754 </r>
       <r>     5.6654     4.1272    11.7548 </r>
       <r>     5.8300     3.8671    12.3915 </r>
       <r>     5.9946     3.7170    13.0034 </r>
       <r>     6.1593     3.2135    13.5324 </r>
       <r>     6.3239     3.5231    14.1124 </r>
       <r>     6.4885     4.6176    14.8726 </r>
       <r>     6.6531     5.5068    15.7792 </r>
       <r>     6.8178     4.7619    16.5631 </r>
       <r>     6.9824     3.8736    17.2008 </r>
       <r>     7.1470     5.8265    18.1600 </r>
       <r>     7.3116     6.5474    19.2378 </r>
       <r>     7.4763     6.6130    20.3265 </r>
       <r>     7.6409     6.9856    21.4765 </r>
       <r>     7.8055     7.1073    22.6466 </r>
       <r>     7.9701     6.9208    23.7859 </r>
       <r>     8.1348     5.1083    24.6269 </r>
       <r>     8.2994     4.5513    25.3762 </r>
       <r>     8.4640     4.7503    26.1582 </r>
       <r>     8.6286     3.6945    26.7664 </r>
       <r>     8.7933     4.2580    27.4674 </r>
       <r>     8.9579     5.0461    28.2981 </r>
       <r>     9.1225     5.2459    29.1617 </r>
       <r>     9.2871     5.3926    30.0495 </r>
       <r>     9.4518     6.1740    31.0659 </r>
       <r>     9.6164     5.3512    31.9468 </r>
       <r>     9.7810     4.2004    32.6383 </r>
       <r>     9.9457     4.6667    33.4066 </r>
       <r>    10.1103     4.9909    34.2282 </r>
       <r>    10.2749     4.4046    34.9533 </r>
       <r>    10.4395     4.4638    35.6882 </r>
       <r>    10.6042     5.9332    36.6649 </r>
       <r>    10.7688     5.9225    37.6399 </r>
       <r>    10.9334     8.4689    39.0341 </r>
       <r>    11.0980     9.4810    40.5950 </r>
       <r>    11.2627     5.5276    41.5049 </r>
       <r>    11.4273     2.7364    41.9554 </r>
       <r>    11.5919     1.3046    42.1702 </r>
       <r>    11.7565     1.5850    42.4311 </r>
       <r>    11.9212     1.2686    42.6400 </r>
       <r>    12.0858     0.8339    42.7773 </r>
       <r>    12.2504     0.6952    42.8917 </r>
       <r>    12.4150     0.4580    42.9671 </r>
       <r>    12.5797     0.8205    43.1022 </r>
       <r>    12.7443     1.5863    43.3633 </r>
       <r>    12.9089     1.1598    43.5543 </r>
       <r>    13.0736     0.4022    43.6205 </r>
       <r>    13.2382     0.5171    43.7056 </r>
       <r>    13.4028     1.1622    43.8969 </r>
       <r>    13.5674     1.4388    44.1338 </r>
       <r>    13.7321     0.8338    44.2711 </r>
       <r>    13.8967     0.5753    44.3658 </r>
       <r>    14.0613     0.8819    44.5110 </r>
       <r>    14.2259     0.6582    44.6193 </r>
       <r>    14.3906     1.0237    44.7878 </r>
       <r>    14.5552     1.1866    44.9832 </r>
       <r>    14.7198     0.6922    45.0971 </r>
       <r>    14.8844     0.4055    45.1639 </r>
       <r>    15.0491     1.0643    45.3391 </r>
       <r>    15.2137     1.1102    45.5219 </r>
       <r>    15.3783     0.8605    45.6635 </r>
       <r>    15.5429     0.6287    45.7670 </r>
       <r>    15.7076     0.7208    45.8857 </r>
       <r>    15.8722     0.7794    46.0140 </r>
       <r>    16.0368     0.8146    46.1481 </r>
       <r>    16.2014     0.5934    46.2458 </r>
       <r>    16.3661     0.2989    46.2950 </r>
       <r>    16.5307     0.7461    46.4178 </r>
       <r>    16.6953     1.0182    46.5855 </r>
       <r>    16.8600     0.9333    46.7391 </r>
       <r>    17.0246     0.6406    46.8446 </r>
       <r>    17.1892     0.4790    46.9234 </r>
       <r>    17.3538     0.3776    46.9856 </r>
       <r>    17.5185     0.5329    47.0733 </r>
       <r>    17.6831     0.6655    47.1829 </r>
       <r>    17.8477     0.4342    47.2544 </r>
       <r>    18.0123     0.2937    47.3027 </r>
       <r>    18.1770     0.5320    47.3903 </r>
       <r>    18.3416     0.5218    47.4762 </r>
       <r>    18.5062     0.5670    47.5695 </r>
       <r>    18.6708     0.6135    47.6705 </r>
       <r>    18.8355     0.2305    47.7085 </r>
       <r>    19.0001     0.1951    47.7406 </r>
       <r>    19.1647     0.1742    47.7693 </r>
       <r>    19.3293     0.1272    47.7902 </r>
       <r>    19.4940     0.4144    47.8584 </r>
       <r>    19.6586     0.3173    47.9107 </r>
       <r>    19.8232     0.1310    47.9322 </r>
       <r>    19.9878     0.1694    47.9601 </r>
       <r>    20.1525     0.1076    47.9778 </r>
       <r>    20.3171     0.0286    47.9825 </r>
       <r>    20.4817     0.2979    48.0316 </r>
       <r>    20.6464     2.0565    48.3701 </r>
       <r>    20.8110     2.2828    48.7460 </r>
       <r>    20.9756     1.4222    48.9801 </r>
       <r>    21.1402     1.1785    49.1741 </r>
       <r>    21.3049     1.2289    49.3764 </r>
       <r>    21.4695     1.3448    49.5978 </r>
       <r>    21.6341     0.8607    49.7395 </r>
       <r>    21.7987     0.5886    49.8364 </r>
       <r>    21.9634     1.1873    50.0319 </r>
       <r>    22.1280     1.1951    50.2286 </r>
       <r>    22.2926     0.9351    50.3826 </r>
       <r>    22.4572     0.9402    50.5373 </r>
       <r>    22.6219     0.6907    50.6510 </r>
       <r>    22.7865     0.8511    50.7912 </r>
       <r>    22.9511     0.8470    50.9306 </r>
       <r>    23.1157     0.8443    51.0696 </r>
       <r>    23.2804     0.9721    51.2296 </r>
       <r>    23.4450     0.5505    51.3203 </r>
       <r>    23.6096     0.8553    51.4611 </r>
       <r>    23.7742     1.0463    51.6333 </r>
       <r>    23.9389     0.9849    51.7954 </r>
       <r>    24.1035     1.0245    51.9641 </r>
       <r>    24.2681     0.7917    52.0944 </r>
       <r>    24.4328     1.0965    52.2750 </r>
       <r>    24.5974     1.3764    52.5016 </r>
       <r>    24.7620     1.2932    52.7145 </r>
       <r>    24.9266     1.1693    52.9070 </r>
       <r>    25.0913     1.0262    53.0759 </r>
       <r>    25.2559     0.9527    53.2327 </r>
       <r>    25.4205     1.6187    53.4992 </r>
       <r>    25.5851     1.9506    53.8203 </r>
       <r>    25.7498     1.5799    54.0804 </r>
       <r>    25.9144     0.9964    54.2445 </r>
       <r>    26.0790     1.5999    54.5078 </r>
       <r>    26.2436     1.7674    54.7988 </r>
       <r>    26.4083     0.8887    54.9451 </r>
       <r>    26.5729     1.1374    55.1324 </r>
       <r>    26.7375     1.4897    55.3776 </r>
       <r>    26.9021     1.0423    55.5492 </r>
       <r>    27.0668     1.0686    55.7251 </r>
       <r>    27.2314     2.0544    56.0633 </r>
       <r>    27.3960     2.1822    56.4226 </r>
       <r>    27.5606     1.1598    56.6135 </r>
       <r>    27.7253     1.1360    56.8005 </r>
       <r>    27.8899     1.4757    57.0435 </r>
       <r>    28.0545     1.9911    57.3713 </r>
       <r>    28.2192     1.6706    57.6463 </r>
       <r>    28.3838     1.1374    57.8335 </r>
       <r>    28.5484     1.4225    58.0677 </r>
       <r>    28.7130     1.4875    58.3126 </r>
       <r>    28.8777     1.5697    58.5710 </r>
       <r>    29.0423     2.0171    58.9030 </r>
       <r>    29.2069     2.0409    59.2390 </r>
       <r>    29.3715     2.2017    59.6015 </r>
       <r>    29.5362     1.8083    59.8992 </r>
       <r>    29.7008     0.9383    60.0537 </r>
       <r>    29.8654     0.9654    60.2126 </r>
       <r>    30.0300     2.0304    60.5468 </r>
       <r>    30.1947     1.7834    60.8404 </r>
       <r>    30.3593     1.4543    61.0798 </r>
       <r>    30.5239     1.3223    61.2975 </r>
       <r>    30.6885     1.3372    61.5177 </r>
       <r>    30.8532     2.1317    61.8686 </r>
       <r>    31.0178     1.9888    62.1960 </r>
       <r>    31.1824     1.9843    62.5227 </r>
       <r>    31.3470     1.7044    62.8032 </r>
       <r>    31.5117     0.9875    62.9658 </r>
       <r>    31.6763     1.2198    63.1666 </r>
       <r>    31.8409     1.5020    63.4139 </r>
       <r>    32.0056     1.1578    63.6045 </r>
       <r>    32.1702     1.4121    63.8370 </r>
       <r>    32.3348     1.9185    64.1528 </r>
       <r>    32.4994     1.8917    64.4642 </r>
       <r>    32.6641     1.7992    64.7604 </r>
       <r>    32.8287     1.7349    65.0460 </r>
       <r>    32.9933     1.3770    65.2727 </r>
       <r>    33.1579     1.6306    65.5412 </r>
       <r>    33.3226     1.6107    65.8063 </r>
       <r>    33.4872     1.4042    66.0375 </r>
       <r>    33.6518     1.7839    66.3312 </r>
       <r>    33.8164     1.4096    66.5632 </r>
       <r>    33.9811     1.2718    66.7726 </r>
       <r>    34.1457     1.1293    66.9585 </r>
       <r>    34.3103     0.9500    67.1149 </r>
       <r>    34.4749     1.1930    67.3113 </r>
       <r>    34.6396     1.4414    67.5486 </r>
       <r>    34.8042     1.3993    67.7790 </r>
       <r>    34.9688     0.8570    67.9201 </r>
       <r>    35.1334     1.1457    68.1087 </r>
       <r>    35.2981     1.5756    68.3681 </r>
       <r>    35.4627     1.1866    68.5634 </r>
       <r>    35.6273     0.6761    68.6747 </r>
       <r>    35.7920     1.3160    68.8914 </r>
       <r>    35.9566     1.3627    69.1157 </r>
       <r>    36.1212     1.0786    69.2933 </r>
       <r>    36.2858     1.0461    69.4655 </r>
       <r>    36.4505     0.7846    69.5946 </r>
       <r>    36.6151     0.9899    69.7576 </r>
       <r>    36.7797     1.4880    70.0026 </r>
       <r>    36.9443     1.9897    70.3301 </r>
       <r>    37.1090     2.0963    70.6752 </r>
       <r>    37.2736     1.5137    70.9244 </r>
       <r>    37.4382     1.6165    71.1906 </r>
       <r>    37.6028     1.9725    71.5153 </r>
       <r>    37.7675     1.6418    71.7856 </r>
       <r>    37.9321     1.6637    72.0595 </r>
       <r>    38.0967     1.4912    72.3050 </r>
       <r>    38.2613     1.6105    72.5701 </r>
       <r>    38.4260     1.7167    72.8527 </r>
       <r>    38.5906     1.9182    73.1685 </r>
       <r>    38.7552     2.6044    73.5973 </r>
       <r>    38.9198     1.5034    73.8447 </r>
       <r>    39.0845     0.5360    73.9330 </r>
       <r>    39.2491     1.2208    74.1340 </r>
       <r>    39.4137     2.2673    74.5072 </r>
       <r>    39.5784     1.9666    74.8310 </r>
       <r>    39.7430     1.6337    75.0999 </r>
       <r>    39.9076     1.8406    75.4029 </r>
       <r>    40.0722     2.0807    75.7455 </r>
       <r>    40.2369     2.5045    76.1578 </r>
       <r>    40.4015     1.7084    76.4390 </r>
       <r>    40.5661     1.5083    76.6873 </r>
       <r>    40.7307     1.3247    76.9054 </r>
       <r>    40.8954     1.3768    77.1321 </r>
       <r>    41.0600     1.5444    77.3863 </r>
       <r>    41.2246     1.7316    77.6714 </r>
       <r>    41.3892     1.2241    77.8729 </r>
       <r>    41.5539     1.1633    78.0644 </r>
       <r>    41.7185     1.3388    78.2848 </r>
       <r>    41.8831     1.6575    78.5577 </r>
       <r>    42.0477     1.2798    78.7684 </r>
       <r>    42.2124     0.7973    78.8996 </r>
       <r>    42.3770     0.9790    79.0608 </r>
       <r>    42.5416     0.5832    79.1568 </r>
       <r>    42.7062     0.2845    79.2037 </r>
       <r>    42.8709     0.4001    79.2695 </r>
       <r>    43.0355     0.9915    79.4328 </r>
       <r>    43.2001     1.2059    79.6313 </r>
       <r>    43.3648     1.0061    79.7969 </r>
       <r>    43.5294     0.4663    79.8737 </r>
       <r>    43.6940     0.0467    79.8813 </r>
       <r>    43.8586     0.1092    79.8993 </r>
       <r>    44.0233     0.0986    79.9156 </r>
       <r>    44.1879     0.1767    79.9446 </r>
       <r>    44.3525     0.1802    79.9743 </r>
       <r>    44.5171     0.1348    79.9965 </r>
       <r>    44.6818     0.0288    80.0012 </r>
       <r>    44.8464    -0.0066    80.0002 </r>
       <r>    45.0110    -0.0010    80.0000 </r>
       <r>    45.1756    -0.0000    80.0000 </r>
       <r>    45.3403    -0.0000    80.0000 </r>
       <r>    45.5049    -0.0000    80.0000 </r>
       <r>    45.6695    -0.0000    80.0000 </r>
       <r>    45.8341     0.0000    80.0000 </r>
       <r>    45.9988     0.0000    80.0000 </r>
       <r>    46.1634     0.0000    80.0000 </r>
       <r>    46.3280     0.0000    80.0000 </r>
       <r>    46.4926     0.0000    80.0000 </r>
       <r>    46.6573     0.0000    80.0000 </r>
      </set>
     </set>
    </array>
   </total>
  </dos>
 </calculation>
 <structure name="finalpos" >
  <crystal>
   <varray name="basis" >
    <v>       3.19813176       0.00000000       0.00000000 </v>
    <v>       0.00000000       3.19813176       0.00000000 </v>
    <v>       0.00000000       0.00000000       3.19813176 </v>
   </varray>
   <i name="volume">     32.71064107 </i>
   <varray name="rec_basis" >
    <v>       0.31268255       0.00000000       0.00000000 </v>
    <v>       0.00000000       0.31268255       0.00000000 </v>
    <v>       0.00000000       0.00000000       0.31268255 </v>
   </varray>
  </crystal>
  <varray name="positions" >
   <v>       0.00000000       0.00000000       0.00000000 </v>
   <v>       0.50000000       0.50000000       0.00000000 </v>
   <v>       0.50000000       0.00000000       0.50000000 </v>
   <v>       0.00000000       0.50000000       0.50000000 </v>
  </varray>
 </structure>
</modeling>
