 vasp.6.2.0 18Jan21 (build Mar 17 2021 09:06:54) complex                        
  
 POSCAR found type information on POSCAR Fe
 POSCAR found :  1 types and       4 ions
 LDA part: xc-table for Pade appr. of Perdew
 POSCAR, INCAR and KPOINTS ok, starting setup
 FFT: planning ...
 WAVECAR not read
 WARNING: chargedensity file is incomplete
 entering main loop
       N       E                     dE             d eps       ncg     rms          rms(c)
DAV:   1     0.165925122613E+03    0.16593E+03   -0.79868E+03  5048   0.725E+02
DAV:   2    -0.213080726463E+02   -0.18723E+03   -0.16380E+03  4656   0.192E+02
DAV:   3    -0.349861823745E+02   -0.13678E+02   -0.12630E+02  5104   0.609E+01
DAV:   4    -0.351568264838E+02   -0.17064E+00   -0.17041E+00  4920   0.814E+00
DAV:   5    -0.351582145182E+02   -0.13880E-02   -0.13880E-02  5136   0.599E-01    0.315E+01
DAV:   6    -0.304030445544E+02    0.47552E+01   -0.61577E+00  5016   0.400E+01    0.368E+00
DAV:   7    -0.302132121324E+02    0.18983E+00   -0.34991E-01  5192   0.498E+00    0.287E+00
DAV:   8    -0.301200903275E+02    0.93122E-01   -0.98530E-03  5672   0.691E-01    0.524E-01
DAV:   9    -0.301174200391E+02    0.26703E-02   -0.31081E-03  5048   0.357E-01    0.129E-01
DAV:  10    -0.301172515736E+02    0.16847E-03   -0.65133E-05  4984   0.505E-02    0.939E-02
DAV:  11    -0.301170303615E+02    0.22121E-03   -0.53654E-06  6392   0.244E-02    0.409E-03
DAV:  12    -0.301170187207E+02    0.11641E-04   -0.33243E-06  4968   0.179E-02    0.313E-03
DAV:  13    -0.301170200370E+02   -0.13163E-05   -0.44121E-08  2560   0.181E-03    0.683E-04
DAV:  14    -0.301170201378E+02   -0.10078E-06   -0.89050E-09  2560   0.833E-04
   1 F= -.30117020E+02 E0= -.30119000E+02  d E =0.593984E-02
 writing wavefunctions
