unknown system                          
   1.00000000000000     
     3.635000    0.000000    0.000000
     0.000000    3.635000    0.000000
     0.000000    0.000000    3.635000
   Cu
     4
Direct
  0.000000  0.000000  0.000000
  0.500000  0.500000  0.000000
  0.500000  0.000000  0.500000
  0.000000  0.500000  0.500000
 
   32   32   32
  845.12      796.50      666.04      491.96      317.58      175.90      82.670      36.194      20.755      15.222    
  11.616      9.3752      8.0783      7.4309      7.0300      6.6523      6.4698      6.6523      7.0300      7.4309    
  8.0783      9.3752      11.616      15.222      20.755      36.194      82.670      175.90      317.58      491.96    
  666.04      796.50      796.50      750.48      626.99      462.28      297.52      164.16      77.112      34.347    
  20.362      15.025      11.542      9.3917      8.1549      7.5423      7.1692      6.8206      6.6523      6.8206    
  7.1692      7.5423      8.1549      9.3917      11.542      15.025      20.362      34.347      77.112      164.16    
  297.52      462.28      626.99      750.48      666.04      626.99      522.26      382.81      244.10      133.29    
  62.827      29.800      19.345      14.482      11.344      9.4326      8.3383      7.7914      7.4628      7.1692    
  7.0300      7.1692      7.4628      7.7914      8.3383      9.4326      11.344      14.482      19.345      29.800    
  62.827      133.29      244.10      382.81      522.26      626.99      491.96      462.28      382.81      277.59    
  174.32      94.068      45.617      24.785      17.908      13.727      11.097      9.5095      8.5870      8.0961    
  7.7914      7.5423      7.4309      7.5423      7.7914      8.0961      8.5870      9.5095      11.097      13.727    
  17.908      24.785      45.617      94.068      174.32      277.59      382.81      462.28      317.58      297.52    
  244.10      174.32      107.70      58.532      31.442      21.020      16.248      12.939      10.910      9.6984    
  8.9859      8.5870      8.3383      8.1549      8.0783      8.1549      8.3383      8.5870      8.9859      9.6984    
  10.910      12.939      16.248      21.020      31.442      58.532      107.70      174.32      244.10      297.52    
  175.90      164.16      133.29      94.068      58.532      34.621      23.149      18.216      14.650      12.291    
  10.900      10.115      9.6984      9.5095      9.4326      9.3917      9.3752      9.3917      9.4326      9.5095    
  9.6984      10.115      10.900      12.291      14.650      18.216      23.149      34.621      58.532      94.068    
  133.29      164.16      82.670      77.112      62.827      45.617      31.442      23.149      18.951      15.707    
  13.362      11.927      11.185      10.900      10.910      11.097      11.344      11.542      11.616      11.542    
  11.344      11.097      10.910      10.900      11.185      11.927      13.362      15.707      18.951      23.149    
  31.442      45.617      62.827      77.112      36.194      34.347      29.800      24.785      21.020      18.216    
  15.707      13.774      12.544      11.969      11.927      12.291      12.939      13.727      14.482      15.025    
  15.222      15.025      14.482      13.727      12.939      12.291      11.927      11.969      12.544      13.774    
  15.707      18.216      21.020      24.785      29.800      34.347      20.755      20.362      19.345      17.908    
  16.248      14.650      13.362      12.544      12.266      12.544      13.362      14.650      16.248      17.908    
  19.345      20.362      20.755      20.362      19.345      17.908      16.248      14.650      13.362      12.544    
  12.266      12.544      13.362      14.650      16.248      17.908      19.345      20.362      15.222      15.025    
  14.482      13.727      12.939      12.291      11.927      11.969      12.544      13.774      15.707      18.216    
  21.020      24.785      29.800      34.347      36.194      34.347      29.800      24.785      21.020      18.216    
  15.707      13.774      12.544      11.969      11.927      12.291      12.939      13.727      14.482      15.025    
  11.616      11.542      11.344      11.097      10.910      10.900      11.185      11.927      13.362      15.707    
  18.951      23.149      31.442      45.617      62.827      77.112      82.670      77.112      62.827      45.617    
  31.442      23.149      18.951      15.707      13.362      11.927      11.185      10.900      10.910      11.097    
  11.344      11.542      9.3752      9.3917      9.4326      9.5095      9.6984      10.115      10.900      12.291    
  14.650      18.216      23.149      34.621      58.532      94.068      133.29      164.16      175.90      164.16    
  133.29      94.068      58.532      34.621      23.149      18.216      14.650      12.291      10.900      10.115    
  9.6984      9.5095      9.4326      9.3917      8.0783      8.1549      8.3383      8.5870      8.9859      9.6984    
  10.910      12.939      16.248      21.020      31.442      58.532      107.70      174.32      244.10      297.52    
  317.58      297.52      244.10      174.32      107.70      58.532      31.442      21.020      16.248      12.939    
  10.910      9.6984      8.9859      8.5870      8.3383      8.1549      7.4309      7.5423      7.7914      8.0961    
  8.5870      9.5095      11.097      13.727      17.908      24.785      45.617      94.068      174.32      277.59    
  382.81      462.28      491.96      462.28      382.81      277.59      174.32      94.068      45.617      24.785    
  17.908      13.727      11.097      9.5095      8.5870      8.0961      7.7914      7.5423      7.0300      7.1692    
  7.4628      7.7914      8.3383      9.4326      11.344      14.482      19.345      29.800      62.827      133.29    
  244.10      382.81      522.26      626.99      666.04      626.99      522.26      382.81      244.10      133.29    
  62.827      29.800      19.345      14.482      11.344      9.4326      8.3383      7.7914      7.4628      7.1692    
  6.6523      6.8206      7.1692      7.5423      8.1549      9.3917      11.542      15.025      20.362      34.347    
  77.112      164.16      297.52      462.28      626.99      750.48      796.50      750.48      626.99      462.28    
  297.52      164.16      77.112      34.347      20.362      15.025      11.542      9.3917      8.1549      7.5423    
  7.1692      6.8206      6.4698      6.6523      7.0300      7.4309      8.0783      9.3752      11.616      15.222    
  20.755      36.194      82.670      175.90      317.58      491.96      666.04      796.50      845.12      796.50    
  666.04      491.96      317.58      175.90      82.670      36.194      20.755      15.222      11.616      9.3752    
  8.0783      7.4309      7.0300      6.6523      6.6523      6.8206      7.1692      7.5423      8.1549      9.3917    
  11.542      15.025      20.362      34.347      77.112      164.16      297.52      462.28      626.99      750.48    
  796.50      750.48      626.99      462.28      297.52      164.16      77.112      34.347      20.362      15.025    
  11.542      9.3917      8.1549      7.5423      7.1692      6.8206      7.0300      7.1692      7.4628      7.7914    
  8.3383      9.4326      11.344      14.482      19.345      29.800      62.827      133.29      244.10      382.81    
  522.26      626.99      666.04      626.99      522.26      382.81      244.10      133.29      62.827      29.800    
  19.345      14.482      11.344      9.4326      8.3383      7.7914      7.4628      7.1692      7.4309      7.5423    
  7.7914      8.0961      8.5870      9.5095      11.097      13.727      17.908      24.785      45.617      94.068    
  174.32      277.59      382.81      462.28      491.96      462.28      382.81      277.59      174.32      94.068    
  45.617      24.785      17.908      13.727      11.097      9.5095      8.5870      8.0961      7.7914      7.5423    
  8.0783      8.1549      8.3383      8.5870      8.9859      9.6984      10.910      12.939      16.248      21.020    
  31.442      58.532      107.70      174.32      244.10      297.52      317.58      297.52      244.10      174.32    
  107.70      58.532      31.442      21.020      16.248      12.939      10.910      9.6984      8.9859      8.5870    
  8.3383      8.1549      9.3752      9.3917      9.4326      9.5095      9.6984      10.115      10.900      12.291    
  14.650      18.216      23.149      34.621      58.532      94.068      133.29      164.16      175.90      164.16    
  133.29      94.068      58.532      34.621      23.149      18.216      14.650      12.291      10.900      10.115    
  9.6984      9.5095      9.4326      9.3917      11.616      11.542      11.344      11.097      10.910      10.900    
  11.185      11.927      13.362      15.707      18.951      23.149      31.442      45.617      62.827      77.112    
  82.670      77.112      62.827      45.617      31.442      23.149      18.951      15.707      13.362      11.927    
  11.185      10.900      10.910      11.097      11.344      11.542      15.222      15.025      14.482      13.727    
  12.939      12.291      11.927      11.969      12.544      13.774      15.707      18.216      21.020      24.785    
  29.800      34.347      36.194      34.347      29.800      24.785      21.020      18.216      15.707      13.774    
  12.544      11.969      11.927      12.291      12.939      13.727      14.482      15.025      20.755      20.362    
  19.345      17.908      16.248      14.650      13.362      12.544      12.266      12.544      13.362      14.650    
  16.248      17.908      19.345      20.362      20.755      20.362      19.345      17.908      16.248      14.650    
  13.362      12.544      12.266      12.544      13.362      14.650      16.248      17.908      19.345      20.362    
  36.194      34.347      29.800      24.785      21.020      18.216      15.707      13.774      12.544      11.969    
  11.927      12.291      12.939      13.727      14.482      15.025      15.222      15.025      14.482      13.727    
  12.939      12.291      11.927      11.969      12.544      13.774      15.707      18.216      21.020      24.785    
  29.800      34.347      82.670      77.112      62.827      45.617      31.442      23.149      18.951      15.707    
  13.362      11.927      11.185      10.900      10.910      11.097      11.344      11.542      11.616      11.542    
  11.344      11.097      10.910      10.900      11.185      11.927      13.362      15.707      18.951      23.149    
  31.442      45.617      62.827      77.112      175.90      164.16      133.29      94.068      58.532      34.621    
  23.149      18.216      14.650      12.291      10.900      10.115      9.6984      9.5095      9.4326      9.3917    
  9.3752      9.3917      9.4326      9.5095      9.6984      10.115      10.900      12.291      14.650      18.216    
  23.149      34.621      58.532      94.068      133.29      164.16      317.58      297.52      244.10      174.32    
  107.70      58.532      31.442      21.020      16.248      12.939      10.910      9.6984      8.9859      8.5870    
  8.3383      8.1549      8.0783      8.1549      8.3383      8.5870      8.9859      9.6984      10.910      12.939    
  16.248      21.020      31.442      58.532      107.70      174.32      244.10      297.52      491.96      462.28    
  382.81      277.59      174.32      94.068      45.617      24.785      17.908      13.727      11.097      9.5095    
  8.5870      8.0961      7.7914      7.5423      7.4309      7.5423      7.7914      8.0961      8.5870      9.5095    
  11.097      13.727      17.908      24.785      45.617      94.068      174.32      277.59      382.81      462.28    
  666.04      626.99      522.26      382.81      244.10      133.29      62.827      29.800      19.345      14.482    
  11.344      9.4326      8.3383      7.7914      7.4628      7.1692      7.0300      7.1692      7.4628      7.7914    
  8.3383      9.4326      11.344      14.482      19.345      29.800      62.827      133.29      244.10      382.81    
  522.26      626.99      796.50      750.48      626.99      462.28      297.52      164.16      77.112      34.347    
  20.362      15.025      11.542      9.3917      8.1549      7.5423      7.1692      6.8206      6.6523      6.8206    
  7.1692      7.5423      8.1549      9.3917      11.542      15.025      20.362      34.347      77.112      164.16    
  297.52      462.28      626.99      750.48      796.50      750.48      626.99      462.28      297.52      164.16    
  77.112      34.347      20.362      15.025      11.542      9.3917      8.1549      7.5423      7.1692      6.8206    
  6.6523      6.8206      7.1692      7.5423      8.1549      9.3917      11.542      15.025      20.362      34.347    
  77.112      164.16      297.52      462.28      626.99      750.48      750.48      706.91      590.04      434.22    
  278.61      153.17      71.965      32.671      19.997      14.832      11.469      9.4053      8.2252      7.6448    
  7.2973      6.9758      6.8206      6.9758      7.2973      7.6448      8.2252      9.4053      11.469      14.832    
  19.997      32.671      71.965      153.17      278.61      434.22      590.04      706.91      626.99      590.04    
  490.96      359.14      228.31      124.29      58.770      28.560      19.026      14.303      11.275      9.4397    
  8.3943      7.8751      7.5682      7.2973      7.1692      7.2973      7.5682      7.8751      8.3943      9.4397    
  11.275      14.303      19.026      28.560      58.770      124.29      228.31      359.14      490.96      590.04    
  462.28      434.22      359.14      259.87      162.75      87.733      42.963      24.046      17.620      13.569    
  11.033      9.5096      8.6276      8.1607      7.8751      7.6448      7.5423      7.6448      7.8751      8.1607    
  8.6276      9.5096      11.033      13.569      17.620      24.046      42.963      87.733      162.75      259.87    
  359.14      434.22      297.52      278.61      228.31      162.75      100.43      54.834      30.066      20.619    
  16.004      12.806      10.852      9.6889      9.0072      8.6276      8.3943      8.2252      8.1549      8.2252    
  8.3943      8.6276      9.0072      9.6889      10.852      12.806      16.004      20.619      30.066      54.834    
  100.43      162.75      228.31      278.61      164.16      153.17      124.29      87.733      54.834      32.952    
  22.585      17.908      14.455      12.181      10.842      10.088      9.6889      9.5096      9.4397      9.4053    
  9.3917      9.4053      9.4397      9.5096      9.6889      10.088      10.842      12.181      14.455      17.908    
  22.585      32.952      54.834      87.733      124.29      153.17      77.112      71.965      58.770      42.963    
  30.066      22.585      18.620      15.474      13.212      11.831      11.116      10.842      10.852      11.033    
  11.275      11.469      11.542      11.469      11.275      11.033      10.852      10.842      11.116      11.831    
  13.212      15.474      18.620      22.585      30.066      42.963      58.770      71.965      34.347      32.671    
  28.560      24.046      20.619      17.908      15.474      13.608      12.424      11.872      11.831      12.181    
  12.806      13.569      14.303      14.832      15.025      14.832      14.303      13.569      12.806      12.181    
  11.831      11.872      12.424      13.608      15.474      17.908      20.619      24.046      28.560      32.671    
  20.362      19.997      19.026      17.620      16.004      14.455      13.212      12.424      12.157      12.424    
  13.212      14.455      16.004      17.620      19.026      19.997      20.362      19.997      19.026      17.620    
  16.004      14.455      13.212      12.424      12.157      12.424      13.212      14.455      16.004      17.620    
  19.026      19.997      15.025      14.832      14.303      13.569      12.806      12.181      11.831      11.872    
  12.424      13.608      15.474      17.908      20.619      24.046      28.560      32.671      34.347      32.671    
  28.560      24.046      20.619      17.908      15.474      13.608      12.424      11.872      11.831      12.181    
  12.806      13.569      14.303      14.832      11.542      11.469      11.275      11.033      10.852      10.842    
  11.116      11.831      13.212      15.474      18.620      22.585      30.066      42.963      58.770      71.965    
  77.112      71.965      58.770      42.963      30.066      22.585      18.620      15.474      13.212      11.831    
  11.116      10.842      10.852      11.033      11.275      11.469      9.3917      9.4053      9.4397      9.5096    
  9.6889      10.088      10.842      12.181      14.455      17.908      22.585      32.952      54.834      87.733    
  124.29      153.17      164.16      153.17      124.29      87.733      54.834      32.952      22.585      17.908    
  14.455      12.181      10.842      10.088      9.6889      9.5096      9.4397      9.4053      8.1549      8.2252    
  8.3943      8.6276      9.0072      9.6889      10.852      12.806      16.004      20.619      30.066      54.834    
  100.43      162.75      228.31      278.61      297.52      278.61      228.31      162.75      100.43      54.834    
  30.066      20.619      16.004      12.806      10.852      9.6889      9.0072      8.6276      8.3943      8.2252    
  7.5423      7.6448      7.8751      8.1607      8.6276      9.5096      11.033      13.569      17.620      24.046    
  42.963      87.733      162.75      259.87      359.14      434.22      462.28      434.22      359.14      259.87    
  162.75      87.733      42.963      24.046      17.620      13.569      11.033      9.5096      8.6276      8.1607    
  7.8751      7.6448      7.1692      7.2973      7.5682      7.8751      8.3943      9.4397      11.275      14.303    
  19.026      28.560      58.770      124.29      228.31      359.14      490.96      590.04      626.99      590.04    
  490.96      359.14      228.31      124.29      58.770      28.560      19.026      14.303      11.275      9.4397    
  8.3943      7.8751      7.5682      7.2973      6.8206      6.9758      7.2973      7.6448      8.2252      9.4053    
  11.469      14.832      19.997      32.671      71.965      153.17      278.61      434.22      590.04      706.91    
  750.48      706.91      590.04      434.22      278.61      153.17      71.965      32.671      19.997      14.832    
  11.469      9.4053      8.2252      7.6448      7.2973      6.9758      6.6523      6.8206      7.1692      7.5423    
  8.1549      9.3917      11.542      15.025      20.362      34.347      77.112      164.16      297.52      462.28    
  626.99      750.48      796.50      750.48      626.99      462.28      297.52      164.16      77.112      34.347    
  20.362      15.025      11.542      9.3917      8.1549      7.5423      7.1692      6.8206      6.8206      6.9758    
  7.2973      7.6448      8.2252      9.4053      11.469      14.832      19.997      32.671      71.965      153.17    
  278.61      434.22      590.04      706.91      750.48      706.91      590.04      434.22      278.61      153.17    
  71.965      32.671      19.997      14.832      11.469      9.4053      8.2252      7.6448      7.2973      6.9758    
  7.1692      7.2973      7.5682      7.8751      8.3943      9.4397      11.275      14.303      19.026      28.560    
  58.770      124.29      228.31      359.14      490.96      590.04      626.99      590.04      490.96      359.14    
  228.31      124.29      58.770      28.560      19.026      14.303      11.275      9.4397      8.3943      7.8751    
  7.5682      7.2973      7.5423      7.6448      7.8751      8.1607      8.6276      9.5096      11.033      13.569    
  17.620      24.046      42.963      87.733      162.75      259.87      359.14      434.22      462.28      434.22    
  359.14      259.87      162.75      87.733      42.963      24.046      17.620      13.569      11.033      9.5096    
  8.6276      8.1607      7.8751      7.6448      8.1549      8.2252      8.3943      8.6276      9.0072      9.6889    
  10.852      12.806      16.004      20.619      30.066      54.834      100.43      162.75      228.31      278.61    
  297.52      278.61      228.31      162.75      100.43      54.834      30.066      20.619      16.004      12.806    
  10.852      9.6889      9.0072      8.6276      8.3943      8.2252      9.3917      9.4053      9.4397      9.5096    
  9.6889      10.088      10.842      12.181      14.455      17.908      22.585      32.952      54.834      87.733    
  124.29      153.17      164.16      153.17      124.29      87.733      54.834      32.952      22.585      17.908    
  14.455      12.181      10.842      10.088      9.6889      9.5096      9.4397      9.4053      11.542      11.469    
  11.275      11.033      10.852      10.842      11.116      11.831      13.212      15.474      18.620      22.585    
  30.066      42.963      58.770      71.965      77.112      71.965      58.770      42.963      30.066      22.585    
  18.620      15.474      13.212      11.831      11.116      10.842      10.852      11.033      11.275      11.469    
  15.025      14.832      14.303      13.569      12.806      12.181      11.831      11.872      12.424      13.608    
  15.474      17.908      20.619      24.046      28.560      32.671      34.347      32.671      28.560      24.046    
  20.619      17.908      15.474      13.608      12.424      11.872      11.831      12.181      12.806      13.569    
  14.303      14.832      20.362      19.997      19.026      17.620      16.004      14.455      13.212      12.424    
  12.157      12.424      13.212      14.455      16.004      17.620      19.026      19.997      20.362      19.997    
  19.026      17.620      16.004      14.455      13.212      12.424      12.157      12.424      13.212      14.455    
  16.004      17.620      19.026      19.997      34.347      32.671      28.560      24.046      20.619      17.908    
  15.474      13.608      12.424      11.872      11.831      12.181      12.806      13.569      14.303      14.832    
  15.025      14.832      14.303      13.569      12.806      12.181      11.831      11.872      12.424      13.608    
  15.474      17.908      20.619      24.046      28.560      32.671      77.112      71.965      58.770      42.963    
  30.066      22.585      18.620      15.474      13.212      11.831      11.116      10.842      10.852      11.033    
  11.275      11.469      11.542      11.469      11.275      11.033      10.852      10.842      11.116      11.831    
  13.212      15.474      18.620      22.585      30.066      42.963      58.770      71.965      164.16      153.17    
  124.29      87.733      54.834      32.952      22.585      17.908      14.455      12.181      10.842      10.088    
  9.6889      9.5096      9.4397      9.4053      9.3917      9.4053      9.4397      9.5096      9.6889      10.088    
  10.842      12.181      14.455      17.908      22.585      32.952      54.834      87.733      124.29      153.17    
  297.52      278.61      228.31      162.75      100.43      54.834      30.066      20.619      16.004      12.806    
  10.852      9.6889      9.0072      8.6276      8.3943      8.2252      8.1549      8.2252      8.3943      8.6276    
  9.0072      9.6889      10.852      12.806      16.004      20.619      30.066      54.834      100.43      162.75    
  228.31      278.61      462.28      434.22      359.14      259.87      162.75      87.733      42.963      24.046    
  17.620      13.569      11.033      9.5096      8.6276      8.1607      7.8751      7.6448      7.5423      7.6448    
  7.8751      8.1607      8.6276      9.5096      11.033      13.569      17.620      24.046      42.963      87.733    
  162.75      259.87      359.14      434.22      626.99      590.04      490.96      359.14      228.31      124.29    
  58.770      28.560      19.026      14.303      11.275      9.4397      8.3943      7.8751      7.5682      7.2973    
  7.1692      7.2973      7.5682      7.8751      8.3943      9.4397      11.275      14.303      19.026      28.560    
  58.770      124.29      228.31      359.14      490.96      590.04      750.48      706.91      590.04      434.22    
  278.61      153.17      71.965      32.671      19.997      14.832      11.469      9.4053      8.2252      7.6448    
  7.2973      6.9758      6.8206      6.9758      7.2973      7.6448      8.2252      9.4053      11.469      14.832    
  19.997      32.671      71.965      153.17      278.61      434.22      590.04      706.91      666.04      626.99    
  522.26      382.81      244.10      133.29      62.827      29.800      19.345      14.482      11.344      9.4326    
  8.3383      7.7914      7.4628      7.1692      7.0300      7.1692      7.4628      7.7914      8.3383      9.4326    
  11.344      14.482      19.345      29.800      62.827      133.29      244.10      382.81      522.26      626.99    
  626.99      590.04      490.96      359.14      228.31      124.29      58.770      28.560      19.026      14.303    
  11.275      9.4397      8.3943      7.8751      7.5682      7.2973      7.1692      7.2973      7.5682      7.8751    
  8.3943      9.4397      11.275      14.303      19.026      28.560      58.770      124.29      228.31      359.14    
  490.96      590.04      522.26      490.96      407.11      295.92      186.42      100.77      48.453      25.542    
  18.129      13.813      11.092      9.4603      8.5329      8.0675      7.7962      7.5682      7.4628      7.5682    
  7.7962      8.0675      8.5329      9.4603      11.092      13.813      18.129      25.542      48.453      100.77    
  186.42      295.92      407.11      490.96      382.81      359.14      295.92      212.76      132.26      71.347    
  36.315      22.239      16.816      13.141      10.869      9.5152      8.7336      8.3176      8.0675      7.8751    
  7.7914      7.8751      8.0675      8.3176      8.7336      9.5152      10.869      13.141      16.816      22.239    
  36.315      71.347      132.26      212.76      295.92      359.14      244.10      228.31      186.42      132.26    
  81.550      45.445      26.690      19.543      15.325      12.446      10.702      9.6711      9.0687      8.7336    
  8.5329      8.3943      8.3383      8.3943      8.5329      8.7336      9.0687      9.6711      10.702      12.446    
  15.325      19.543      26.690      45.445      81.550      132.26      186.42      228.31      133.29      124.29    
  100.77      71.347      45.445      28.831      21.164      17.042      13.916      11.882      10.691      10.023    
  9.6711      9.5152      9.4603      9.4397      9.4326      9.4397      9.4603      9.5152      9.6711      10.023    
  10.691      11.882      13.916      17.042      21.164      28.831      45.445      71.347      100.77      124.29    
  62.827      58.770      48.453      36.315      26.690      21.164      17.687      14.823      12.797      11.568    
  10.934      10.691      10.702      10.869      11.092      11.275      11.344      11.275      11.092      10.869    
  10.702      10.691      10.934      11.568      12.797      14.823      17.687      21.164      26.690      36.315    
  48.453      58.770      29.800      28.560      25.542      22.239      19.543      17.042      14.823      13.147    
  12.094      11.604      11.568      11.882      12.446      13.141      13.813      14.303      14.482      14.303    
  13.813      13.141      12.446      11.882      11.568      11.604      12.094      13.147      14.823      17.042    
  19.543      22.239      25.542      28.560      19.345      19.026      18.129      16.816      15.325      13.916    
  12.797      12.094      11.856      12.094      12.797      13.916      15.325      16.816      18.129      19.026    
  19.345      19.026      18.129      16.816      15.325      13.916      12.797      12.094      11.856      12.094    
  12.797      13.916      15.325      16.816      18.129      19.026      14.482      14.303      13.813      13.141    
  12.446      11.882      11.568      11.604      12.094      13.147      14.823      17.042      19.543      22.239    
  25.542      28.560      29.800      28.560      25.542      22.239      19.543      17.042      14.823      13.147    
  12.094      11.604      11.568      11.882      12.446      13.141      13.813      14.303      11.344      11.275    
  11.092      10.869      10.702      10.691      10.934      11.568      12.797      14.823      17.687      21.164    
  26.690      36.315      48.453      58.770      62.827      58.770      48.453      36.315      26.690      21.164    
  17.687      14.823      12.797      11.568      10.934      10.691      10.702      10.869      11.092      11.275    
  9.4326      9.4397      9.4603      9.5152      9.6711      10.023      10.691      11.882      13.916      17.042    
  21.164      28.831      45.445      71.347      100.77      124.29      133.29      124.29      100.77      71.347    
  45.445      28.831      21.164      17.042      13.916      11.882      10.691      10.023      9.6711      9.5152    
  9.4603      9.4397      8.3383      8.3943      8.5329      8.7336      9.0687      9.6711      10.702      12.446    
  15.325      19.543      26.690      45.445      81.550      132.26      186.42      228.31      244.10      228.31    