   2   2   0   0
  0.1033043E+02  0.2376600E-09  0.2376600E-09  0.4223820E-09  0.5000000E-15
  1.000000000000000E-004
  CAR 
 unknown system                          
     71.60531302     -5.58306553  301      6.74229234      1.00000000
     -5.583  0.0000E+00  0.0000E+00
     -5.326  0.0000E+00  0.0000E+00
     -5.068  0.0000E+00  0.0000E+00
     -4.811  0.0000E+00  0.0000E+00
     -4.554  0.0000E+00  0.0000E+00
     -4.297  0.0000E+00  0.0000E+00
     -4.039  0.0000E+00  0.0000E+00
     -3.782 -0.3118E-33 -0.8023E-34
     -3.525 -0.1762E-24 -0.4533E-25
     -3.267 -0.3545E-17 -0.9122E-18
     -3.010 -0.2420E-11 -0.6226E-12
     -2.753 -0.5897E-07 -0.1517E-07
     -2.496 -0.4670E-04 -0.1203E-04
     -2.238 -0.4242E-03 -0.1212E-03
     -1.981  0.8685E-02  0.2113E-02
     -1.724  0.5573E-01  0.1645E-01
     -1.466  0.1034E+00  0.4306E-01
     -1.209  0.5941E-01  0.5834E-01
     -0.952  0.1552E+00  0.9828E-01
     -0.694  0.1798E+00  0.1445E+00
     -0.437  0.1961E+00  0.1950E+00
     -0.180  0.8285E-01  0.2163E+00
      0.077  0.2512E+00  0.2809E+00
      0.335  0.2964E+00  0.3572E+00
      0.592  0.3082E+00  0.4365E+00
      0.849  0.3034E+00  0.5146E+00
      1.107  0.2264E+00  0.5728E+00
      1.364  0.4207E+00  0.6810E+00
      1.621  0.7033E+00  0.8620E+00
      1.878  0.9182E+00  0.1098E+01
      2.136  0.1515E+01  0.1488E+01
      2.393  0.1982E+01  0.1998E+01
      2.650  0.2851E+01  0.2731E+01
      2.908  0.2230E+01  0.3305E+01
      3.165  0.2969E+01  0.4069E+01
      3.422  0.2351E+01  0.4674E+01
      3.680  0.3339E+01  0.5533E+01
      3.937  0.3226E+01  0.6363E+01
      4.194  0.3121E+01  0.7166E+01
      4.451  0.2406E+01  0.7785E+01
      4.709  0.2747E+01  0.8492E+01
      4.966  0.4266E+01  0.9590E+01
      5.223  0.3810E+01  0.1057E+02
      5.481  0.3998E+01  0.1160E+02
      5.738  0.3530E+01  0.1251E+02
      5.995  0.3848E+01  0.1350E+02
      6.252  0.3299E+01  0.1435E+02
      6.510  0.3509E+01  0.1525E+02
      6.767  0.3193E+01  0.1607E+02
      7.024  0.2920E+01  0.1682E+02
      7.282  0.4474E+01  0.1797E+02
      7.539  0.5184E+01  0.1931E+02
      7.796  0.4571E+01  0.2048E+02
      8.054  0.2790E+01  0.2120E+02
      8.311  0.2379E+00  0.2126E+02
      8.568  0.4878E+00  0.2139E+02
      8.825  0.7383E+00  0.2158E+02
      9.083  0.7904E+00  0.2178E+02
      9.340  0.7265E+00  0.2197E+02
      9.597  0.5219E+00  0.2210E+02
      9.855  0.3799E+00  0.2220E+02
     10.112  0.4279E+00  0.2231E+02
     10.369  0.4085E+00  0.2241E+02
     10.626  0.5798E+00  0.2256E+02
     10.884  0.6317E+00  0.2273E+02
     11.141  0.4473E+00  0.2284E+02
     11.398  0.4106E+00  0.2295E+02
     11.656  0.5258E+00  0.2308E+02
     11.913  0.4000E+00  0.2319E+02
     12.170  0.2228E+00  0.2324E+02
     12.428  0.3347E+00  0.2333E+02
     12.685  0.3943E+00  0.2343E+02
     12.942  0.4224E+00  0.2354E+02
     13.199  0.2169E+00  0.2359E+02
     13.457  0.3559E+00  0.2369E+02
     13.714  0.5849E+00  0.2384E+02
     13.971  0.3482E+00  0.2393E+02
     14.229  0.2909E+00  0.2400E+02
     14.486  0.2530E+00  0.2407E+02
     14.743  0.1968E+00  0.2412E+02
     15.001  0.1253E+00  0.2415E+02
     15.258  0.1462E+00  0.2419E+02
     15.515  0.1913E+00  0.2424E+02
     15.772  0.4200E+00  0.2434E+02
     16.030  0.3794E+00  0.2444E+02
     16.287  0.6787E+00  0.2462E+02
     16.544  0.9708E+00  0.2487E+02
     16.802  0.8493E+00  0.2508E+02
     17.059  0.6239E+00  0.2525E+02
     17.316  0.7029E+00  0.2543E+02
     17.573  0.4331E+00  0.2554E+02
     17.831  0.6920E+00  0.2572E+02
     18.088  0.8326E+00  0.2593E+02
     18.345  0.8036E+00  0.2614E+02
     18.603  0.5773E+00  0.2629E+02
     18.860  0.9664E+00  0.2653E+02
     19.117  0.5149E+00  0.2667E+02
     19.375  0.5636E+00  0.2681E+02
     19.632  0.7908E+00  0.2701E+02
     19.889  0.5843E+00  0.2717E+02
     20.146  0.7223E+00  0.2735E+02
     20.404  0.5270E+00  0.2749E+02
     20.661  0.5942E+00  0.2764E+02
     20.918  0.5935E+00  0.2779E+02
     21.176  0.4021E+00  0.2790E+02
     21.433  0.7276E+00  0.2808E+02
     21.690  0.7111E+00  0.2827E+02
     21.947  0.5668E+00  0.2841E+02
     22.205  0.8213E+00  0.2862E+02
     22.462  0.5235E+00  0.2876E+02
     22.719  0.6375E+00  0.2892E+02
     22.977  0.7701E+00  0.2912E+02
     23.234  0.1407E+01  0.2948E+02
     23.491  0.7738E+00  0.2968E+02
     23.749  0.7275E+00  0.2987E+02
     24.006  0.1055E+01  0.3014E+02
     24.263  0.6194E+00  0.3030E+02
     24.520  0.6596E+00  0.3047E+02
     24.778  0.1029E+01  0.3073E+02
     25.035  0.1109E+01  0.3102E+02
     25.292  0.1040E+01  0.3129E+02
     25.550  0.8517E+00  0.3151E+02
     25.807  0.7658E+00  0.3170E+02
     26.064  0.1216E+01  0.3202E+02
     26.321  0.1025E+01  0.3228E+02
     26.579  0.1084E+01  0.3256E+02
     26.836  0.6448E+00  0.3272E+02
     27.093  0.7396E+00  0.3291E+02
     27.351  0.9235E+00  0.3315E+02
     27.608  0.7919E+00  0.3336E+02
     27.865  0.8804E+00  0.3358E+02
     28.123  0.8614E+00  0.3380E+02
     28.380  0.9367E+00  0.3404E+02
     28.637  0.6820E+00  0.3422E+02
     28.894  0.7233E+00  0.3441E+02
     29.152  0.7200E+00  0.3459E+02
     29.409  0.6462E+00  0.3476E+02
     29.666  0.4544E+00  0.3487E+02
     29.924  0.6157E+00  0.3503E+02
     30.181  0.9202E+00  0.3527E+02
     30.438  0.8422E+00  0.3549E+02
     30.695  0.7301E+00  0.3567E+02
     30.953  0.7710E+00  0.3587E+02
     31.210  0.5735E+00  0.3602E+02
     31.467  0.9032E+00  0.3625E+02
     31.725  0.9826E+00  0.3651E+02
     31.982  0.9468E+00  0.3675E+02
     32.239  0.6863E+00  0.3693E+02
     32.497  0.6836E+00  0.3710E+02
     32.754  0.7969E+00  0.3731E+02
     33.011  0.6029E+00  0.3746E+02
     33.268  0.8667E+00  0.3768E+02
     33.526  0.1120E+01  0.3797E+02
     33.783  0.9200E+00  0.3821E+02
     34.040  0.7299E+00  0.3840E+02
     34.298  0.1232E+01  0.3871E+02
     34.555  0.8217E+00  0.3893E+02
     34.812  0.1097E+01  0.3921E+02
     35.069  0.7928E+00  0.3941E+02
     35.327  0.1262E+01  0.3974E+02
     35.584  0.1226E+01  0.4005E+02
     35.841  0.1135E+01  0.4034E+02
     36.099  0.8398E+00  0.4056E+02
     36.356  0.1041E+01  0.4083E+02
     36.613  0.6771E+00  0.4100E+02
     36.871  0.7964E+00  0.4121E+02
     37.128  0.7079E+00  0.4139E+02
     37.385  0.5043E+00  0.4152E+02
     37.642  0.7551E+00  0.4171E+02
     37.900  0.8313E+00  0.4193E+02
     38.157  0.6039E+00  0.4208E+02
     38.414  0.7018E+00  0.4226E+02
     38.672  0.1124E+01  0.4255E+02
     38.929  0.1207E+01  0.4286E+02
     39.186  0.1018E+01  0.4312E+02
     39.443  0.6134E+00  0.4328E+02
     39.701  0.9045E+00  0.4352E+02
     39.958  0.7284E+00  0.4370E+02
     40.215  0.7139E+00  0.4389E+02
     40.473  0.1113E+01  0.4417E+02
     40.730  0.6635E+00  0.4434E+02
     40.987  0.1049E+01  0.4461E+02
     41.245  0.1449E+01  0.4499E+02
     41.502  0.1045E+01  0.4526E+02
     41.759  0.7392E+00  0.4545E+02
     42.016  0.1338E+01  0.4579E+02
     42.274  0.7085E+00  0.4597E+02
     42.531  0.8912E+00  0.4620E+02
     42.788  0.1303E+01  0.4654E+02
     43.046  0.1065E+01  0.4681E+02
     43.303  0.1200E+01  0.4712E+02
     43.560  0.1284E+01  0.4745E+02
     43.817  0.9244E+00  0.4769E+02
     44.075  0.1181E+01  0.4799E+02
     44.332  0.1180E+01  0.4829E+02
     44.589  0.8830E+00  0.4852E+02
     44.847  0.6993E+00  0.4870E+02
     45.104  0.1117E+01  0.4899E+02
     45.361  0.1003E+01  0.4925E+02
     45.619  0.6016E+00  0.4940E+02
     45.876  0.5174E+00  0.4954E+02
     46.133  0.9623E+00  0.4978E+02
     46.390  0.1259E+01  0.5011E+02
     46.648  0.1185E+01  0.5041E+02
     46.905  0.1072E+01  0.5069E+02
     47.162  0.8452E+00  0.5091E+02
     47.420  0.8707E+00  0.5113E+02
     47.677  0.1065E+01  0.5140E+02
     47.934  0.1005E+01  0.5166E+02
     48.192  0.1221E+01  0.5198E+02
     48.449  0.1029E+01  0.5224E+02
     48.706  0.1055E+01  0.5251E+02
     48.963  0.7958E+00  0.5272E+02
     49.221  0.5934E+00  0.5287E+02
     49.478  0.1498E+01  0.5325E+02
     49.735  0.1803E+01  0.5372E+02
     49.993  0.1395E+01  0.5408E+02
     50.250  0.8707E+00  0.5430E+02
     50.507  0.1459E+01  0.5468E+02
     50.764  0.1015E+01  0.5494E+02
     51.022  0.7830E+00  0.5514E+02
     51.279  0.9933E+00  0.5540E+02
     51.536  0.1465E+01  0.5577E+02
     51.794  0.8196E+00  0.5598E+02
     52.051  0.8019E+00  0.5619E+02
     52.308  0.1158E+01  0.5649E+02
     52.566  0.1028E+01  0.5675E+02
     52.823  0.1535E+01  0.5715E+02
     53.080  0.1142E+01  0.5744E+02
     53.337  0.1269E+01  0.5777E+02
     53.595  0.1276E+01  0.5810E+02
     53.852  0.1243E+01  0.5841E+02
     54.109  0.1369E+01  0.5877E+02
     54.367  0.1394E+01  0.5913E+02
     54.624  0.1418E+01  0.5949E+02
     54.881  0.9317E+00  0.5973E+02
     55.138  0.1178E+01  0.6003E+02
     55.396  0.7054E+00  0.6021E+02
     55.653  0.1228E+01  0.6053E+02
     55.910  0.1740E+01  0.6098E+02
     56.168  0.2323E+01  0.6158E+02
     56.425  0.1799E+01  0.6204E+02
     56.682  0.1150E+01  0.6234E+02
     56.940  0.1101E+01  0.6262E+02
     57.197  0.1189E+01  0.6292E+02
     57.454  0.1756E+01  0.6338E+02
     57.711  0.1824E+01  0.6385E+02
     57.969  0.1471E+01  0.6422E+02
     58.226  0.1490E+01  0.6461E+02
     58.483  0.1450E+01  0.6498E+02
     58.741  0.2014E+01  0.6550E+02
     58.998  0.1563E+01  0.6590E+02
     59.255  0.1995E+01  0.6641E+02
     59.512  0.1852E+01  0.6689E+02
     59.770  0.1465E+01  0.6727E+02
     60.027  0.1305E+01  0.6760E+02
     60.284  0.1635E+01  0.6802E+02
     60.542  0.1303E+01  0.6836E+02
     60.799  0.1252E+01  0.6868E+02
     61.056  0.1260E+01  0.6901E+02
     61.314  0.2062E+01  0.6954E+02
     61.571  0.1955E+01  0.7004E+02
     61.828  0.1637E+01  0.7046E+02
     62.085  0.1482E+01  0.7084E+02
     62.343  0.1903E+01  0.7133E+02
     62.600  0.1652E+01  0.7176E+02
     62.857  0.1536E+01  0.7215E+02
     63.115  0.1672E+01  0.7258E+02
     63.372  0.1487E+01  0.7296E+02
     63.629  0.1885E+01  0.7345E+02
     63.886  0.1529E+01  0.7384E+02
     64.144  0.1738E+01  0.7429E+02
     64.401  0.1855E+01  0.7477E+02
     64.658  0.2535E+01  0.7542E+02
     64.916  0.2095E+01  0.7596E+02
     65.173  0.1655E+01  0.7638E+02
     65.430  0.1288E+01  0.7672E+02
     65.688  0.2353E+01  0.7732E+02
     65.945  0.2322E+01  0.7792E+02
     66.202  0.1398E+01  0.7828E+02
     66.459  0.1410E+01  0.7864E+02
     66.717  0.1651E+01  0.7907E+02
     66.974  0.1508E+01  0.7945E+02
     67.231  0.1158E+01  0.7975E+02
     67.489  0.5949E+00  0.7991E+02
     67.746  0.1895E+00  0.7995E+02
     68.003  0.1203E+00  0.7998E+02
     68.260  0.5968E-01  0.8000E+02
     68.518  0.2897E-04  0.8000E+02
     68.775 -0.3940E-03  0.8000E+02
     69.032 -0.6207E-06  0.8000E+02
     69.290 -0.2766E-10  0.8000E+02
     69.547 -0.4668E-16  0.8000E+02
     69.804  0.0000E+00  0.8000E+02
     70.062  0.0000E+00  0.8000E+02
     70.319  0.0000E+00  0.8000E+02
     70.576  0.0000E+00  0.8000E+02
     70.833  0.0000E+00  0.8000E+02
     71.091  0.0000E+00  0.8000E+02
     71.348  0.0000E+00  0.8000E+02
     71.605  0.0000E+00  0.8000E+02
