 vasp.6.2.0 18Jan21 (build Mar 17 2021 09:06:54) complex                        
  
 executed on             LinuxIFC date 2021.09.09  12:07:36
 serial version


--------------------------------------------------------------------------------------------------------


 INCAR:
   ENCUT = 280.000000
   SIGMA = 0.200000
   EDIFF = 1.00e-06
   GGA = PE
   PREC = normal
   IBRION = 1
   ICHARG = 1
   ISIF = 2
   ISMEAR = 1
   KPAR = 1
   NBANDS = 40
   NSW = 0
   NCORE = 1
   LCHARG = .TRUE.

 POTCAR:    PAW_PBE Fe 06Sep2000                  
 POTCAR:    PAW_PBE Fe 06Sep2000                  
   SHA256 =  cd5a22d9368cc8b5cc476bea79732366149640da08ac9009b0e1b7fc627eea28 Fe/POTCAR             
   COPYR  = (c) Copyright 06Sep2000 Georg Kresse                                                    
   COPYR  = This file is part of the software VASP. Any use, copying, and all other rights are regul
   COPYR  = If you do not have a valid VASP license, you may not use, copy or distribute this file. 
   VRHFIN =Fe:  d7 s1                                                                               
   LEXCH  = PE                                                                                      
   EATOM  =   594.3153 eV,   43.6809 Ry                                                             
                                                                                                    
   TITEL  = PAW_PBE Fe 06Sep2000                                                                    
   LULTRA =        F    use ultrasoft PP ?                                                          
   IUNSCR =        1    unscreen: 0-lin 1-nonlin 2-no                                               
   RPACOR =    2.000    partial core radius                                                         
   POMASS =   55.847; ZVAL   =    8.000    mass and valenz                                          
   RCORE  =    2.300    outmost cutoff radius                                                       
   RWIGS  =    2.460; RWIGS  =    1.302    wigner-seitz radius (au A)                               
   ENMAX  =  267.882; ENMIN  =  200.911 eV                                                          
   RCLOC  =    1.701    cutoff for local pot                                                        
   LCOR   =        T    correct aug charges                                                         
   LPAW   =        T    paw PP                                                                      
   EAUG   =  511.368                                                                                
   DEXC   =    0.000                                                                                
   RMAX   =    2.356    core radius for proj-oper                                                   
   RAUG   =    1.300    factor for augmentation sphere                                              
   RDEP   =    2.442    radius for radial grids                                                     
   RDEPT  =    1.890    core radius for aug-charge                                                  
                                                                                                    
   Atomic configuration                                                                             
    9 entries                                                                                       
     n  l   j            E        occ.                                                              
     1  0  0.50     -6993.8440   2.0000                                                             
     2  0  0.50      -814.6047   2.0000                                                             
     2  1  1.50      -693.3689   6.0000                                                             
     3  0  0.50       -89.4732   2.0000                                                             
     3  1  1.50       -55.6373   6.0000                                                             
     3  2  2.50        -3.8151   7.0000                                                             
     4  0  0.50        -4.2551   1.0000                                                             
     4  1  1.50        -3.4015   0.0000                                                             
     4  3  2.50        -1.3606   0.0000                                                             
   Description                                                                                      
     l       E           TYP  RCUT    TYP  RCUT                                                     
     2     -3.8151135     23  2.300                                                                 
     2     -5.1756961     23  2.300                                                                 
     0     -4.2550963     23  2.300                                                                 
     0      7.2035603     23  2.300                                                                 
     1     -2.7211652     23  2.300                                                                 
     1     18.4316424     23  2.300                                                                 
  local pseudopotential read in
  partial core-charges read in
  partial kinetic energy density read in
  atomic valenz-charges read in
  non local Contribution for L=           2  read in
    real space projection operators read in
  non local Contribution for L=           2  read in
    real space projection operators read in
  non local Contribution for L=           0  read in
    real space projection operators read in
  non local Contribution for L=           0  read in
    real space projection operators read in
  non local Contribution for L=           1  read in
    real space projection operators read in
  non local Contribution for L=           1  read in
    real space projection operators read in
    PAW grid and wavefunctions read in
 
   number of l-projection  operators is LMAX  =           6
   number of lm-projection operators is LMMAX =          18
 
  PAW_PBE Fe 06Sep2000                  :
 energy of atom  1       EATOM= -594.3153
 kinetic energy error for atom=    0.0278 (will be added to EATOM!!)
 
 
 POSCAR: Fe
  positions in cartesian coordinates
  No initial velocities read in
 exchange correlation table for  LEXCH =        8
   RHO(1)=    0.500       N(1)  =     2000
   RHO(2)=  100.500       N(2)  =     4000
 


--------------------------------------------------------------------------------------------------------


 ion  position               nearest neighbor table
   1  0.000  0.000  0.000-   2 2.52   2 2.52   2 2.52   2 2.52   2 2.52   2 2.52
   2  0.333  0.667  0.500-   1 2.52   1 2.52   1 2.52   1 2.52   1 2.52   1 2.52
 
  LATTYP: Found a hexagonal cell.
 ALAT       =     2.3766000000
 C/A-ratio  =     1.7772532189
  
  Lattice vectors:
  
 A1 = (   2.3766000000,   0.0000000000,   0.0000000000)
 A2 = (  -1.1883000000,   2.0581959746,   0.0000000000)
 A3 = (   0.0000000000,   0.0000000000,   4.2238200000)


Analysis of symmetry for initial positions (statically):
=====================================================================
 Subroutine PRICEL returns:
 Original cell was already a primitive cell.
 

 Routine SETGRP: Setting up the symmetry group for a 
 hexagonal supercell.


 Subroutine GETGRP returns: Found 24 space group operations
 (whereof 12 operations were pure point group operations)
 out of a pool of 24 trial point group operations.


The static configuration has the point symmetry D_3h.
 The point group associated with its full space group is D_6h.


Analysis of symmetry for dynamics (positions and initial velocities):
=====================================================================
 Subroutine PRICEL returns:
 Original cell was already a primitive cell.
 

 Routine SETGRP: Setting up the symmetry group for a 
 hexagonal supercell.


 Subroutine GETGRP returns: Found 24 space group operations
 (whereof 12 operations were pure point group operations)
 out of a pool of 24 trial point group operations.


The dynamic configuration has the point symmetry D_3h.
 The point group associated with its full space group is D_6h.


 Subroutine INISYM returns: Found 24 space group operations
 (whereof 12 operations are pure point group operations),
 and found     1 'primitive' translations


----------------------------------------------------------------------------------------

                                     Primitive cell                                     

  volume of cell :      20.6609

  direct lattice vectors                    reciprocal lattice vectors
     2.376600000  0.000000000  0.000000000     0.420769166  0.242931191  0.000000000
    -1.188300000  2.058195975  0.000000000     0.000000000  0.485862383  0.000000000
     0.000000000  0.000000000  4.223820000     0.000000000  0.000000000  0.236752513

  length of vectors
     2.376600000  2.376600000  4.223820000     0.485862383  0.485862383  0.236752513

  position of ions in fractional coordinates (direct lattice)
     0.000000000  0.000000000  0.000000000
     0.333333333  0.666666667  0.500000000

  ion indices of the primitive-cell ions
   primitive index   ion index
                 1           1
                 2           2

----------------------------------------------------------------------------------------

 
 
 KPOINTS: KPOINTS created by Atomic Simulation Env

Automatic generation of k-mesh.
 Grid dimensions read from file:
 generate k-points for:   11   11   11

 Generating k-lattice:

  Cartesian coordinates                     Fractional coordinates (reciprocal lattice)
     0.038251742  0.022084654  0.000000000     0.090909091 -0.000000000  0.000000000
     0.000000000  0.044169308  0.000000000     0.000000000  0.090909091  0.000000000
     0.000000000  0.000000000  0.021522956     0.000000000  0.000000000  0.090909091

  Length of vectors
     0.044169308  0.044169308  0.021522956

  Shift w.r.t. Gamma in fractional coordinates (k-lattice)
     0.000000000  0.000000000  0.000000000

 
 Subroutine IBZKPT returns following result:
 ===========================================
 
 Found     96 irreducible k-points:
 
 Following reciprocal coordinates:
            Coordinates               Weight
  0.000000  0.000000  0.000000      1.000000
  0.090909  0.000000  0.000000      6.000000
  0.181818  0.000000  0.000000      6.000000
  0.272727  0.000000  0.000000      6.000000
  0.363636  0.000000  0.000000      6.000000
  0.454545  0.000000  0.000000      6.000000
  0.090909  0.090909  0.000000      6.000000
  0.181818  0.090909  0.000000     12.000000
  0.272727  0.090909  0.000000     12.000000
  0.363636  0.090909  0.000000     12.000000
  0.454545  0.090909  0.000000      6.000000
  0.181818  0.181818  0.000000      6.000000
  0.272727  0.181818  0.000000     12.000000
  0.363636  0.181818  0.000000     12.000000
  0.272727  0.272727  0.000000      6.000000
  0.363636  0.272727  0.000000      6.000000
  0.000000  0.000000  0.090909      2.000000
  0.090909  0.000000  0.090909     12.000000
  0.181818  0.000000  0.090909     12.000000
  0.272727  0.000000  0.090909     12.000000
  0.363636  0.000000  0.090909     12.000000
  0.454545  0.000000  0.090909     12.000000
  0.090909  0.090909  0.090909     12.000000
  0.181818  0.090909  0.090909     24.000000
  0.272727  0.090909  0.090909     24.000000
  0.363636  0.090909  0.090909     24.000000
  0.454545  0.090909  0.090909     12.000000
  0.181818  0.181818  0.090909     12.000000
  0.272727  0.181818  0.090909     24.000000
  0.363636  0.181818  0.090909     24.000000
  0.272727  0.272727  0.090909     12.000000
  0.363636  0.272727  0.090909     12.000000
  0.000000  0.000000  0.181818      2.000000
  0.090909  0.000000  0.181818     12.000000
  0.181818  0.000000  0.181818     12.000000
  0.272727  0.000000  0.181818     12.000000
  0.363636  0.000000  0.181818     12.000000
  0.454545  0.000000  0.181818     12.000000
  0.090909  0.090909  0.181818     12.000000
  0.181818  0.090909  0.181818     24.000000
  0.272727  0.090909  0.181818     24.000000
  0.363636  0.090909  0.181818     24.000000
  0.454545  0.090909  0.181818     12.000000
  0.181818  0.181818  0.181818     12.000000
  0.272727  0.181818  0.181818     24.000000
  0.363636  0.181818  0.181818     24.000000
  0.272727  0.272727  0.181818     12.000000
  0.363636  0.272727  0.181818     12.000000
  0.000000  0.000000  0.272727      2.000000
  0.090909  0.000000  0.272727     12.000000
  0.181818  0.000000  0.272727     12.000000
  0.272727  0.000000  0.272727     12.000000
  0.363636  0.000000  0.272727     12.000000
  0.454545  0.000000  0.272727     12.000000
  0.090909  0.090909  0.272727     12.000000
  0.181818  0.090909  0.272727     24.000000
  0.272727  0.090909  0.272727     24.000000
  0.363636  0.090909  0.272727     24.000000
  0.454545  0.090909  0.272727     12.000000
  0.181818  0.181818  0.272727     12.000000
  0.272727  0.181818  0.272727     24.000000
  0.363636  0.181818  0.272727     24.000000
  0.272727  0.272727  0.272727     12.000000
  0.363636  0.272727  0.272727     12.000000
  0.000000  0.000000  0.363636      2.000000
  0.090909  0.000000  0.363636     12.000000
  0.181818  0.000000  0.363636     12.000000
  0.272727  0.000000  0.363636     12.000000
  0.363636  0.000000  0.363636     12.000000
  0.454545  0.000000  0.363636     12.000000
  0.090909  0.090909  0.363636     12.000000
  0.181818  0.090909  0.363636     24.000000
  0.272727  0.090909  0.363636     24.000000
  0.363636  0.090909  0.363636     24.000000
  0.454545  0.090909  0.363636     12.000000
  0.181818  0.181818  0.363636     12.000000
  0.272727  0.181818  0.363636     24.000000
  0.363636  0.181818  0.363636     24.000000
  0.272727  0.272727  0.363636     12.000000
  0.363636  0.272727  0.363636     12.000000
  0.000000  0.000000  0.454545      2.000000
  0.090909  0.000000  0.454545     12.000000
  0.181818  0.000000  0.454545     12.000000
  0.272727  0.000000  0.454545     12.000000
  0.363636  0.000000  0.454545     12.000000
  0.454545  0.000000  0.454545     12.000000
  0.090909  0.090909  0.454545     12.000000
  0.181818  0.090909  0.454545     24.000000
  0.272727  0.090909  0.454545     24.000000
  0.363636  0.090909  0.454545     24.000000
  0.454545  0.090909  0.454545     12.000000
  0.181818  0.181818  0.454545     12.000000
  0.272727  0.181818  0.454545     24.000000
  0.363636  0.181818  0.454545     24.000000
  0.272727  0.272727  0.454545     12.000000
  0.363636  0.272727  0.454545     12.000000
 
 Following cartesian coordinates:
            Coordinates               Weight
  0.000000  0.000000  0.000000      1.000000
  0.038252  0.022085  0.000000      6.000000
  0.076503  0.044169  0.000000      6.000000
  0.114755  0.066254  0.000000      6.000000
  0.153007  0.088339  0.000000      6.000000
  0.191259  0.110423  0.000000      6.000000
  0.038252  0.066254  0.000000      6.000000
  0.076503  0.088339  0.000000     12.000000
  0.114755  0.110423  0.000000     12.000000
  0.153007  0.132508  0.000000     12.000000
  0.191259  0.154593  0.000000      6.000000
  0.076503  0.132508  0.000000      6.000000
  0.114755  0.154593  0.000000     12.000000
  0.153007  0.176677  0.000000     12.000000
  0.114755  0.198762  0.000000      6.000000
  0.153007  0.220847  0.000000      6.000000
  0.000000  0.000000  0.021523      2.000000
  0.038252  0.022085  0.021523     12.000000
  0.076503  0.044169  0.021523     12.000000
  0.114755  0.066254  0.021523     12.000000
  0.153007  0.088339  0.021523     12.000000
  0.191259  0.110423  0.021523     12.000000
  0.038252  0.066254  0.021523     12.000000
  0.076503  0.088339  0.021523     24.000000
  0.114755  0.110423  0.021523     24.000000
  0.153007  0.132508  0.021523     24.000000
  0.191259  0.154593  0.021523     12.000000
  0.076503  0.132508  0.021523     12.000000
  0.114755  0.154593  0.021523     24.000000
  0.153007  0.176677  0.021523     24.000000
  0.114755  0.198762  0.021523     12.000000
  0.153007  0.220847  0.021523     12.000000
  0.000000  0.000000  0.043046      2.000000
  0.038252  0.022085  0.043046     12.000000
  0.076503  0.044169  0.043046     12.000000
  0.114755  0.066254  0.043046     12.000000
  0.153007  0.088339  0.043046     12.000000
  0.191259  0.110423  0.043046     12.000000
  0.038252  0.066254  0.043046     12.000000
  0.076503  0.088339  0.043046     24.000000
  0.114755  0.110423  0.043046     24.000000
  0.153007  0.132508  0.043046     24.000000
  0.191259  0.154593  0.043046     12.000000
  0.076503  0.132508  0.043046     12.000000
  0.114755  0.154593  0.043046     24.000000
  0.153007  0.176677  0.043046     24.000000
  0.114755  0.198762  0.043046     12.000000
  0.153007  0.220847  0.043046     12.000000
  0.000000  0.000000  0.064569      2.000000
  0.038252  0.022085  0.064569     12.000000
  0.076503  0.044169  0.064569     12.000000
  0.114755  0.066254  0.064569     12.000000
  0.153007  0.088339  0.064569     12.000000
  0.191259  0.110423  0.064569     12.000000
  0.038252  0.066254  0.064569     12.000000
  0.076503  0.088339  0.064569     24.000000
  0.114755  0.110423  0.064569     24.000000
  0.153007  0.132508  0.064569     24.000000
  0.191259  0.154593  0.064569     12.000000
  0.076503  0.132508  0.064569     12.000000
  0.114755  0.154593  0.064569     24.000000
  0.153007  0.176677  0.064569     24.000000
  0.114755  0.198762  0.064569     12.000000
  0.153007  0.220847  0.064569     12.000000
  0.000000  0.000000  0.086092      2.000000
  0.038252  0.022085  0.086092     12.000000
  0.076503  0.044169  0.086092     12.000000
  0.114755  0.066254  0.086092     12.000000
  0.153007  0.088339  0.086092     12.000000
  0.191259  0.110423  0.086092     12.000000
  0.038252  0.066254  0.086092     12.000000
  0.076503  0.088339  0.086092     24.000000
  0.114755  0.110423  0.086092     24.000000
  0.153007  0.132508  0.086092     24.000000
  0.191259  0.154593  0.086092     12.000000
  0.076503  0.132508  0.086092     12.000000
  0.114755  0.154593  0.086092     24.000000
  0.153007  0.176677  0.086092     24.000000
  0.114755  0.198762  0.086092     12.000000
  0.153007  0.220847  0.086092     12.000000
  0.000000  0.000000  0.107615      2.000000
  0.038252  0.022085  0.107615     12.000000
  0.076503  0.044169  0.107615     12.000000
  0.114755  0.066254  0.107615     12.000000
  0.153007  0.088339  0.107615     12.000000
  0.191259  0.110423  0.107615     12.000000
  0.038252  0.066254  0.107615     12.000000
  0.076503  0.088339  0.107615     24.000000
  0.114755  0.110423  0.107615     24.000000
  0.153007  0.132508  0.107615     24.000000
  0.191259  0.154593  0.107615     12.000000
  0.076503  0.132508  0.107615     12.000000
  0.114755  0.154593  0.107615     24.000000
  0.153007  0.176677  0.107615     24.000000
  0.114755  0.198762  0.107615     12.000000
  0.153007  0.220847  0.107615     12.000000
 


--------------------------------------------------------------------------------------------------------




 Dimension of arrays:
   k-points           NKPTS =     96   k-points in BZ     NKDIM =     96   number of bands    NBANDS=     40
   number of dos      NEDOS =    301   number of ions     NIONS =      2
   non local maximal  LDIM  =      6   non local SUM 2l+1 LMDIM =     18
   total plane-waves  NPLWV =   1800
   max r-space proj   IRMAX =      1   max aug-charges    IRDMAX=   3303
   dimension x,y,z NGX =    10 NGY =   10 NGZ =   18
   dimension x,y,z NGXF=    20 NGYF=   20 NGZF=   36
   support grid    NGXF=    20 NGYF=   20 NGZF=   36
   ions per type =               2
   NGX,Y,Z   is equivalent  to a cutoff of   7.00,  7.00,  7.08 a.u.
   NGXF,Y,Z  is equivalent  to a cutoff of  13.99, 13.99, 14.17 a.u.

 SYSTEM =  unknown system                          
 POSCAR =  Fe                                      

 Startparameter for this run:
   NWRITE =      2    write-flag & timer
   PREC   = normal    normal or accurate (medium, high low for compatibility)
   ISTART =      0    job   : 0-new  1-cont  2-samecut
   ICHARG =      1    charge: 1-file 2-atom 10-const
   ISPIN  =      1    spin polarized calculation?
   LNONCOLLINEAR =      F non collinear calculations
   LSORBIT =      F    spin-orbit coupling
   INIWAV =      1    electr: 0-lowe 1-rand  2-diag
   LASPH  =      F    aspherical Exc in radial PAW
   METAGGA=      F    non-selfconsistent MetaGGA calc.

 Electronic Relaxation 1
   ENCUT  =  280.0 eV  20.58 Ry    4.54 a.u.   3.24  3.24  5.76*2*pi/ulx,y,z
   ENINI  =  280.0     initial cutoff
   ENAUG  =  511.4 eV  augmentation charge cutoff
   NELM   =     60;   NELMIN=  2; NELMDL= -5     # of ELM steps 
   EDIFF  = 0.1E-05   stopping-criterion for ELM
   LREAL  =      F    real-space projection
   NLSPLINE    = F    spline interpolate recip. space projectors
   LCOMPAT=      F    compatible to vasp.4.4
   GGA_COMPAT  = T    GGA compatible to vasp.4.4-vasp.4.6
   LMAXPAW     = -100 max onsite density
   LMAXMIX     =    2 max onsite mixed and CHGCAR
   VOSKOWN=      0    Vosko Wilk Nusair interpolation
   ROPT   =    0.00000
 Ionic relaxation
   EDIFFG = 0.1E-04   stopping-criterion for IOM
   NSW    =      0    number of steps for IOM
   NBLOCK =      1;   KBLOCK =      1    inner block; outer block 
   IBRION =     -1    ionic relax: 0-MD 1-quasi-New 2-CG
   NFREE  =      0    steps in history (QN), initial steepest desc. (CG)
   ISIF   =      2    stress and relaxation
   IWAVPR =      0    prediction:  0-non 1-charg 2-wave 3-comb
   ISYM   =      2    0-nonsym 1-usesym 2-fastsym
   LCORR  =      T    Harris-Foulkes like correction to forces

   POTIM  = 0.5000    time-step for ionic-motion
   TEIN   =    0.0    initial temperature
   TEBEG  =    0.0;   TEEND  =   0.0 temperature during run
   SMASS  =  -3.00    Nose mass-parameter (am)
   estimated Nose-frequenzy (Omega)   =  0.10E-29 period in steps = 0.13E+47 mass=  -0.129E-27a.u.
   SCALEE = 1.0000    scale energy and forces
   NPACO  =    256;   APACO  = 16.0  distance and # of slots for P.C.
   PSTRESS=    0.0 pullay stress

  Mass of Ions in am
   POMASS =  55.85
  Ionic Valenz
   ZVAL   =   8.00
  Atomic Wigner-Seitz radii
   RWIGS  =  -1.00
  virtual crystal weights 
   VCA    =   1.00
   NELECT =      16.0000    total number of electrons
   NUPDOWN=      -1.0000    fix difference up-down

 DOS related values:
   EMIN   =  10.00;   EMAX   =-10.00  energy-range for DOS
   EFERMI =   0.00
   ISMEAR =     1;   SIGMA  =   0.20  broadening in eV -4-tet -1-fermi 0-gaus

 Electronic relaxation 2 (details)
   IALGO  =     38    algorithm
   LDIAG  =      T    sub-space diagonalisation (order eigenvalues)
   LSUBROT=      F    optimize rotation matrix (better conditioning)
   TURBO    =      0    0=normal 1=particle mesh
   IRESTART =      0    0=no restart 2=restart with 2 vectors
   NREBOOT  =      0    no. of reboots
   NMIN     =      0    reboot dimension
   EREF     =   0.00    reference energy to select bands
   IMIX   =      4    mixing-type and parameters
     AMIX     =   0.40;   BMIX     =  1.00
     AMIX_MAG =   1.60;   BMIX_MAG =  1.00
     AMIN     =   0.10
     WC   =   100.;   INIMIX=   1;  MIXPRE=   1;  MAXMIX= -45

 Intra band minimization:
   WEIMIN = 0.0000     energy-eigenvalue tresh-hold
   EBREAK =  0.62E-08  absolut break condition
   DEPER  =   0.30     relativ break condition  

   TIME   =   0.40     timestep for ELM

  volume/ion in A,a.u.               =      10.33        69.71
  Fermi-wavevector in a.u.,A,eV,Ry     =   1.503368  2.840954 30.750753  2.260117
  Thomas-Fermi vector in A             =   2.614488
 
 Write flags
   LWAVE        =      T    write WAVECAR
   LDOWNSAMPLE  =      F    k-point downsampling of WAVECAR
   LCHARG       =      T    write CHGCAR
   LVTOT        =      F    write LOCPOT, total local potential
   LVHAR        =      F    write LOCPOT, Hartree potential only
   LELF         =      F    write electronic localiz. function (ELF)
   LORBIT       =      0    0 simple, 1 ext, 2 COOP (PROOUT), +10 PAW based schemes


 Dipole corrections
   LMONO  =      F    monopole corrections only (constant potential shift)
   LDIPOL =      F    correct potential (dipole corrections)
   IDIPOL =      0    1-x, 2-y, 3-z, 4-all directions 
   EPSILON=  1.0000000 bulk dielectric constant

 Exchange correlation treatment:
   GGA     =    PE    GGA type
   LEXCH   =     8    internal setting for exchange type
   VOSKOWN=      0    Vosko Wilk Nusair interpolation
   LHFCALC =     F    Hartree Fock is set to
   LHFONE  =     F    Hartree Fock one center treatment
   AEXX    =    0.0000 exact exchange contribution

 Linear response parameters
   LEPSILON=     F    determine dielectric tensor
   LRPA    =     F    only Hartree local field effects (RPA)
   LNABLA  =     F    use nabla operator in PAW spheres
   LVEL    =     F    velocity operator in full k-point grid
   LINTERFAST=   F  fast interpolation
   KINTER  =     0    interpolate to denser k-point grid
   CSHIFT  =0.1000    complex shift for real part using Kramers Kronig
   OMEGAMAX=  -1.0    maximum frequency
   DEG_THRESHOLD= 0.2000000E-02 threshold for treating states as degnerate
   RTIME   =   -0.100 relaxation time in fs
  (WPLASMAI=    0.000 imaginary part of plasma frequency in eV, 0.658/RTIME)
   DFIELD  = 0.0000000 0.0000000 0.0000000 field for delta impulse in time
 
 Orbital magnetization related:
   ORBITALMAG=     F  switch on orbital magnetization
   LCHIMAG   =     F  perturbation theory with respect to B field
   DQ        =  0.001000  dq finite difference perturbation B field
   LLRAUG    =     F  two centre corrections for induced B field



--------------------------------------------------------------------------------------------------------


 Static calculation
 charge density and potential will be updated during run
 non-spin polarized calculation
 Variant of blocked Davidson
 Davidson routine will perform the subspace rotation
 perform sub-space diagonalisation
    after iterative eigenvector-optimisation
 modified Broyden-mixing scheme, WC =      100.0
 initial mixing is a Kerker type mixing with AMIX =  0.4000 and BMIX =      1.0000
 Hartree-type preconditioning will be used
 using additional bands           32
 reciprocal scheme for non local part
 use partial core corrections
 calculate Harris-corrections to forces 
   (improved forces if not selfconsistent)
 use gradient corrections 
 use of overlap-Matrix (Vanderbilt PP)
 Methfessel and Paxton  Order N= 1 SIGMA  =   0.20


--------------------------------------------------------------------------------------------------------


  energy-cutoff  :      280.00
  volume of cell :       20.66
      direct lattice vectors                 reciprocal lattice vectors
     2.376600000  0.000000000  0.000000000     0.420769166  0.242931191  0.000000000
    -1.188300000  2.058195975  0.000000000     0.000000000  0.485862383  0.000000000
     0.000000000  0.000000000  4.223820000     0.000000000  0.000000000  0.236752513

  length of vectors
     2.376600000  2.376600000  4.223820000     0.485862383  0.485862383  0.236752513


 
 k-points in units of 2pi/SCALE and weight: KPOINTS created by Atomic Simulation Env
   0.00000000  0.00000000  0.00000000       0.001
   0.03825174  0.02208465  0.00000000       0.005
   0.07650348  0.04416931  0.00000000       0.005
   0.11475523  0.06625396  0.00000000       0.005
   0.15300697  0.08833862  0.00000000       0.005
   0.19125871  0.11042327  0.00000000       0.005
   0.03825174  0.06625396  0.00000000       0.005
   0.07650348  0.08833862  0.00000000       0.009
   0.11475523  0.11042327  0.00000000       0.009
   0.15300697  0.13250792  0.00000000       0.009
   0.19125871  0.15459258  0.00000000       0.005
   0.07650348  0.13250792  0.00000000       0.005
   0.11475523  0.15459258  0.00000000       0.009
   0.15300697  0.17667723  0.00000000       0.009
   0.11475523  0.19876188  0.00000000       0.005
   0.15300697  0.22084654  0.00000000       0.005
   0.00000000  0.00000000  0.02152296       0.002
   0.03825174  0.02208465  0.02152296       0.009
   0.07650348  0.04416931  0.02152296       0.009
   0.11475523  0.06625396  0.02152296       0.009
   0.15300697  0.08833862  0.02152296       0.009
   0.19125871  0.11042327  0.02152296       0.009
   0.03825174  0.06625396  0.02152296       0.009
   0.07650348  0.08833862  0.02152296       0.018
   0.11475523  0.11042327  0.02152296       0.018
   0.15300697  0.13250792  0.02152296       0.018
   0.19125871  0.15459258  0.02152296       0.009
   0.07650348  0.13250792  0.02152296       0.009
   0.11475523  0.15459258  0.02152296       0.018
   0.15300697  0.17667723  0.02152296       0.018
   0.11475523  0.19876188  0.02152296       0.009
   0.15300697  0.22084654  0.02152296       0.009
   0.00000000  0.00000000  0.04304591       0.002
   0.03825174  0.02208465  0.04304591       0.009
   0.07650348  0.04416931  0.04304591       0.009
   0.11475523  0.06625396  0.04304591       0.009
   0.15300697  0.08833862  0.04304591       0.009
   0.19125871  0.11042327  0.04304591       0.009
   0.03825174  0.06625396  0.04304591       0.009
   0.07650348  0.08833862  0.04304591       0.018
   0.11475523  0.11042327  0.04304591       0.018
   0.15300697  0.13250792  0.04304591       0.018
   0.19125871  0.15459258  0.04304591       0.009
   0.07650348  0.13250792  0.04304591       0.009
   0.11475523  0.15459258  0.04304591       0.018
   0.15300697  0.17667723  0.04304591       0.018
   0.11475523  0.19876188  0.04304591       0.009
   0.15300697  0.22084654  0.04304591       0.009
   0.00000000  0.00000000  0.06456887       0.002
   0.03825174  0.02208465  0.06456887       0.009
   0.07650348  0.04416931  0.06456887       0.009
   0.11475523  0.06625396  0.06456887       0.009
   0.15300697  0.08833862  0.06456887       0.009
   0.19125871  0.11042327  0.06456887       0.009
   0.03825174  0.06625396  0.06456887       0.009
   0.07650348  0.08833862  0.06456887       0.018
   0.11475523  0.11042327  0.06456887       0.018
   0.15300697  0.13250792  0.06456887       0.018
   0.19125871  0.15459258  0.06456887       0.009
   0.07650348  0.13250792  0.06456887       0.009
   0.11475523  0.15459258  0.06456887       0.018
   0.15300697  0.17667723  0.06456887       0.018
   0.11475523  0.19876188  0.06456887       0.009
   0.15300697  0.22084654  0.06456887       0.009
   0.00000000  0.00000000  0.08609182       0.002
   0.03825174  0.02208465  0.08609182       0.009
   0.07650348  0.04416931  0.08609182       0.009
   0.11475523  0.06625396  0.08609182       0.009
   0.15300697  0.08833862  0.08609182       0.009
   0.19125871  0.11042327  0.08609182       0.009
   0.03825174  0.06625396  0.08609182       0.009
   0.07650348  0.08833862  0.08609182       0.018
   0.11475523  0.11042327  0.08609182       0.018
   0.15300697  0.13250792  0.08609182       0.018
   0.19125871  0.15459258  0.08609182       0.009
   0.07650348  0.13250792  0.08609182       0.009
   0.11475523  0.15459258  0.08609182       0.018
   0.15300697  0.17667723  0.08609182       0.018
   0.11475523  0.19876188  0.08609182       0.009
   0.15300697  0.22084654  0.08609182       0.009
   0.00000000  0.00000000  0.10761478       0.002
   0.03825174  0.02208465  0.10761478       0.009
   0.07650348  0.04416931  0.10761478       0.009
   0.11475523  0.06625396  0.10761478       0.009
   0.15300697  0.08833862  0.10761478       0.009
   0.19125871  0.11042327  0.10761478       0.009
   0.03825174  0.06625396  0.10761478       0.009
   0.07650348  0.08833862  0.10761478       0.018
   0.11475523  0.11042327  0.10761478       0.018
   0.15300697  0.13250792  0.10761478       0.018
   0.19125871  0.15459258  0.10761478       0.009
   0.07650348  0.13250792  0.10761478       0.009
   0.11475523  0.15459258  0.10761478       0.018
   0.15300697  0.17667723  0.10761478       0.018
   0.11475523  0.19876188  0.10761478       0.009
   0.15300697  0.22084654  0.10761478       0.009
 
 k-points in reciprocal lattice and weights: KPOINTS created by Atomic Simulation Env
   0.00000000  0.00000000  0.00000000       0.001
   0.09090909  0.00000000  0.00000000       0.005
   0.18181818  0.00000000  0.00000000       0.005
   0.27272727  0.00000000  0.00000000       0.005
   0.36363636  0.00000000  0.00000000       0.005
   0.45454545  0.00000000  0.00000000       0.005
   0.09090909  0.09090909  0.00000000       0.005
   0.18181818  0.09090909  0.00000000       0.009
   0.27272727  0.09090909  0.00000000       0.009
   0.36363636  0.09090909  0.00000000       0.009
   0.45454545  0.09090909  0.00000000       0.005
   0.18181818  0.18181818  0.00000000       0.005
   0.27272727  0.18181818  0.00000000       0.009
   0.36363636  0.18181818  0.00000000       0.009
   0.27272727  0.27272727  0.00000000       0.005
   0.36363636  0.27272727  0.00000000       0.005
   0.00000000  0.00000000  0.09090909       0.002
   0.09090909  0.00000000  0.09090909       0.009
   0.18181818  0.00000000  0.09090909       0.009
   0.27272727  0.00000000  0.09090909       0.009
   0.36363636  0.00000000  0.09090909       0.009
   0.45454545  0.00000000  0.09090909       0.009
   0.09090909  0.09090909  0.09090909       0.009
   0.18181818  0.09090909  0.09090909       0.018
   0.27272727  0.09090909  0.09090909       0.018
   0.36363636  0.09090909  0.09090909       0.018
   0.45454545  0.09090909  0.09090909       0.009
   0.18181818  0.18181818  0.09090909       0.009
   0.27272727  0.18181818  0.09090909       0.018
   0.36363636  0.18181818  0.09090909       0.018
   0.27272727  0.27272727  0.09090909       0.009
   0.36363636  0.27272727  0.09090909       0.009
   0.00000000  0.00000000  0.18181818       0.002
   0.09090909  0.00000000  0.18181818       0.009
   0.18181818  0.00000000  0.18181818       0.009
   0.27272727  0.00000000  0.18181818       0.009
   0.36363636  0.00000000  0.18181818       0.009
   0.45454545  0.00000000  0.18181818       0.009
   0.09090909  0.09090909  0.18181818       0.009
   0.18181818  0.09090909  0.18181818       0.018
   0.27272727  0.09090909  0.18181818       0.018
   0.36363636  0.09090909  0.18181818       0.018
   0.45454545  0.09090909  0.18181818       0.009
   0.18181818  0.18181818  0.18181818       0.009
   0.27272727  0.18181818  0.18181818       0.018
   0.36363636  0.18181818  0.18181818       0.018
   0.27272727  0.27272727  0.18181818       0.009
   0.36363636  0.27272727  0.18181818       0.009
   0.00000000  0.00000000  0.27272727       0.002
   0.09090909  0.00000000  0.27272727       0.009
   0.18181818  0.00000000  0.27272727       0.009
   0.27272727  0.00000000  0.27272727       0.009
   0.36363636  0.00000000  0.27272727       0.009
   0.45454545  0.00000000  0.27272727       0.009
   0.09090909  0.09090909  0.27272727       0.009
   0.18181818  0.09090909  0.27272727       0.018
   0.27272727  0.09090909  0.27272727       0.018
   0.36363636  0.09090909  0.27272727       0.018
   0.45454545  0.09090909  0.27272727       0.009
   0.18181818  0.18181818  0.27272727       0.009
   0.27272727  0.18181818  0.27272727       0.018
   0.36363636  0.18181818  0.27272727       0.018
   0.27272727  0.27272727  0.27272727       0.009
   0.36363636  0.27272727  0.27272727       0.009
   0.00000000  0.00000000  0.36363636       0.002
   0.09090909  0.00000000  0.36363636       0.009
   0.18181818  0.00000000  0.36363636       0.009
   0.27272727  0.00000000  0.36363636       0.009
   0.36363636  0.00000000  0.36363636       0.009
   0.45454545  0.00000000  0.36363636       0.009
   0.09090909  0.09090909  0.36363636       0.009
   0.18181818  0.09090909  0.36363636       0.018
   0.27272727  0.09090909  0.36363636       0.018
   0.36363636  0.09090909  0.36363636       0.018
   0.45454545  0.09090909  0.36363636       0.009
   0.18181818  0.18181818  0.36363636       0.009
   0.27272727  0.18181818  0.36363636       0.018
   0.36363636  0.18181818  0.36363636       0.018
   0.27272727  0.27272727  0.36363636       0.009
   0.36363636  0.27272727  0.36363636       0.009
   0.00000000  0.00000000  0.45454545       0.002
   0.09090909  0.00000000  0.45454545       0.009
   0.18181818  0.00000000  0.45454545       0.009
   0.27272727  0.00000000  0.45454545       0.009
   0.36363636  0.00000000  0.45454545       0.009
   0.45454545  0.00000000  0.45454545       0.009
   0.09090909  0.09090909  0.45454545       0.009
   0.18181818  0.09090909  0.45454545       0.018
   0.27272727  0.09090909  0.45454545       0.018
   0.36363636  0.09090909  0.45454545       0.018
   0.45454545  0.09090909  0.45454545       0.009
   0.18181818  0.18181818  0.45454545       0.009
   0.27272727  0.18181818  0.45454545       0.018
   0.36363636  0.18181818  0.45454545       0.018
   0.27272727  0.27272727  0.45454545       0.009
   0.36363636  0.27272727  0.45454545       0.009
 
 position of ions in fractional coordinates (direct lattice) 
   0.00000000  0.00000000  0.00000000
   0.33333333  0.66666667  0.50000000
 
 position of ions in cartesian coordinates  (Angst):
   0.00000000  0.00000000  0.00000000
   0.00000000  1.37213065  2.11191000
 


--------------------------------------------------------------------------------------------------------


 k-point   1 :   0.0000 0.0000 0.0000  plane waves:     221
 k-point   2 :   0.0909 0.0000 0.0000  plane waves:     227
 k-point   3 :   0.1818 0.0000 0.0000  plane waves:     217
 k-point   4 :   0.2727 0.0000 0.0000  plane waves:     222
 k-point   5 :   0.3636 0.0000 0.0000  plane waves:     222
 k-point   6 :   0.4545 0.0000 0.0000  plane waves:     222
 k-point   7 :   0.0909 0.0909 0.0000  plane waves:     225
 k-point   8 :   0.1818 0.0909 0.0000  plane waves:     215
 k-point   9 :   0.2727 0.0909 0.0000  plane waves:     219
 k-point  10 :   0.3636 0.0909 0.0000  plane waves:     218
 k-point  11 :   0.4545 0.0909 0.0000  plane waves:     222
 k-point  12 :   0.1818 0.1818 0.0000  plane waves:     221
 k-point  13 :   0.2727 0.1818 0.0000  plane waves:     224
 k-point  14 :   0.3636 0.1818 0.0000  plane waves:     218
 k-point  15 :   0.2727 0.2727 0.0000  plane waves:     217
 k-point  16 :   0.3636 0.2727 0.0000  plane waves:     213
 k-point  17 :   0.0000 0.0000 0.0909  plane waves:     227
 k-point  18 :   0.0909 0.0000 0.0909  plane waves:     227
 k-point  19 :   0.1818 0.0000 0.0909  plane waves:     215
 k-point  20 :   0.2727 0.0000 0.0909  plane waves:     220
 k-point  21 :   0.3636 0.0000 0.0909  plane waves:     224
 k-point  22 :   0.4545 0.0000 0.0909  plane waves:     223
 k-point  23 :   0.0909 0.0909 0.0909  plane waves:     223
 k-point  24 :   0.1818 0.0909 0.0909  plane waves:     217
 k-point  25 :   0.2727 0.0909 0.0909  plane waves:     219
 k-point  26 :   0.3636 0.0909 0.0909  plane waves:     221
 k-point  27 :   0.4545 0.0909 0.0909  plane waves:     220
 k-point  28 :   0.1818 0.1818 0.0909  plane waves:     223
 k-point  29 :   0.2727 0.1818 0.0909  plane waves:     219
 k-point  30 :   0.3636 0.1818 0.0909  plane waves:     219
 k-point  31 :   0.2727 0.2727 0.0909  plane waves:     221
 k-point  32 :   0.3636 0.2727 0.0909  plane waves:     215
 k-point  33 :   0.0000 0.0000 0.1818  plane waves:     227
 k-point  34 :   0.0909 0.0000 0.1818  plane waves:     228
 k-point  35 :   0.1818 0.0000 0.1818  plane waves:     217
 k-point  36 :   0.2727 0.0000 0.1818  plane waves:     219
 k-point  37 :   0.3636 0.0000 0.1818  plane waves:     221
 k-point  38 :   0.4545 0.0000 0.1818  plane waves:     221
 k-point  39 :   0.0909 0.0909 0.1818  plane waves:     221
 k-point  40 :   0.1818 0.0909 0.1818  plane waves:     218
 k-point  41 :   0.2727 0.0909 0.1818  plane waves:     217
 k-point  42 :   0.3636 0.0909 0.1818  plane waves:     221
 k-point  43 :   0.4545 0.0909 0.1818  plane waves:     218
 k-point  44 :   0.1818 0.1818 0.1818  plane waves:     221
 k-point  45 :   0.2727 0.1818 0.1818  plane waves:     220
 k-point  46 :   0.3636 0.1818 0.1818  plane waves:     219
 k-point  47 :   0.2727 0.2727 0.1818  plane waves:     216
 k-point  48 :   0.3636 0.2727 0.1818  plane waves:     220
 k-point  49 :   0.0000 0.0000 0.2727  plane waves:     228
 k-point  50 :   0.0909 0.0000 0.2727  plane waves:     228
 k-point  51 :   0.1818 0.0000 0.2727  plane waves:     215
 k-point  52 :   0.2727 0.0000 0.2727  plane waves:     218
 k-point  53 :   0.3636 0.0000 0.2727  plane waves:     219
 k-point  54 :   0.4545 0.0000 0.2727  plane waves:     221
 k-point  55 :   0.0909 0.0909 0.2727  plane waves:     220
 k-point  56 :   0.1818 0.0909 0.2727  plane waves:     219
 k-point  57 :   0.2727 0.0909 0.2727  plane waves:     217
 k-point  58 :   0.3636 0.0909 0.2727  plane waves:     221
 k-point  59 :   0.4545 0.0909 0.2727  plane waves:     219
 k-point  60 :   0.1818 0.1818 0.2727  plane waves:     221
 k-point  61 :   0.2727 0.1818 0.2727  plane waves:     218
 k-point  62 :   0.3636 0.1818 0.2727  plane waves:     220
 k-point  63 :   0.2727 0.2727 0.2727  plane waves:     218
 k-point  64 :   0.3636 0.2727 0.2727  plane waves:     222
 k-point  65 :   0.0000 0.0000 0.3636  plane waves:     228
 k-point  66 :   0.0909 0.0000 0.3636  plane waves:     223
 k-point  67 :   0.1818 0.0000 0.3636  plane waves:     219
 k-point  68 :   0.2727 0.0000 0.3636  plane waves:     218
 k-point  69 :   0.3636 0.0000 0.3636  plane waves:     215
 k-point  70 :   0.4545 0.0000 0.3636  plane waves:     223
 k-point  71 :   0.0909 0.0909 0.3636  plane waves:     222
 k-point  72 :   0.1818 0.0909 0.3636  plane waves:     219
 k-point  73 :   0.2727 0.0909 0.3636  plane waves:     219
 k-point  74 :   0.3636 0.0909 0.3636  plane waves:     219
 k-point  75 :   0.4545 0.0909 0.3636  plane waves:     221
 k-point  76 :   0.1818 0.1818 0.3636  plane waves:     218
 k-point  77 :   0.2727 0.1818 0.3636  plane waves:     220
 k-point  78 :   0.3636 0.1818 0.3636  plane waves:     225
 k-point  79 :   0.2727 0.2727 0.3636  plane waves:     219
 k-point  80 :   0.3636 0.2727 0.3636  plane waves:     221
 k-point  81 :   0.0000 0.0000 0.4545  plane waves:     222
 k-point  82 :   0.0909 0.0000 0.4545  plane waves:     216
 k-point  83 :   0.1818 0.0000 0.4545  plane waves:     219
 k-point  84 :   0.2727 0.0000 0.4545  plane waves:     217
 k-point  85 :   0.3636 0.0000 0.4545  plane waves:     218
 k-point  86 :   0.4545 0.0000 0.4545  plane waves:     214
 k-point  87 :   0.0909 0.0909 0.4545  plane waves:     216
 k-point  88 :   0.1818 0.0909 0.4545  plane waves:     218
 k-point  89 :   0.2727 0.0909 0.4545  plane waves:     220
 k-point  90 :   0.3636 0.0909 0.4545  plane waves:     220
 k-point  91 :   0.4545 0.0909 0.4545  plane waves:     225
 k-point  92 :   0.1818 0.1818 0.4545  plane waves:     216
 k-point  93 :   0.2727 0.1818 0.4545  plane waves:     222
 k-point  94 :   0.3636 0.1818 0.4545  plane waves:     226
 k-point  95 :   0.2727 0.2727 0.4545  plane waves:     224
 k-point  96 :   0.3636 0.2727 0.4545  plane waves:     224

 maximum number of plane-waves:       228
 maximum index in each direction: 
   IXMAX=    3   IYMAX=    3   IZMAX=    5
   IXMIN=   -3   IYMIN=   -3   IZMIN=   -6


 total amount of memory used by VASP MPI-rank0    50222. kBytes
=======================================================================

   base      :      30000. kBytes
   nonl-proj :       3159. kBytes
   grid      :        812. kBytes
   one-center:         31. kBytes
   wavefun   :      16220. kBytes
 
     INWAV:  cpu time    0.0000: real time    0.0000
 Broyden mixing: mesh for mixing (old mesh)
   NGX =  7   NGY =  7   NGZ = 11
  (NGX  = 20   NGY  = 20   NGZ  = 36)
  gives a total of    539 points

 initial charge density was supplied:
 charge density of overlapping atoms calculated
 number of electron      16.0000000 magnetization 
 keeping initial charge density in first step


--------------------------------------------------------------------------------------------------------


 Maximum index for augmentation-charges         3000 (set IRDMAX)


--------------------------------------------------------------------------------------------------------


 First call to EWALD:  gamma=   0.646
 Maximum number of real-space cells 3x 3x 2
 Maximum number of reciprocal cells 2x 2x 4

    FEWALD:  cpu time    0.0009: real time    0.0009


--------------------------------------- Iteration      1(   1)  ---------------------------------------


    POTLOK:  cpu time    0.0035: real time    0.0035
    SETDIJ:  cpu time    0.0021: real time    0.0021
     EDDAV:  cpu time    0.7829: real time    0.8035
       DOS:  cpu time    0.0056: real time    0.0056
    --------------------------------------------
      LOOP:  cpu time    0.7941: real time    0.8147

 eigenvalue-minimisations  :  9208
 total energy-change (2. order) : 0.5987247E+02  (-0.2691573E+03)
 number of electron      16.0000000 magnetization 
 augmentation part       16.0000000 magnetization 

 Free energy of the ion-electron system (eV)
  ---------------------------------------------------
  alpha Z        PSCENC =       133.80624796
  Ewald energy   TEWEN  =     -1220.82686550
  -Hartree energ DENC   =      -209.79299229
  -exchange      EXHF   =         0.00000000
  -V(xc)+E(xc)   XCENC  =         8.40914727
  PAW double counting   =      1109.69170683    -1125.09647265
  entropy T*S    EENTRO =         0.00105530
  eigenvalues    EBANDS =       175.10573033
  atomic energy  EATOM  =      1188.57490811
  Solvation  Ediel_sol  =         0.00000000
  ---------------------------------------------------
  free energy    TOTEN  =        59.87246536 eV

  energy without entropy =       59.87141006  energy(sigma->0) =       59.87211360


--------------------------------------------------------------------------------------------------------




--------------------------------------- Iteration      1(   2)  ---------------------------------------


     EDDAV:  cpu time    0.6905: real time    0.6905
       DOS:  cpu time    0.0063: real time    0.0063
    --------------------------------------------
      LOOP:  cpu time    0.6968: real time    0.6968

 eigenvalue-minimisations  :  7936
 total energy-change (2. order) :-0.7458288E+02  (-0.6349825E+02)
 number of electron      16.0000000 magnetization 
 augmentation part       16.0000000 magnetization 

 Free energy of the ion-electron system (eV)
  ---------------------------------------------------
  alpha Z        PSCENC =       133.80624796
  Ewald energy   TEWEN  =     -1220.82686550
  -Hartree energ DENC   =      -209.79299229
  -exchange      EXHF   =         0.00000000
  -V(xc)+E(xc)   XCENC  =         8.40914727
  PAW double counting   =      1109.69170683    -1125.09647265
  entropy T*S    EENTRO =        -0.00027951
  eigenvalues    EBANDS =       100.52418329
  atomic energy  EATOM  =      1188.57490811
  Solvation  Ediel_sol  =         0.00000000
  ---------------------------------------------------
  free energy    TOTEN  =       -14.71041650 eV

  energy without entropy =      -14.71013699  energy(sigma->0) =      -14.71032333


--------------------------------------------------------------------------------------------------------




--------------------------------------- Iteration      1(   3)  ---------------------------------------


     EDDAV:  cpu time    0.7920: real time    0.7921
       DOS:  cpu time    0.0064: real time    0.0064
    --------------------------------------------
      LOOP:  cpu time    0.7985: real time    0.7985

 eigenvalue-minimisations  :  9536
 total energy-change (2. order) :-0.4441251E+01  (-0.4213393E+01)
 number of electron      16.0000000 magnetization 
 augmentation part       16.0000000 magnetization 

 Free energy of the ion-electron system (eV)
  ---------------------------------------------------
  alpha Z        PSCENC =       133.80624796
  Ewald energy   TEWEN  =     -1220.82686550
  -Hartree energ DENC   =      -209.79299229
  -exchange      EXHF   =         0.00000000
  -V(xc)+E(xc)   XCENC  =         8.40914727
  PAW double counting   =      1109.69170683    -1125.09647265
  entropy T*S    EENTRO =         0.00077544
  eigenvalues    EBANDS =        96.08187719
  atomic energy  EATOM  =      1188.57490811
  Solvation  Ediel_sol  =         0.00000000
  ---------------------------------------------------
  free energy    TOTEN  =       -19.15166764 eV

  energy without entropy =      -19.15244308  energy(sigma->0) =      -19.15192612


--------------------------------------------------------------------------------------------------------




--------------------------------------- Iteration      1(   4)  ---------------------------------------


     EDDAV:  cpu time    0.7616: real time    0.7617
       DOS:  cpu time    0.0066: real time    0.0066
    --------------------------------------------
      LOOP:  cpu time    0.7682: real time    0.7683

 eigenvalue-minimisations  :  9184
 total energy-change (2. order) :-0.2099985E-01  (-0.2098595E-01)
 number of electron      16.0000000 magnetization 
 augmentation part       16.0000000 magnetization 

 Free energy of the ion-electron system (eV)
  ---------------------------------------------------
  alpha Z        PSCENC =       133.80624796
  Ewald energy   TEWEN  =     -1220.82686550
  -Hartree energ DENC   =      -209.79299229
  -exchange      EXHF   =         0.00000000
  -V(xc)+E(xc)   XCENC  =         8.40914727
  PAW double counting   =      1109.69170683    -1125.09647265
  entropy T*S    EENTRO =         0.00078512
  eigenvalues    EBANDS =        96.06086767
  atomic energy  EATOM  =      1188.57490811
  Solvation  Ediel_sol  =         0.00000000
  ---------------------------------------------------
  free energy    TOTEN  =       -19.17266749 eV

  energy without entropy =      -19.17345260  energy(sigma->0) =      -19.17292919


--------------------------------------------------------------------------------------------------------




--------------------------------------- Iteration      1(   5)  ---------------------------------------


     EDDAV:  cpu time    0.7820: real time    0.7821
       DOS:  cpu time    0.0065: real time    0.0065
    CHARGE:  cpu time    0.0208: real time    0.0208
    MIXING:  cpu time    0.0002: real time    0.0002
    --------------------------------------------
      LOOP:  cpu time    0.8095: real time    0.8095

 eigenvalue-minimisations  :  9216
 total energy-change (2. order) :-0.2772156E-04  (-0.2772150E-04)
 number of electron      15.9999903 magnetization 
 augmentation part        7.0707460 magnetization 

 Broyden mixing:
  rms(total) = 0.16760E+01    rms(broyden)= 0.16760E+01
  rms(prec ) = 0.28802E+01
  weight for this iteration     100.00

 Free energy of the ion-electron system (eV)
  ---------------------------------------------------
  alpha Z        PSCENC =       133.80624796
  Ewald energy   TEWEN  =     -1220.82686550
  -Hartree energ DENC   =      -209.79299229
  -exchange      EXHF   =         0.00000000
  -V(xc)+E(xc)   XCENC  =         8.40914727
  PAW double counting   =      1109.69170683    -1125.09647265
  entropy T*S    EENTRO =         0.00078516
  eigenvalues    EBANDS =        96.06083990
  atomic energy  EATOM  =      1188.57490811
  Solvation  Ediel_sol  =         0.00000000
  ---------------------------------------------------
  free energy    TOTEN  =       -19.17269521 eV

  energy without entropy =      -19.17348037  energy(sigma->0) =      -19.17295693


--------------------------------------------------------------------------------------------------------




--------------------------------------- Iteration      1(   6)  ---------------------------------------


    POTLOK:  cpu time    0.0034: real time    0.0034
    SETDIJ:  cpu time    0.0021: real time    0.0021
     EDDAV:  cpu time    0.9195: real time    0.9196
       DOS:  cpu time    0.0068: real time    0.0068
    CHARGE:  cpu time    0.0194: real time    0.0194
    MIXING:  cpu time    0.0002: real time    0.0002
    --------------------------------------------
      LOOP:  cpu time    0.9514: real time    0.9515

 eigenvalue-minimisations  : 11200
 total energy-change (2. order) : 0.2858238E+01  (-0.1886578E+00)
 number of electron      15.9999877 magnetization 
 augmentation part        8.5079026 magnetization 

 Broyden mixing:
  rms(total) = 0.26753E+00    rms(broyden)= 0.26742E+00
  rms(prec ) = 0.46180E+00
  weight for this iteration     100.00

 eigenvalues of (default mixing * dielectric matrix)
  average eigenvalue GAMMA=   0.9126
  0.9126

 Free energy of the ion-electron system (eV)
  ---------------------------------------------------
  alpha Z        PSCENC =       133.80624796
  Ewald energy   TEWEN  =     -1220.82686550
  -Hartree energ DENC   =      -174.97929868
  -exchange      EXHF   =         0.00000000
  -V(xc)+E(xc)   XCENC  =         6.71091433
  PAW double counting   =      1248.06529928    -1258.92508184
  entropy T*S    EENTRO =         0.00293470
  eigenvalues    EBANDS =        61.25648422
  atomic energy  EATOM  =      1188.57490811
  Solvation  Ediel_sol  =         0.00000000
  ---------------------------------------------------
  free energy    TOTEN  =       -16.31445741 eV

  energy without entropy =      -16.31739211  energy(sigma->0) =      -16.31543564


--------------------------------------------------------------------------------------------------------




--------------------------------------- Iteration      1(   7)  ---------------------------------------


    POTLOK:  cpu time    0.0034: real time    0.0034
    SETDIJ:  cpu time    0.0021: real time    0.0021
     EDDAV:  cpu time    0.8344: real time    0.8344
       DOS:  cpu time    0.0065: real time    0.0065
    CHARGE:  cpu time    0.0194: real time    0.0194
    MIXING:  cpu time    0.0002: real time    0.0002
    --------------------------------------------
      LOOP:  cpu time    0.8660: real time    0.8660

 eigenvalue-minimisations  : 10184
 total energy-change (2. order) : 0.2142471E+00  (-0.1333182E-01)
 number of electron      15.9999882 magnetization 
 augmentation part        8.1835356 magnetization 

 Broyden mixing:
  rms(total) = 0.10524E+00    rms(broyden)= 0.10524E+00
  rms(prec ) = 0.20223E+00
  weight for this iteration     100.00

 eigenvalues of (default mixing * dielectric matrix)
  average eigenvalue GAMMA=   0.9682
  1.1996  0.7368

 Free energy of the ion-electron system (eV)
  ---------------------------------------------------
  alpha Z        PSCENC =       133.80624796
  Ewald energy   TEWEN  =     -1220.82686550
  -Hartree energ DENC   =      -179.64171689
  -exchange      EXHF   =         0.00000000
  -V(xc)+E(xc)   XCENC  =         6.96958173
  PAW double counting   =      1323.87031514    -1338.31940327
  entropy T*S    EENTRO =         0.00292202
  eigenvalues    EBANDS =        69.46380035
  atomic energy  EATOM  =      1188.57490811
  Solvation  Ediel_sol  =         0.00000000
  ---------------------------------------------------
  free energy    TOTEN  =       -16.10021035 eV

  energy without entropy =      -16.10313237  energy(sigma->0) =      -16.10118436


--------------------------------------------------------------------------------------------------------




--------------------------------------- Iteration      1(   8)  ---------------------------------------


    POTLOK:  cpu time    0.0034: real time    0.0034
    SETDIJ:  cpu time    0.0021: real time    0.0021
     EDDAV:  cpu time    0.8294: real time    0.8294
       DOS:  cpu time    0.0068: real time    0.0068
    CHARGE:  cpu time    0.0194: real time    0.0194
    MIXING:  cpu time    0.0002: real time    0.0002
    --------------------------------------------
      LOOP:  cpu time    0.8613: real time    0.8613

 eigenvalue-minimisations  : 10056
 total energy-change (2. order) : 0.2634121E-01  (-0.3821964E-03)
 number of electron      15.9999882 magnetization 
 augmentation part        8.2143450 magnetization 

 Broyden mixing:
  rms(total) = 0.48387E-01    rms(broyden)= 0.48387E-01
  rms(prec ) = 0.91470E-01
  weight for this iteration     100.00

 eigenvalues of (default mixing * dielectric matrix)
  average eigenvalue GAMMA=   1.4471
  0.7806  1.0419  2.5188

 Free energy of the ion-electron system (eV)
  ---------------------------------------------------
  alpha Z        PSCENC =       133.80624796
  Ewald energy   TEWEN  =     -1220.82686550
  -Hartree energ DENC   =      -177.56905835
  -exchange      EXHF   =         0.00000000
  -V(xc)+E(xc)   XCENC  =         6.88754395
  PAW double counting   =      1382.71416283    -1398.46367742
  entropy T*S    EENTRO =         0.00298531
  eigenvalues    EBANDS =        68.79988397
  atomic energy  EATOM  =      1188.57490811
  Solvation  Ediel_sol  =         0.00000000
  ---------------------------------------------------
  free energy    TOTEN  =       -16.07386914 eV

  energy without entropy =      -16.07685445  energy(sigma->0) =      -16.07486424


--------------------------------------------------------------------------------------------------------




--------------------------------------- Iteration      1(   9)  ---------------------------------------


    POTLOK:  cpu time    0.0034: real time    0.0034
    SETDIJ:  cpu time    0.0021: real time    0.0021
     EDDAV:  cpu time    0.9164: real time    0.9164
       DOS:  cpu time    0.0067: real time    0.0067
    CHARGE:  cpu time    0.0207: real time    0.0207
    MIXING:  cpu time    0.0002: real time    0.0002
    --------------------------------------------
      LOOP:  cpu time    0.9494: real time    0.9495

 eigenvalue-minimisations  : 11168
 total energy-change (2. order) : 0.1059900E-01  (-0.9388976E-04)
 number of electron      15.9999881 magnetization 
 augmentation part        8.2300641 magnetization 

 Broyden mixing:
  rms(total) = 0.58486E-02    rms(broyden)= 0.58460E-02
  rms(prec ) = 0.62335E-02
  weight for this iteration     100.00

 eigenvalues of (default mixing * dielectric matrix)
  average eigenvalue GAMMA=   1.5057
  2.5730  0.7797  0.9976  1.6724

 Free energy of the ion-electron system (eV)
  ---------------------------------------------------
  alpha Z        PSCENC =       133.80624796
  Ewald energy   TEWEN  =     -1220.82686550
  -Hartree energ DENC   =      -175.51863638
  -exchange      EXHF   =         0.00000000
  -V(xc)+E(xc)   XCENC  =         6.81313112
  PAW double counting   =      1459.45298822    -1476.89837681
  entropy T*S    EENTRO =         0.00298506
  eigenvalues    EBANDS =        68.53034807
  atomic energy  EATOM  =      1188.57490811
  Solvation  Ediel_sol  =         0.00000000
  ---------------------------------------------------
  free energy    TOTEN  =       -16.06327015 eV

  energy without entropy =      -16.06625521  energy(sigma->0) =      -16.06426517


--------------------------------------------------------------------------------------------------------




--------------------------------------- Iteration      1(  10)  ---------------------------------------


    POTLOK:  cpu time    0.0034: real time    0.0034
    SETDIJ:  cpu time    0.0021: real time    0.0021
     EDDAV:  cpu time    0.7754: real time    0.7754
       DOS:  cpu time    0.0065: real time    0.0065
    CHARGE:  cpu time    0.0196: real time    0.0196
    MIXING:  cpu time    0.0002: real time    0.0002
    --------------------------------------------
      LOOP:  cpu time    0.8072: real time    0.8072

 eigenvalue-minimisations  :  9032
 total energy-change (2. order) :-0.2970209E-04  (-0.3561098E-05)
 number of electron      15.9999881 magnetization 
 augmentation part        8.2305451 magnetization 

 Broyden mixing:
  rms(total) = 0.26167E-02    rms(broyden)= 0.26151E-02
  rms(prec ) = 0.32655E-02
  weight for this iteration     100.00

 eigenvalues of (default mixing * dielectric matrix)
  average eigenvalue GAMMA=   1.6202
  2.5442  2.5442  0.7797  1.0098  1.2230

 Free energy of the ion-electron system (eV)
  ---------------------------------------------------
  alpha Z        PSCENC =       133.80624796
  Ewald energy   TEWEN  =     -1220.82686550
  -Hartree energ DENC   =      -175.51389616
  -exchange      EXHF   =         0.00000000
  -V(xc)+E(xc)   XCENC  =         6.81410112
  PAW double counting   =      1462.44132870    -1479.87629023
  entropy T*S    EENTRO =         0.00298047
  eigenvalues    EBANDS =        68.51418568
  atomic energy  EATOM  =      1188.57490811
  Solvation  Ediel_sol  =         0.00000000
  ---------------------------------------------------
  free energy    TOTEN  =       -16.06329985 eV

  energy without entropy =      -16.06628032  energy(sigma->0) =      -16.06429334


--------------------------------------------------------------------------------------------------------




--------------------------------------- Iteration      1(  11)  ---------------------------------------


    POTLOK:  cpu time    0.0034: real time    0.0034
    SETDIJ:  cpu time    0.0021: real time    0.0021
     EDDAV:  cpu time    0.7815: real time    0.7815
       DOS:  cpu time    0.0068: real time    0.0068
    CHARGE:  cpu time    0.0197: real time    0.0197
    MIXING:  cpu time    0.0002: real time    0.0002
    --------------------------------------------
      LOOP:  cpu time    0.8137: real time    0.8138

 eigenvalue-minimisations  :  9056
 total energy-change (2. order) : 0.6653733E-05  (-0.4854015E-07)
 number of electron      15.9999881 magnetization 
 augmentation part        8.2302542 magnetization 

 Broyden mixing:
  rms(total) = 0.19239E-03    rms(broyden)= 0.19203E-03
  rms(prec ) = 0.23397E-03
  weight for this iteration     100.00

 eigenvalues of (default mixing * dielectric matrix)
  average eigenvalue GAMMA=   1.5424
  2.5720  2.5720  0.7795  1.0031  1.0031  1.3247

 Free energy of the ion-electron system (eV)
  ---------------------------------------------------
  alpha Z        PSCENC =       133.80624796
  Ewald energy   TEWEN  =     -1220.82686550
  -Hartree energ DENC   =      -175.57021443
  -exchange      EXHF   =         0.00000000
  -V(xc)+E(xc)   XCENC  =         6.81686818
  PAW double counting   =      1462.32841399    -1479.71123431
  entropy T*S    EENTRO =         0.00298041
  eigenvalues    EBANDS =        68.51560240
  atomic energy  EATOM  =      1188.57490811
  Solvation  Ediel_sol  =         0.00000000
  ---------------------------------------------------
  free energy    TOTEN  =       -16.06329319 eV

  energy without entropy =      -16.06627360  energy(sigma->0) =      -16.06428666


--------------------------------------------------------------------------------------------------------




--------------------------------------- Iteration      1(  12)  ---------------------------------------


    POTLOK:  cpu time    0.0034: real time    0.0034
    SETDIJ:  cpu time    0.0021: real time    0.0021
     EDDAV:  cpu time    0.5809: real time    0.5810
       DOS:  cpu time    0.0068: real time    0.0068
    --------------------------------------------
      LOOP:  cpu time    0.5931: real time    0.5931

 eigenvalue-minimisations  :  6064
 total energy-change (2. order) : 0.7557551E-06  (-0.4854092E-08)
 number of electron      15.9999881 magnetization 
 augmentation part        8.2302542 magnetization 

 Free energy of the ion-electron system (eV)
  ---------------------------------------------------
  alpha Z        PSCENC =       133.80624796
  Ewald energy   TEWEN  =     -1220.82686550
  -Hartree energ DENC   =      -175.57525476
  -exchange      EXHF   =         0.00000000
  -V(xc)+E(xc)   XCENC  =         6.81711692
  PAW double counting   =      1462.38748814    -1479.76486978
  entropy T*S    EENTRO =         0.00298063
  eigenvalues    EBANDS =        68.51495584
  atomic energy  EATOM  =      1188.57490811
  Solvation  Ediel_sol  =         0.00000000
  ---------------------------------------------------
  free energy    TOTEN  =       -16.06329244 eV

  energy without entropy =      -16.06627307  energy(sigma->0) =      -16.06428598


--------------------------------------------------------------------------------------------------------




 average (electrostatic) potential at core
  the test charge radii are     1.0103
  (the norm of the test charge is              1.0000)
       1 -42.7697       2 -42.7696
 
 
 
 E-fermi :   6.7423     XC(G=0): -13.7081     alpha+bet :-15.0047

 Fermi energy:         6.7422923431

 k-point     1 :       0.0000    0.0000    0.0000
  band No.  band energies     occupation 
      1      -2.0745      2.00000
      2       1.7943      2.00000
      3       4.5334      2.00000
      4       5.2088      2.00000
      5       5.2089      2.00000
      6       5.4947      2.00000
      7       5.4949      2.00000
      8       5.9586      2.00000
      9       6.4705      2.06633
     10       6.4706      2.06634
     11       7.4717     -0.00000
     12       7.4717     -0.00000
     13      13.7642      0.00000
     14      29.7790      0.00000
     15      30.1688      0.00000
     16      33.0505      0.00000
     17      35.2610      0.00000
     18      35.2610      0.00000
     19      36.1060      0.00000
     20      36.1061      0.00000
     21      36.3074      0.00000
     22      38.9188      0.00000
     23      38.9188      0.00000
     24      39.9167      0.00000
     25      42.3665      0.00000
     26      42.3665      0.00000
     27      42.8416      0.00000
     28      46.0445      0.00000
     29      46.0448      0.00000
     30      47.8573      0.00000
     31      47.8574      0.00000
     32      50.1286      0.00000
     33      57.8020      0.00000
     34      61.1126      0.00000
     35      61.1134      0.00000
     36      61.5534      0.00000
     37      62.1923      0.00000
     38      63.0826      0.00000
     39      63.1420      0.00000
     40      63.5436      0.00000

 k-point     2 :       0.0909    0.0000    0.0000
  band No.  band energies     occupation 
      1      -1.7458      2.00000
      2       2.0416      2.00000
      3       4.5606      2.00000
      4       5.1324      2.00000
      5       5.1703      2.00000
      6       5.3808      2.00000
      7       5.3950      2.00000
      8       5.6705      2.00000
      9       6.3179      2.01057
     10       6.3626      2.02189
     11       7.5008     -0.00000
     12       8.5296     -0.00000
     13      13.7881      0.00000
     14      28.8276      0.00000
     15      30.1488      0.00000
     16      31.3595      0.00000
     17      32.4959      0.00000
     18      34.8725      0.00000
     19      34.8733      0.00000
     20      36.1579      0.00000
     21      38.2674      0.00000
     22      38.9001      0.00000
     23      38.9998      0.00000
     24      39.6621      0.00000
     25      43.3647      0.00000
     26      43.5949      0.00000
     27      43.6663      0.00000
     28      44.0271      0.00000
     29      47.3532      0.00000
     30      49.1401      0.00000
     31      50.2581      0.00000
     32      52.1684      0.00000
     33      57.2717      0.00000
     34      59.4378      0.00000
     35      59.7528      0.00000
     36      60.3408      0.00000
     37      60.9935      0.00000
     38      63.5081      0.00000
     39      64.1679      0.00000
     40      64.7226      0.00000

 k-point     3 :       0.1818    0.0000    0.0000
  band No.  band energies     occupation 
      1      -0.8140      2.00000
      2       2.6294      2.00000
      3       4.1606      2.00000
      4       4.4175      2.00000
      5       4.9400      2.00000
      6       5.4840      2.00000
      7       5.9249      2.00000
      8       5.9558      2.00000
      9       6.1076      2.00007
     10       6.1631      2.00033
     11       7.5469     -0.00000
     12      10.3036     -0.00000
     13      13.8989      0.00000
     14      25.0167      0.00000
     15      29.7032      0.00000
     16      30.0989      0.00000
     17      30.3901      0.00000
     18      31.2755      0.00000
     19      35.0944      0.00000
     20      36.0645      0.00000
     21      36.4596      0.00000
     22      37.3181      0.00000
     23      39.8656      0.00000
     24      40.5993      0.00000
     25      43.5050      0.00000
     26      44.7498      0.00000
     27      46.2746      0.00000
     28      48.4258      0.00000
     29      50.0090      0.00000
     30      52.6981      0.00000
     31      53.1674      0.00000
     32      55.6047      0.00000
     33      56.0777      0.00000
     34      56.3767      0.00000
     35      58.0252      0.00000
     36      59.5596      0.00000
     37      61.0003      0.00000
     38      63.3079      0.00000
     39      65.1646      0.00000
     40      65.4766      0.00000

 k-point     4 :       0.2727    0.0000    0.0000
  band No.  band energies     occupation 
      1       0.5162      2.00000
      2       2.9280      2.00000
      3       3.3824      2.00000
      4       4.3821      2.00000
      5       4.7554      2.00000
      6       5.4999      2.00000
      7       5.8169      2.00000
      8       6.2077      2.00103
      9       6.6757      1.53028
     10       6.8471      0.23384
     11       7.5694     -0.00000
     12      12.3278      0.00000
     13      14.1499      0.00000
     14      21.0011      0.00000
     15      26.7649      0.00000
     16      27.3033      0.00000
     17      28.3383      0.00000
     18      31.3453      0.00000
     19      33.2258      0.00000
     20      36.0921      0.00000
     21      36.6049      0.00000
     22      36.8825      0.00000
     23      37.4226      0.00000
     24      40.9595      0.00000
     25      47.1584      0.00000
     26      48.5632      0.00000
     27      49.7622      0.00000
     28      50.7362      0.00000
     29      51.4922      0.00000
     30      53.0431      0.00000
     31      54.3878      0.00000
     32      55.6765      0.00000
     33      57.7500      0.00000
     34      57.9137      0.00000
     35      58.8815      0.00000
     36      60.5342      0.00000
     37      62.3827      0.00000
     38      63.0511      0.00000
     39      65.3471      0.00000
     40      65.7126      0.00000

 k-point     5 :       0.3636    0.0000    0.0000
  band No.  band energies     occupation 
      1       1.7282      2.00000
      2       2.6754      2.00000
      3       2.8725      2.00000
      4       4.5252      2.00000
      5       5.0955      2.00000
      6       5.1701      2.00000
      7       5.5747      2.00000
      8       7.4121     -0.00002
      9       7.4300     -0.00001
     10       7.5359     -0.00000
     11       7.5694     -0.00000
     12      14.1622      0.00000
     13      14.5120      0.00000
     14      18.0414      0.00000
     15      23.4696      0.00000
     16      25.4257      0.00000
     17      25.4812      0.00000
     18      30.5666      0.00000
     19      32.2223      0.00000
     20      35.3990      0.00000
     21      36.1505      0.00000
     22      37.6781      0.00000
     23      38.0322      0.00000
     24      41.1618      0.00000
     25      48.1221      0.00000
     26      49.6080      0.00000
     27      50.5985      0.00000
     28      53.7039      0.00000
     29      53.8283      0.00000
     30      54.2989      0.00000
     31      56.3406      0.00000
     32      57.6605      0.00000
     33      57.7307      0.00000
     34      59.4637      0.00000
     35      61.4133      0.00000
     36      62.8180      0.00000
     37      62.9996      0.00000
     38      64.1617      0.00000
     39      65.9450      0.00000
     40      66.3130      0.00000

 k-point     6 :       0.4545    0.0000    0.0000
  band No.  band energies     occupation 
      1       2.2311      2.00000
      2       2.4323      2.00000
      3       2.6235      2.00000
      4       4.8582      2.00000
      5       5.0607      2.00000
      6       5.4026      2.00000
      7       5.4391      2.00000
      8       7.5623     -0.00000
      9       7.8961     -0.00000
     10       8.0010     -0.00000
     11       9.0635     -0.00000
     12      12.4327      0.00000
     13      16.5963      0.00000
     14      17.9487      0.00000
     15      20.8401      0.00000
     16      22.7062      0.00000
     17      24.4673      0.00000
     18      29.9675      0.00000
     19      31.9192      0.00000
     20      34.2844      0.00000
     21      35.9318      0.00000
     22      38.5831      0.00000
     23      40.4158      0.00000
     24      40.8235      0.00000
     25      44.7614      0.00000
     26      49.8903      0.00000
     27      51.7331      0.00000
     28      55.7081      0.00000
     29      56.2943      0.00000
     30      56.9922      0.00000
     31      57.8571      0.00000
     32      59.5049      0.00000
     33      59.9253      0.00000
     34      61.0882      0.00000
     35      61.8552      0.00000
     36      62.3259      0.00000
     37      64.6417      0.00000
     38      65.0977      0.00000
     39      65.5208      0.00000
     40      66.3002      0.00000

 k-point     7 :       0.0909    0.0909    0.0000
  band No.  band energies     occupation 
      1      -1.1131      2.00000
      2       2.4776      2.00000
      3       4.4244      2.00000
      4       4.4477      2.00000
      5       5.1641      2.00000
      6       5.1722      2.00000
      7       5.7820      2.00000
      8       5.9405      2.00000
      9       6.0511      2.00001
     10       6.3187      2.01071
     11       7.5044     -0.00000
     12       9.8074     -0.00000
     13      13.8598      0.00000
     14      26.7748      0.00000
     15      27.9818      0.00000
     16      30.7154      0.00000
     17      32.1191      0.00000
     18      33.5785      0.00000
     19      33.8023      0.00000
     20      35.0051      0.00000
     21      35.8706      0.00000
     22      40.5041      0.00000
     23      40.8323      0.00000
     24      41.3861      0.00000
     25      42.5068      0.00000
     26      42.6949      0.00000
     27      42.9716      0.00000
     28      49.0552      0.00000
     29      50.9219      0.00000
     30      50.9471      0.00000
     31      51.1432      0.00000
     32      55.1396      0.00000
     33      56.4837      0.00000
     34      57.1304      0.00000
     35      58.1237      0.00000
     36      59.5245      0.00000
     37      60.6741      0.00000
     38      63.7931      0.00000
     39      65.1445      0.00000
     40      65.4195      0.00000

 k-point     8 :       0.1818    0.0909    0.0000
  band No.  band energies     occupation 
      1       0.0419      2.00000
      2       3.0423      2.00000
      3       3.6638      2.00000
      4       4.1650      2.00000
      5       4.8600      2.00000
      6       5.5094      2.00000
      7       5.5953      2.00000
      8       6.0700      2.00002
      9       6.4738      2.06729
     10       6.7573      0.87343
     11       7.4981     -0.00000
     12      11.6166     -0.00000
     13      14.0836      0.00000
     14      23.0576      0.00000
     15      25.6532      0.00000
     16      28.6253      0.00000
     17      30.7402      0.00000
     18      31.1416      0.00000
     19      34.1165      0.00000
     20      34.1682      0.00000
     21      35.3243      0.00000
     22      39.5613      0.00000
     23      40.1656      0.00000
     24      41.1866      0.00000
     25      44.2923      0.00000
     26      45.2971      0.00000
     27      47.2860      0.00000
     28      50.9455      0.00000
     29      53.1808      0.00000
     30      53.5076      0.00000
     31      53.9719      0.00000
     32      55.9374      0.00000
     33      57.0497      0.00000
     34      57.0755      0.00000
     35      58.1618      0.00000
     36      58.6837      0.00000
     37      61.5946      0.00000
     38      64.1210      0.00000
     39      65.7305      0.00000
     40      65.7669      0.00000

 k-point     9 :       0.2727    0.0909    0.0000
  band No.  band energies     occupation 
      1       1.4005      2.00000
      2       3.0015      2.00000
      3       3.1012      2.00000
      4       4.2367      2.00000
      5       4.9223      2.00000
      6       5.1430      2.00000
      7       5.7162      2.00000
      8       6.3538      2.01918
      9       7.2289     -0.00310
     10       7.4825     -0.00000
     11       7.6730     -0.00000
     12      13.6961      0.00000
     13      14.4747      0.00000
     14      19.3477      0.00000
     15      23.9609      0.00000
     16      25.2036      0.00000
     17      27.7429      0.00000
     18      29.6378      0.00000
     19      33.3193      0.00000
     20      34.5861      0.00000
     21      35.6408      0.00000
     22      39.0932      0.00000
     23      39.5531      0.00000
     24      42.3852      0.00000
     25      46.2081      0.00000
     26      48.9416      0.00000
     27      50.1153      0.00000
     28      50.3088      0.00000
     29      52.3095      0.00000
     30      54.4700      0.00000
     31      55.6417      0.00000
     32      57.3764      0.00000
     33      58.3175      0.00000
     34      58.9356      0.00000
     35      60.5810      0.00000
     36      62.5238      0.00000
     37      63.7564      0.00000
     38      64.0465      0.00000
     39      64.6578      0.00000
     40      66.0845      0.00000

 k-point    10 :       0.3636    0.0909    0.0000
  band No.  band energies     occupation 
      1       2.2797      2.00000
      2       2.6943      2.00000
      3       2.7710      2.00000
      4       4.6213      2.00000
      5       4.9075      2.00000
      6       5.2984      2.00000
      7       5.4173      2.00000
      8       7.2654     -0.00136
      9       7.4627     -0.00000
     10       7.7457     -0.00000
     11       8.8459     -0.00000
     12      13.8111      0.00000
     13      15.9054      0.00000
     14      17.7602      0.00000
     15      22.2008      0.00000
     16      22.6224      0.00000
     17      24.5165      0.00000
     18      28.7731      0.00000
     19      32.3849      0.00000
     20      34.0899      0.00000
     21      37.0506      0.00000
     22      39.4961      0.00000
     23      40.2751      0.00000
     24      41.8461      0.00000
     25      46.7558      0.00000
     26      48.9046      0.00000
     27      50.4280      0.00000
     28      52.4471      0.00000
     29      53.8246      0.00000
     30      56.0800      0.00000
     31      57.2124      0.00000
     32      58.9509      0.00000
     33      59.9102      0.00000
     34      61.9623      0.00000
     35      62.0908      0.00000
     36      63.2242      0.00000
     37      63.7143      0.00000
     38      64.7741      0.00000
     39      65.7686      0.00000
     40      66.4843      0.00000

 k-point    11 :       0.4545    0.0909    0.0000
  band No.  band energies     occupation 
      1       2.4560      2.00000
      2       2.5776      2.00000
      3       2.6633      2.00000
      4       4.8276      2.00000
      5       5.0107      2.00000
      6       5.2984      2.00000
      7       5.3974      2.00000
      8       7.4531     -0.00001
      9       7.7889     -0.00000
     10       7.8141     -0.00000
     11      10.0554     -0.00000
     12      12.1534     -0.00000
     13      17.4179      0.00000
     14      18.3993      0.00000
     15      20.4172      0.00000
     16      21.6781      0.00000
     17      23.1558      0.00000
     18      28.4646      0.00000
     19      31.9982      0.00000
[...]
     18      26.4230      0.00000
     19      31.7215      0.00000
     20      32.5653      0.00000
     21      35.6843      0.00000
     22      36.1840      0.00000
     23      41.1857      0.00000
     24      42.3235      0.00000
     25      47.9332      0.00000
     26      49.6707      0.00000
     27      51.8612      0.00000
     28      52.8023      0.00000
     29      54.8453      0.00000
     30      56.6808      0.00000
     31      58.8415      0.00000
     32      58.9303      0.00000
     33      60.7685      0.00000
     34      61.2102      0.00000
     35      62.2833      0.00000
     36      62.6952      0.00000
     37      63.6761      0.00000
     38      63.9587      0.00000
     39      65.9719      0.00000
     40      66.4828      0.00000

 k-point    91 :       0.4545    0.0909    0.4545
  band No.  band energies     occupation 
      1       2.1387      2.00000
      2       2.2727      2.00000
      3       3.4593      2.00000
      4       3.5355      2.00000
      5       5.7355      2.00000
      6       6.1183      2.00009
      7       6.7421      1.00128
      8       7.0382     -0.05709
      9       7.6275     -0.00000
     10       7.6635     -0.00000
     11       9.9797     -0.00000
     12      10.4507     -0.00000
     13      16.2155      0.00000
     14      16.2520      0.00000
     15      24.4786      0.00000
     16      25.1927      0.00000
     17      25.9548      0.00000
     18      26.4079      0.00000
     19      31.3026      0.00000
     20      31.6221      0.00000
     21      35.1162      0.00000
     22      35.1864      0.00000
     23      41.2413      0.00000
     24      42.4009      0.00000
     25      48.0330      0.00000
     26      49.7593      0.00000
     27      54.4058      0.00000
     28      55.9092      0.00000
     29      56.6026      0.00000
     30      56.9396      0.00000
     31      57.2533      0.00000
     32      57.5533      0.00000
     33      61.2709      0.00000
     34      61.3841      0.00000
     35      63.4207      0.00000
     36      63.5203      0.00000
     37      64.2384      0.00000
     38      64.3190      0.00000
     39      66.8940      0.00000
     40      67.2986      0.00000

 k-point    92 :       0.1818    0.1818    0.4545
  band No.  band energies     occupation 
      1       2.1137      2.00000
      2       2.3888      2.00000
      3       4.0077      2.00000
      4       4.0677      2.00000
      5       4.4989      2.00000
      6       4.5473      2.00000
      7       6.0855      2.00003
      8       6.3100      2.00917
      9       7.4175     -0.00002
     10       7.5649     -0.00000
     11       8.0341     -0.00000
     12       8.5249     -0.00000
     13      22.2289      0.00000
     14      22.5179      0.00000
     15      23.0801      0.00000
     16      23.8936      0.00000
     17      24.3845      0.00000
     18      25.3608      0.00000
     19      35.7827      0.00000
     20      36.8660      0.00000
     21      37.6094      0.00000
     22      38.7051      0.00000
     23      40.0762      0.00000
     24      40.2361      0.00000
     25      46.1847      0.00000
     26      46.5815      0.00000
     27      50.2968      0.00000
     28      51.4803      0.00000
     29      53.0864      0.00000
     30      53.8706      0.00000
     31      55.8034      0.00000
     32      56.3885      0.00000
     33      58.5181      0.00000
     34      58.6641      0.00000
     35      60.4861      0.00000
     36      60.7515      0.00000
     37      63.4680      0.00000
     38      64.5259      0.00000
     39      65.5930      0.00000
     40      65.9706      0.00000

 k-point    93 :       0.2727    0.1818    0.4545
  band No.  band energies     occupation 
      1       2.5341      2.00000
      2       2.6389      2.00000
      3       3.8168      2.00000
      4       3.9965      2.00000
      5       4.8196      2.00000
      6       4.9549      2.00000
      7       5.9802      2.00000
      8       6.2035      2.00093
      9       7.5144     -0.00000
     10       7.7680     -0.00000
     11       9.5110     -0.00000
     12      10.0078     -0.00000
     13      19.2925      0.00000
     14      19.8462      0.00000
     15      22.0010      0.00000
     16      22.7101      0.00000
     17      24.6438      0.00000
     18      26.3048      0.00000
     19      33.4772      0.00000
     20      35.0657      0.00000
     21      36.0894      0.00000
     22      37.5952      0.00000
     23      40.9746      0.00000
     24      41.4340      0.00000
     25      47.6821      0.00000
     26      48.1969      0.00000
     27      51.4191      0.00000
     28      53.3103      0.00000
     29      54.9381      0.00000
     30      56.6631      0.00000
     31      57.7858      0.00000
     32      58.5744      0.00000
     33      59.9823      0.00000
     34      60.1311      0.00000
     35      61.3607      0.00000
     36      61.6240      0.00000
     37      62.8423      0.00000
     38      63.9015      0.00000
     39      65.8880      0.00000
     40      66.1971      0.00000

 k-point    94 :       0.3636    0.1818    0.4545
  band No.  band energies     occupation 
      1       2.5903      2.00000
      2       2.7304      2.00000
      3       3.7197      2.00000
      4       3.8892      2.00000
      5       4.9523      2.00000
      6       5.2526      2.00000
      7       6.2842      2.00561
      8       6.3936      2.03340
      9       7.4903     -0.00000
     10       7.6552     -0.00000
     11      11.2110     -0.00000
     12      11.6344     -0.00000
     13      16.6788      0.00000
     14      17.0467      0.00000
     15      21.4007      0.00000
     16      22.1211      0.00000
     17      26.2334      0.00000
     18      27.3118      0.00000
     19      31.7751      0.00000
     20      32.8208      0.00000
     21      35.1968      0.00000
     22      36.6942      0.00000
     23      41.5624      0.00000
     24      41.9301      0.00000
     25      51.0816      0.00000
     26      51.8082      0.00000
     27      51.9785      0.00000
     28      53.5650      0.00000
     29      55.6643      0.00000
     30      56.3427      0.00000
     31      56.7442      0.00000
     32      57.9357      0.00000
     33      60.1212      0.00000
     34      60.7671      0.00000
     35      62.3014      0.00000
     36      63.0880      0.00000
     37      64.5281      0.00000
     38      64.5437      0.00000
     39      65.4314      0.00000
     40      65.8085      0.00000

 k-point    95 :       0.2727    0.2727    0.4545
  band No.  band energies     occupation 
      1       2.9846      2.00000
      2       3.0337      2.00000
      3       3.9242      2.00000
      4       4.1334      2.00000
      5       4.5160      2.00000
      6       4.7111      2.00000
      7       5.8658      2.00000
      8       6.0585      2.00001
      9       7.5033     -0.00000
     10       7.6834     -0.00000
     11      11.6238     -0.00000
     12      12.1317     -0.00000
     13      17.8058      0.00000
     14      18.2139      0.00000
     15      19.5295      0.00000
     16      19.9107      0.00000
     17      26.3849      0.00000
     18      27.9486      0.00000
     19      31.8984      0.00000
     20      33.2313      0.00000
     21      34.9088      0.00000
     22      35.9652      0.00000
     23      43.9772      0.00000
     24      44.3777      0.00000
     25      47.9967      0.00000
     26      48.0994      0.00000
     27      54.0892      0.00000
     28      55.2758      0.00000
     29      55.8652      0.00000
     30      56.3454      0.00000
     31      58.0458      0.00000
     32      58.1822      0.00000
     33      59.1465      0.00000
     34      59.1541      0.00000
     35      60.9582      0.00000
     36      61.8334      0.00000
     37      64.2876      0.00000
     38      64.5364      0.00000
     39      65.4572      0.00000
     40      65.5574      0.00000

 k-point    96 :       0.3636    0.2727    0.4545
  band No.  band energies     occupation 
      1       3.1886      2.00000
      2       3.3103      2.00000
      3       3.8706      2.00000
      4       3.9625      2.00000
      5       4.5092      2.00000
      6       4.6350      2.00000
      7       5.9144      2.00000
      8       6.0598      2.00002
      9       7.4840     -0.00000
     10       7.5490     -0.00000
     11      13.4443      0.00000
     12      13.5758      0.00000
     13      16.1202      0.00000
     14      16.4351      0.00000
     15      18.8810      0.00000
     16      19.3224      0.00000
     17      28.1005      0.00000
     18      28.7678      0.00000
     19      30.9317      0.00000
     20      31.2860      0.00000
     21      34.6134      0.00000
     22      35.4214      0.00000
     23      45.1021      0.00000
     24      45.7267      0.00000
     25      49.8081      0.00000
     26      50.2353      0.00000
     27      52.2508      0.00000
     28      52.6407      0.00000
     29      55.6510      0.00000
     30      56.5476      0.00000
     31      58.1007      0.00000
     32      58.9439      0.00000
     33      59.0981      0.00000
     34      59.7480      0.00000
     35      60.9367      0.00000
     36      61.9769      0.00000
     37      63.4627      0.00000
     38      63.5511      0.00000
     39      67.0007      0.00000
     40      67.0632      0.00000


--------------------------------------------------------------------------------------------------------


 soft charge-density along one line, spin component           1
         0         1         2         3         4         5         6         7         8         9
x     7.7697    0.0000    0.1029   -0.1781   -0.0590   -0.1022    0.0174    0.0000    0.0017   -0.0029
x     0.0000    0.0000
y     7.7697    0.0000    0.1029    0.1781   -0.0590    0.1022    0.0174   -0.0000    0.0017    0.0029
y     0.0000    0.0000
z     7.7697    0.0000    0.0000   -0.0000    0.5621    0.0000    0.0000    0.0000   -0.1726   -0.0000
z     0.0000   -0.0000    0.0149   -0.0000    0.0000    0.0000    0.0084   -0.0000    0.0000    0.0000
 total charge-density along one line
x    16.0000    0.0000    1.4951   -2.5897    0.3121    0.5406    0.0359    0.0000    0.0007   -0.0013
x     0.0003    0.0005   -0.0006    0.0000    0.0001   -0.0001   -0.0001   -0.0001    0.0001   -0.0000
x    -0.0000    0.0000
y    16.0000    0.0000    1.4951    2.5897    0.3121   -0.5406    0.0359   -0.0000    0.0007    0.0013
y     0.0003   -0.0005   -0.0006   -0.0000    0.0001    0.0001   -0.0001    0.0001    0.0001    0.0000
y    -0.0000   -0.0000
z    16.0000    0.0000   -0.0000    0.0000    6.2448   -0.0000   -0.0000    0.0000    1.4600   -0.0000
z    -0.0000   -0.0000    0.0653   -0.0000   -0.0000   -0.0000    0.0003   -0.0000   -0.0000   -0.0000
z     0.0034   -0.0000    0.0000   -0.0000   -0.0015   -0.0000    0.0000   -0.0000    0.0008    0.0000
z     0.0000   -0.0000   -0.0005    0.0000   -0.0000    0.0000    0.0004   -0.0000
 
 pseudopotential strength for first ion, spin component:           1
 -4.529   0.000  -0.000  -0.000  -0.000  -5.091   0.000  -0.000
  0.000  -4.521  -0.000  -0.000   0.000   0.000  -5.082  -0.000
 -0.000  -0.000  -4.529   0.000  -0.000  -0.000  -0.000  -5.090
 -0.000  -0.000   0.000  -4.521   0.000  -0.000  -0.000   0.000
 -0.000   0.000  -0.000   0.000  -4.529  -0.000   0.000  -0.000
 -5.091   0.000  -0.000  -0.000  -0.000  -5.609   0.000  -0.000
  0.000  -5.082  -0.000  -0.000   0.000   0.000  -5.601  -0.000
 -0.000  -0.000  -5.090   0.000  -0.000  -0.000  -0.000  -5.609
 -0.000  -0.000   0.000  -5.082   0.000  -0.000  -0.000   0.000
 -0.000   0.000  -0.000   0.000  -5.091  -0.000   0.000  -0.000
  0.000   0.000   0.001  -0.000  -0.000   0.000   0.000   0.001
  0.000   0.000   0.002  -0.000  -0.000   0.000   0.000   0.002
 -0.000  -0.000   0.000   0.000  -0.001  -0.000  -0.000   0.000
  0.000  -0.000  -0.000   0.000   0.000   0.000  -0.000  -0.000
 -0.001   0.000   0.000  -0.000  -0.000  -0.001   0.000   0.000
 -0.000  -0.000   0.000   0.000  -0.001  -0.000  -0.000   0.000
  0.000  -0.000  -0.000   0.000   0.000   0.000  -0.000  -0.000
 -0.001   0.000   0.000  -0.000  -0.000  -0.001   0.000   0.000
 total augmentation occupancy for first ion, spin component:           1
  1.579   0.000   0.000   0.000  -0.000  -0.900   0.000  -0.000   0.000   0.000   0.000  -0.000   0.000  -0.000   0.032  -0.000
  0.000   2.089   0.000  -0.000  -0.000   0.000  -1.157  -0.000   0.000   0.000   0.000   0.000   0.000   0.000   0.000   0.000
  0.000   0.000   1.290  -0.000  -0.000  -0.000  -0.000  -0.647  -0.000   0.000   0.050  -0.012   0.000   0.000   0.000   0.000
  0.000  -0.000   0.000   2.089   0.000   0.000   0.000   0.000  -1.157   0.000  -0.000   0.000  -0.000  -0.000   0.000   0.000
 -0.000   0.000  -0.000  -0.000   1.579   0.000   0.000   0.000  -0.000  -0.900  -0.000   0.000   0.032   0.000  -0.000  -0.002
 -0.900   0.000  -0.000   0.000   0.000   1.588   0.000   0.000   0.000  -0.000   0.000   0.000  -0.000   0.000  -0.045   0.000
  0.000  -1.157  -0.000   0.000   0.000  -0.000   1.561   0.000  -0.000   0.000   0.000  -0.000  -0.000   0.000  -0.000   0.000
 -0.000  -0.000  -0.647   0.000   0.000   0.000  -0.000   1.353  -0.000  -0.000  -0.134   0.012   0.000   0.000  -0.000  -0.000
  0.000   0.000   0.000  -1.157  -0.000  -0.000  -0.000   0.000   1.561  -0.000   0.000   0.000   0.000   0.000  -0.000   0.000
  0.000   0.000   0.000   0.000  -0.900  -0.000  -0.000  -0.000  -0.000   1.588   0.000  -0.000  -0.045   0.000   0.000   0.003
  0.000   0.000   0.050   0.000  -0.000   0.000  -0.000  -0.134   0.000   0.000   2.622  -0.298   0.000   0.000  -0.000   0.000
 -0.000   0.000  -0.012   0.000   0.000   0.000   0.000   0.012   0.000  -0.000  -0.298   0.038   0.000   0.000   0.000  -0.000
  0.000   0.000  -0.000  -0.000   0.032  -0.000   0.000   0.000   0.000  -0.045   0.000   0.000   0.345  -0.000  -0.000  -0.028
 -0.000  -0.000   0.000   0.000  -0.000  -0.000  -0.000   0.000   0.000   0.000   0.000   0.000   0.000   0.318   0.000   0.000
  0.032  -0.000   0.000   0.000  -0.000  -0.045   0.000  -0.000   0.000   0.000   0.000  -0.000  -0.000   0.000   0.345   0.000
 -0.000   0.000   0.000   0.000  -0.002   0.000  -0.000  -0.000   0.000   0.003   0.000   0.000  -0.028   0.000   0.000   0.003
 -0.000   0.000   0.000   0.000  -0.000  -0.000   0.000   0.000   0.000   0.000   0.000   0.000  -0.000  -0.029  -0.000   0.000
 -0.002  -0.000  -0.000   0.000   0.000   0.003   0.000   0.000   0.000  -0.000   0.000   0.000   0.000  -0.000  -0.028  -0.000


------------------------ aborting loop because EDIFF is reached ----------------------------------------


    CHARGE:  cpu time    0.0199: real time    0.0199
    FORLOC:  cpu time    0.0002: real time    0.0002
    FORNL :  cpu time    0.0984: real time    0.0984
    STRESS:  cpu time    0.1464: real time    0.1464
    FORCOR:  cpu time    0.0034: real time    0.0034
    FORHAR:  cpu time    0.0008: real time    0.0008
    MIXING:  cpu time    0.0002: real time    0.0002

  FORCE on cell =-STRESS in cart. coord.  units (eV):
  Direction    XX          YY          ZZ          XY          YZ          ZX
  --------------------------------------------------------------------------------------
  Alpha Z   133.80625   133.80625   133.80625
  Ewald    -390.45644  -390.45644  -439.91472     0.00000     0.00000     0.00000
  Hartree    64.86645    64.86645    45.84138    -0.00000    -0.00000    -0.00000
  E(xc)     -78.48078   -78.48084   -78.20970     0.00028    -0.00000    -0.00000
  Local      99.15262    99.15285   165.16697    -0.00092     0.00000    -0.00000
  n-local   -53.02305   -52.18021   -54.90982    -3.89248     1.38048     0.90014
  augment    75.77219    75.77150    76.08549     0.00121    -0.00000    -0.00000
  Kinetic   152.88015   146.49611   147.54193     1.53562    -0.90961     0.23053
  Fock        0.00000     0.00000     0.00000     0.00000     0.00000     0.00000
  -------------------------------------------------------------------------------------
  Total       1.74654     1.74654    -4.59222    -0.00000    -0.00000     0.00000
  in kB     135.43774   135.43774  -356.11101    -0.00000    -0.00000     0.00000
  external pressure =      -28.41 kB  Pullay stress =        0.00 kB


 VOLUME and BASIS-vectors are now :
 -----------------------------------------------------------------------------
  energy-cutoff  :      280.00
  volume of cell :       20.66
      direct lattice vectors                 reciprocal lattice vectors
     2.376600000  0.000000000  0.000000000     0.420769166  0.242931191  0.000000000
    -1.188300000  2.058195975  0.000000000     0.000000000  0.485862383  0.000000000
     0.000000000  0.000000000  4.223820000     0.000000000  0.000000000  0.236752513

  length of vectors
     2.376600000  2.376600000  4.223820000     0.485862383  0.485862383  0.236752513


 FORCES acting on ions
    electron-ion (+dipol)            ewald-force                    non-local-force                 convergence-correction
 -----------------------------------------------------------------------------------------------
   0.228E-06 -.916E-06 0.404E-14   0.565E-12 -.318E-12 -.256E-13   0.468E-17 0.542E-19 -.131E-18   -.401E-08 0.220E-08 0.864E-14
   -.197E-05 0.877E-05 0.269E-12   -.562E-12 0.323E-12 0.256E-13   -.275E-17 0.608E-18 -.111E-18   0.417E-08 -.230E-08 0.635E-13
 -----------------------------------------------------------------------------------------------
   -.174E-05 0.785E-05 0.273E-12   0.359E-14 0.543E-14 0.125E-16   0.193E-17 0.663E-18 -.242E-18   0.161E-09 -.998E-10 0.722E-13
 
 
 POSITION                                       TOTAL-FORCE (eV/Angst)
 -----------------------------------------------------------------------------------
      0.00000      0.00000      0.00000        -0.000000     -0.000000      0.000000
      0.00000      1.37213      2.11191         0.000000      0.000000     -0.000000
 -----------------------------------------------------------------------------------
    total drift:                               -0.000002      0.000008      0.000000


--------------------------------------------------------------------------------------------------------



  FREE ENERGIE OF THE ION-ELECTRON SYSTEM (eV)
  ---------------------------------------------------
  free  energy   TOTEN  =       -16.06329244 eV

  energy  without entropy=      -16.06627307  energy(sigma->0) =      -16.06428598
 


--------------------------------------------------------------------------------------------------------


    POTLOK:  cpu time    0.0056: real time    0.0056


--------------------------------------------------------------------------------------------------------


 writing wavefunctions
     LOOP+:  cpu time   10.0242: real time   10.0453
    4ORBIT:  cpu time    0.0000: real time    0.0000

 total amount of memory used by VASP MPI-rank0    50222. kBytes
=======================================================================

   base      :      30000. kBytes
   nonl-proj :       3159. kBytes
   grid      :        812. kBytes
   one-center:         31. kBytes
   wavefun   :      16220. kBytes
 
  
  
 General timing and accounting informations for this job:
 ========================================================
  
                  Total CPU time used (sec):       10.202
                            User time (sec):       10.158
                          System time (sec):        0.044
                         Elapsed time (sec):       10.212
  
                   Maximum memory used (kb):       55748.
                   Average memory used (kb):          N/A
  
                          Minor page faults:         7594
                          Major page faults:            0
                 Voluntary context switches:           26
