<?xml version="1.0" encoding="ISO-8859-1"?>
<modeling>
 <generator>
  <i name="program" type="string">vasp </i>
  <i name="version" type="string">6.2.0  </i>
  <i name="subversion" type="string">18Jan21 (build Mar 17 2021 09:06:54) complex                          serial </i>
  <i name="platform" type="string">LinuxIFC </i>
  <i name="date" type="string">2021 09 09 </i>
  <i name="time" type="string">12:07:36 </i>
 </generator>
 <incar>
  <i type="string" name="PREC">normal</i>
  <i type="int" name="ICHARG">     1</i>
  <i type="int" name="IBRION">     1</i>
  <i name="EDIFF">      0.00000100</i>
  <i type="int" name="NSW">     0</i>
  <i type="int" name="ISIF">     2</i>
  <i name="ENCUT">    280.00000000</i>
  <i type="int" name="NBANDS">    40</i>
  <i type="int" name="ISMEAR">     1</i>
  <i name="SIGMA">      0.20000000</i>
  <i type="logical" name="LCHARG"> T  </i>
  <i type="int" name="KPAR">     1</i>
  <i type="int" name="NCORE">     1</i>
  <i type="string" name="GGA">PE</i>
 </incar>
 <primitive_cell>
  <structure name="primitive_cell" >
   <crystal>
    <varray name="basis" >
     <v>       2.37660000       0.00000000       0.00000000 </v>
     <v>      -1.18830000       2.05819597       0.00000000 </v>
     <v>       0.00000000       0.00000000       4.22382000 </v>
    </varray>
    <i name="volume">     20.66085166 </i>
    <varray name="rec_basis" >
     <v>       0.42076917       0.24293119       0.00000000 </v>
     <v>       0.00000000       0.48586238       0.00000000 </v>
     <v>       0.00000000       0.00000000       0.23675251 </v>
    </varray>
   </crystal>
   <varray name="positions" >
    <v>       0.00000000       0.00000000       0.00000000 </v>
    <v>       0.33333333       0.66666667       0.50000000 </v>
   </varray>
  </structure>
  <varray name="primitive_index" >
   <v type="int" >        1 </v>
   <v type="int" >        2 </v>
  </varray>
 </primitive_cell>
 <kpoints>
  <generation param="Monkhorst-Pack">
   <v type="int" name="divisions">      11       11       11 </v>
   <v name="usershift">      0.00000000       0.00000000       0.00000000 </v>
   <v name="genvec1">      0.09090909      -0.00000000       0.00000000 </v>
   <v name="genvec2">      0.00000000       0.09090909       0.00000000 </v>
   <v name="genvec3">      0.00000000       0.00000000       0.09090909 </v>
   <v name="shift">      0.00000000       0.00000000       0.00000000 </v>
  </generation>
  <varray name="kpointlist" >
   <v>       0.00000000       0.00000000       0.00000000 </v>
   <v>       0.09090909       0.00000000       0.00000000 </v>
   <v>       0.18181818       0.00000000       0.00000000 </v>
   <v>       0.27272727       0.00000000       0.00000000 </v>
   <v>       0.36363636       0.00000000       0.00000000 </v>
   <v>       0.45454545       0.00000000       0.00000000 </v>
   <v>       0.09090909       0.09090909       0.00000000 </v>
   <v>       0.18181818       0.09090909       0.00000000 </v>
   <v>       0.27272727       0.09090909       0.00000000 </v>
   <v>       0.36363636       0.09090909       0.00000000 </v>
   <v>       0.45454545       0.09090909       0.00000000 </v>
   <v>       0.18181818       0.18181818       0.00000000 </v>
   <v>       0.27272727       0.18181818       0.00000000 </v>
   <v>       0.36363636       0.18181818       0.00000000 </v>
   <v>       0.27272727       0.27272727       0.00000000 </v>
   <v>       0.36363636       0.27272727       0.00000000 </v>
   <v>       0.00000000       0.00000000       0.09090909 </v>
   <v>       0.09090909       0.00000000       0.09090909 </v>
   <v>       0.18181818       0.00000000       0.09090909 </v>
   <v>       0.27272727       0.00000000       0.09090909 </v>
   <v>       0.36363636       0.00000000       0.09090909 </v>
   <v>       0.45454545       0.00000000       0.09090909 </v>
   <v>       0.09090909       0.09090909       0.09090909 </v>
   <v>       0.18181818       0.09090909       0.09090909 </v>
   <v>       0.27272727       0.09090909       0.09090909 </v>
   <v>       0.36363636       0.09090909       0.09090909 </v>
   <v>       0.45454545       0.09090909       0.09090909 </v>
   <v>       0.18181818       0.18181818       0.09090909 </v>
   <v>       0.27272727       0.18181818       0.09090909 </v>
   <v>       0.36363636       0.18181818       0.09090909 </v>
   <v>       0.27272727       0.27272727       0.09090909 </v>
   <v>       0.36363636       0.27272727       0.09090909 </v>
   <v>       0.00000000       0.00000000       0.18181818 </v>
   <v>       0.09090909       0.00000000       0.18181818 </v>
   <v>       0.18181818       0.00000000       0.18181818 </v>
   <v>       0.27272727       0.00000000       0.18181818 </v>
   <v>       0.36363636       0.00000000       0.18181818 </v>
   <v>       0.45454545       0.00000000       0.18181818 </v>
   <v>       0.09090909       0.09090909       0.18181818 </v>
   <v>       0.18181818       0.09090909       0.18181818 </v>
   <v>       0.27272727       0.09090909       0.18181818 </v>
   <v>       0.36363636       0.09090909       0.18181818 </v>
   <v>       0.45454545       0.09090909       0.18181818 </v>
   <v>       0.18181818       0.18181818       0.18181818 </v>
   <v>       0.27272727       0.18181818       0.18181818 </v>
   <v>       0.36363636       0.18181818       0.18181818 </v>
   <v>       0.27272727       0.27272727       0.18181818 </v>
   <v>       0.36363636       0.27272727       0.18181818 </v>
   <v>       0.00000000       0.00000000       0.27272727 </v>
   <v>       0.09090909       0.00000000       0.27272727 </v>
   <v>       0.18181818       0.00000000       0.27272727 </v>
   <v>       0.27272727       0.00000000       0.27272727 </v>
   <v>       0.36363636       0.00000000       0.27272727 </v>
   <v>       0.45454545       0.00000000       0.27272727 </v>
   <v>       0.09090909       0.09090909       0.27272727 </v>
   <v>       0.18181818       0.09090909       0.27272727 </v>
   <v>       0.27272727       0.09090909       0.27272727 </v>
   <v>       0.36363636       0.09090909       0.27272727 </v>
   <v>       0.45454545       0.09090909       0.27272727 </v>
   <v>       0.18181818       0.18181818       0.27272727 </v>
   <v>       0.27272727       0.18181818       0.27272727 </v>
   <v>       0.36363636       0.18181818       0.27272727 </v>
   <v>       0.27272727       0.27272727       0.27272727 </v>
   <v>       0.36363636       0.27272727       0.27272727 </v>
   <v>       0.00000000       0.00000000       0.36363636 </v>
   <v>       0.09090909       0.00000000       0.36363636 </v>
   <v>       0.18181818       0.00000000       0.36363636 </v>
   <v>       0.27272727       0.00000000       0.36363636 </v>
   <v>       0.36363636       0.00000000       0.36363636 </v>
   <v>       0.45454545       0.00000000       0.36363636 </v>
   <v>       0.09090909       0.09090909       0.36363636 </v>
   <v>       0.18181818       0.09090909       0.36363636 </v>
   <v>       0.27272727       0.09090909       0.36363636 </v>
   <v>       0.36363636       0.09090909       0.36363636 </v>
   <v>       0.45454545       0.09090909       0.36363636 </v>
   <v>       0.18181818       0.18181818       0.36363636 </v>
   <v>       0.27272727       0.18181818       0.36363636 </v>
   <v>       0.36363636       0.18181818       0.36363636 </v>
   <v>       0.27272727       0.27272727       0.36363636 </v>
   <v>       0.36363636       0.27272727       0.36363636 </v>
   <v>       0.00000000       0.00000000       0.45454545 </v>
   <v>       0.09090909       0.00000000       0.45454545 </v>
   <v>       0.18181818       0.00000000       0.45454545 </v>
   <v>       0.27272727       0.00000000       0.45454545 </v>
   <v>       0.36363636       0.00000000       0.45454545 </v>
   <v>       0.45454545       0.00000000       0.45454545 </v>
   <v>       0.09090909       0.09090909       0.45454545 </v>
   <v>       0.18181818       0.09090909       0.45454545 </v>
   <v>       0.27272727       0.09090909       0.45454545 </v>
   <v>       0.36363636       0.09090909       0.45454545 </v>
   <v>       0.45454545       0.09090909       0.45454545 </v>
   <v>       0.18181818       0.18181818       0.45454545 </v>
   <v>       0.27272727       0.18181818       0.45454545 </v>
   <v>       0.36363636       0.18181818       0.45454545 </v>
   <v>       0.27272727       0.27272727       0.45454545 </v>
   <v>       0.36363636       0.27272727       0.45454545 </v>
  </varray>
  <varray name="weights" >
   <v>       0.00075131 </v>
   <v>       0.00450789 </v>
   <v>       0.00450789 </v>
   <v>       0.00450789 </v>
   <v>       0.00450789 </v>
   <v>       0.00450789 </v>
   <v>       0.00450789 </v>
   <v>       0.00901578 </v>
   <v>       0.00901578 </v>
   <v>       0.00901578 </v>
   <v>       0.00450789 </v>
   <v>       0.00450789 </v>
   <v>       0.00901578 </v>
   <v>       0.00901578 </v>
   <v>       0.00450789 </v>
   <v>       0.00450789 </v>
   <v>       0.00150263 </v>
   <v>       0.00901578 </v>
   <v>       0.00901578 </v>
   <v>       0.00901578 </v>
   <v>       0.00901578 </v>
   <v>       0.00901578 </v>
   <v>       0.00901578 </v>
   <v>       0.01803156 </v>
   <v>       0.01803156 </v>
   <v>       0.01803156 </v>
   <v>       0.00901578 </v>
   <v>       0.00901578 </v>
   <v>       0.01803156 </v>
   <v>       0.01803156 </v>
   <v>       0.00901578 </v>
   <v>       0.00901578 </v>
   <v>       0.00150263 </v>
   <v>       0.00901578 </v>
   <v>       0.00901578 </v>
   <v>       0.00901578 </v>
   <v>       0.00901578 </v>
   <v>       0.00901578 </v>
   <v>       0.00901578 </v>
   <v>       0.01803156 </v>
   <v>       0.01803156 </v>
   <v>       0.01803156 </v>
   <v>       0.00901578 </v>
   <v>       0.00901578 </v>
   <v>       0.01803156 </v>
   <v>       0.01803156 </v>
   <v>       0.00901578 </v>
   <v>       0.00901578 </v>
   <v>       0.00150263 </v>
   <v>       0.00901578 </v>
   <v>       0.00901578 </v>
   <v>       0.00901578 </v>
   <v>       0.00901578 </v>
   <v>       0.00901578 </v>
   <v>       0.00901578 </v>
   <v>       0.01803156 </v>
   <v>       0.01803156 </v>
   <v>       0.01803156 </v>
   <v>       0.00901578 </v>
   <v>       0.00901578 </v>
   <v>       0.01803156 </v>
   <v>       0.01803156 </v>
   <v>       0.00901578 </v>
   <v>       0.00901578 </v>
   <v>       0.00150263 </v>
   <v>       0.00901578 </v>
   <v>       0.00901578 </v>
   <v>       0.00901578 </v>
   <v>       0.00901578 </v>
   <v>       0.00901578 </v>
   <v>       0.00901578 </v>
   <v>       0.01803156 </v>
   <v>       0.01803156 </v>
   <v>       0.01803156 </v>
   <v>       0.00901578 </v>
   <v>       0.00901578 </v>
   <v>       0.01803156 </v>
   <v>       0.01803156 </v>
   <v>       0.00901578 </v>
   <v>       0.00901578 </v>
   <v>       0.00150263 </v>
   <v>       0.00901578 </v>
   <v>       0.00901578 </v>
   <v>       0.00901578 </v>
   <v>       0.00901578 </v>
   <v>       0.00901578 </v>
   <v>       0.00901578 </v>
   <v>       0.01803156 </v>
   <v>       0.01803156 </v>
   <v>       0.01803156 </v>
   <v>       0.00901578 </v>
   <v>       0.00901578 </v>
   <v>       0.01803156 </v>
   <v>       0.01803156 </v>
   <v>       0.00901578 </v>
   <v>       0.00901578 </v>
  </varray>
 </kpoints>
 <parameters>
  <separator name="general" >
   <i type="string" name="SYSTEM">unknown system</i>
   <i type="logical" name="LCOMPAT"> F  </i>
  </separator>
  <separator name="electronic" >
   <i type="string" name="PREC">normal</i>
   <i name="ENMAX">    280.00000000</i>
   <i name="ENAUG">    511.36800000</i>
   <i name="EDIFF">      0.00000100</i>
   <i type="int" name="IALGO">    38</i>
   <i type="int" name="IWAVPR">     0</i>
   <i type="int" name="NBANDS">    40</i>
   <i type="int" name="NBANDSLOW">    -1</i>
   <i type="int" name="NBANDSHIGH">    -1</i>
   <i name="NELECT">     16.00000000</i>
   <i type="int" name="TURBO">     0</i>
   <i type="int" name="IRESTART">     0</i>
   <i type="int" name="NREBOOT">     0</i>
   <i type="int" name="NMIN">     0</i>
   <i name="EREF">      0.00000000</i>
   <separator name="electronic smearing" >
    <i type="int" name="ISMEAR">     1</i>
    <i name="SIGMA">      0.20000000</i>
    <i name="KSPACING">      0.50000000</i>
    <i type="logical" name="KGAMMA"> T  </i>
    <i type="logical" name="KBLOWUP"> T  </i>
   </separator>
   <separator name="electronic projectors" >
    <i type="logical" name="LREAL"> F  </i>
    <v name="ROPT">      0.00000000</v>
    <i type="int" name="LMAXPAW">  -100</i>
    <i type="int" name="LMAXMIX">     2</i>
    <i type="logical" name="NLSPLINE"> F  </i>
   </separator>
   <separator name="electronic startup" >
    <i type="int" name="ISTART">     0</i>
    <i type="int" name="ICHARG">     1</i>
    <i type="int" name="INIWAV">     1</i>
   </separator>
   <separator name="electronic spin" >
    <i type="int" name="ISPIN">     1</i>
    <i type="logical" name="LNONCOLLINEAR"> F  </i>
    <v name="MAGMOM">      1.00000000      1.00000000</v>
    <i name="NUPDOWN">     -1.00000000</i>
    <i type="logical" name="LSORBIT"> F  </i>
    <v name="SAXIS">      0.00000000      0.00000000      1.00000000</v>
    <i type="logical" name="LSPIRAL"> F  </i>
    <v name="QSPIRAL">      0.00000000      0.00000000      0.00000000</v>
    <i type="logical" name="LZEROZ"> F  </i>
   </separator>
   <separator name="electronic exchange-correlation" >
    <i type="logical" name="LASPH"> F  </i>
    <i type="logical" name="LMETAGGA"> F  </i>
   </separator>
   <separator name="electronic convergence" >
    <i type="int" name="NELM">    60</i>
    <i type="int" name="NELMDL">    -5</i>
    <i type="int" name="NELMIN">     2</i>
    <i name="ENINI">    280.00000000</i>
    <separator name="electronic convergence detail" >
     <i type="logical" name="LDIAG"> T  </i>
     <i type="logical" name="LSUBROT"> F  </i>
     <i name="WEIMIN">      0.00000000</i>
     <i name="EBREAK">      0.00000001</i>
     <i name="DEPER">      0.30000000</i>
     <i type="int" name="NRMM">     4</i>
     <i name="TIME">      0.40000000</i>
    </separator>
   </separator>
   <separator name="electronic mixer" >
    <i name="AMIX">      0.40000000</i>
    <i name="BMIX">      1.00000000</i>
    <i name="AMIN">      0.10000000</i>
    <i name="AMIX_MAG">      1.60000000</i>
    <i name="BMIX_MAG">      1.00000000</i>
    <separator name="electronic mixer details" >
     <i type="int" name="IMIX">     4</i>
     <i type="logical" name="MIXFIRST"> F  </i>
     <i type="int" name="MAXMIX">   -45</i>
     <i name="WC">    100.00000000</i>
     <i type="int" name="INIMIX">     1</i>
     <i type="int" name="MIXPRE">     1</i>
     <i type="int" name="MREMOVE">     5</i>
    </separator>
   </separator>
   <separator name="electronic dipolcorrection" >
    <i type="logical" name="LDIPOL"> F  </i>
    <i type="logical" name="LMONO"> F  </i>
    <i type="int" name="IDIPOL">     0</i>
    <i name="EPSILON">      1.00000000</i>
    <v name="DIPOL">   -100.00000000   -100.00000000   -100.00000000</v>
    <i name="EFIELD">      0.00000000</i>
   </separator>
  </separator>
  <separator name="grids" >
   <i type="int" name="NGX">    10</i>
   <i type="int" name="NGY">    10</i>
   <i type="int" name="NGZ">    18</i>
   <i type="int" name="NGXF">    20</i>
   <i type="int" name="NGYF">    20</i>
   <i type="int" name="NGZF">    36</i>
   <i type="logical" name="ADDGRID"> F  </i>
  </separator>
  <separator name="ionic" >
   <i type="int" name="NSW">     0</i>
   <i type="int" name="IBRION">    -1</i>
   <i type="int" name="MDALGO">     0</i>
   <i type="int" name="ISIF">     2</i>
   <i name="PSTRESS">      0.00000000</i>
   <i name="EDIFFG">      0.00001000</i>
   <i type="int" name="NFREE">     0</i>
   <i name="POTIM">      0.50000000</i>
   <i name="SMASS">     -3.00000000</i>
   <i name="SCALEE">      1.00000000</i>
  </separator>
  <separator name="ionic md" >
   <i name="TEBEG">      0.00010000</i>
   <i name="TEEND">      0.00010000</i>
   <i type="int" name="NBLOCK">     1</i>
   <i type="int" name="KBLOCK">     1</i>
   <i type="int" name="NPACO">   256</i>
   <i name="APACO">     16.00000000</i>
  </separator>
  <separator name="symmetry" >
   <i type="int" name="ISYM">     2</i>
   <i name="SYMPREC">      0.00001000</i>
  </separator>
  <separator name="dos" >
   <i type="int" name="LORBIT">     0</i>
   <v name="RWIGS">     -1.00000000</v>
   <i type="int" name="NEDOS">   301</i>
   <i name="EMIN">     10.00000000</i>
   <i name="EMAX">    -10.00000000</i>
   <i name="EFERMI">      0.00000000</i>
  </separator>
  <separator name="writing" >
   <i type="int" name="NWRITE">     2</i>
   <i type="logical" name="LWAVE"> T  </i>
   <i type="logical" name="LDOWNSAMPLE"> F  </i>
   <i type="logical" name="LCHARG"> T  </i>
   <i type="logical" name="LPARD"> F  </i>
   <i type="logical" name="LVTOT"> F  </i>
   <i type="logical" name="LVHAR"> F  </i>
   <i type="logical" name="LELF"> F  </i>
   <i type="logical" name="LOPTICS"> F  </i>
   <v name="STM">      0.00000000      0.00000000      0.00000000      0.00000000      0.00000000      0.00000000      0.00000000</v>
  </separator>
  <separator name="performance" >
   <i type="int" name="NPAR">     1</i>
   <i type="int" name="NSIM">     4</i>
   <i type="int" name="NBLK">    -1</i>
   <i type="logical" name="LPLANE"> T  </i>
   <i type="logical" name="LSCALAPACK"> F  </i>
   <i type="logical" name="LSCAAWARE"> F  </i>
   <i type="logical" name="LSCALU"> F  </i>
   <i type="logical" name="LASYNC"> F  </i>
   <i type="logical" name="LORBITALREAL"> F  </i>
  </separator>
  <separator name="miscellaneous" >
   <i type="int" name="IDIOT">     3</i>
   <i type="int" name="PHON_NSTRUCT">    -1</i>
   <i type="logical" name="LMUSIC"> F  </i>
   <v name="POMASS">     55.84700000</v>
   <v name="DARWINR">      0.00000000</v>
   <v name="DARWINV">      1.00000000</v>
   <i type="logical" name="LCORR"> T  </i>
  </separator>
  <i type="logical" name="GGA_COMPAT"> T  </i>
  <i type="logical" name="LBERRY"> F  </i>
  <i type="int" name="ICORELEVEL">     0</i>
  <i type="logical" name="LDAU"> F  </i>
  <i type="int" name="I_CONSTRAINED_M">     0</i>
  <separator name="electronic exchange-correlation" >
   <i type="string" name="GGA">PE</i>
   <i type="int" name="VOSKOWN">     0</i>
   <i type="logical" name="LHFCALC"> F  </i>
   <i type="string" name="PRECFOCK"></i>
   <i type="logical" name="LSYMGRAD"> F  </i>
   <i type="logical" name="LHFONE"> F  </i>
   <i type="logical" name="LRHFCALC"> F  </i>
   <i type="logical" name="LTHOMAS"> F  </i>
   <i type="logical" name="LMODELHF"> F  </i>
   <i type="logical" name="LFOCKACE"> F  </i>
   <i name="ENCUT4O">     -1.00000000</i>
   <i type="int" name="EXXOEP">     0</i>
   <i type="int" name="FOURORBIT">     0</i>
   <i name="AEXX">      0.00000000</i>
   <i name="HFALPHA">      0.00000000</i>
   <i name="MCALPHA">      0.00000000</i>
   <i name="ALDAX">      1.00000000</i>
   <i name="AGGAX">      1.00000000</i>
   <i name="ALDAC">      1.00000000</i>
   <i name="AGGAC">      1.00000000</i>
   <i type="int" name="NKREDX">     1</i>
   <i type="int" name="NKREDY">     1</i>
   <i type="int" name="NKREDZ">     1</i>
   <i type="logical" name="SHIFTRED"> F  </i>
   <i type="logical" name="ODDONLY"> F  </i>
   <i type="logical" name="EVENONLY"> F  </i>
   <i type="int" name="LMAXFOCK">     0</i>
   <i type="int" name="NMAXFOCKAE">     0</i>
   <i type="logical" name="LFOCKAEDFT"> F  </i>
   <i name="HFSCREEN">      0.00000000</i>
   <i name="HFSCREENC">      0.00000000</i>
   <i type="int" name="NBANDSGWLOW">     0</i>
  </separator>
  <separator name="vdW DFT" >
   <i type="logical" name="LUSE_VDW"> F  </i>
   <i name="Zab_VDW">     -0.84910000</i>
   <i name="PARAM1">      0.12340000</i>
   <i name="PARAM2">      1.00000000</i>
   <i name="PARAM3">      0.00000000</i>
  </separator>
  <separator name="model GW" >
   <i type="int" name="MODEL_GW">     0</i>
   <i name="MODEL_EPS0">      6.19825550</i>
   <i name="MODEL_ALPHA">      1.00000000</i>
  </separator>
  <separator name="linear response parameters" >
   <i type="logical" name="LEPSILON"> F  </i>
   <i type="logical" name="LRPA"> F  </i>
   <i type="logical" name="LNABLA"> F  </i>
   <i type="logical" name="LVEL"> F  </i>
   <i type="int" name="KINTER">     0</i>
   <i name="CSHIFT">      0.10000000</i>
   <i name="OMEGAMAX">     -1.00000000</i>
   <i name="DEG_THRESHOLD">      0.00200000</i>
   <i name="RTIME">     -0.10000000</i>
   <i name="WPLASMAI">      0.00000000</i>
   <v name="DFIELD">      0.00000000      0.00000000      0.00000000</v>
   <v name="WPLASMA">      0.00000000      0.00000000      0.00000000      0.00000000      0.00000000      0.00000000      0.00000000      0.00000000      0.00000000</v>
  </separator>
  <separator name="orbital magnetization" >
   <i type="logical" name="NUCIND"> F  </i>
   <v name="MAGPOS">      0.00000000      0.00000000      0.00000000</v>
   <i type="logical" name="LNICSALL"> T  </i>
   <i type="logical" name="ORBITALMAG"> F  </i>
   <i type="logical" name="LMAGBLOCH"> F  </i>
   <i type="logical" name="LCHIMAG"> F  </i>
   <i type="logical" name="LGAUGE"> T  </i>
   <i type="int" name="MAGATOM">     0</i>
   <v name="MAGDIPOL">      0.00000000      0.00000000      0.00000000</v>
   <v name="AVECCONST">      0.00000000      0.00000000      0.00000000</v>
  </separator>
  <separator name="response functions" >
   <i type="logical" name="LFINITE_TEMPERATURE"> F  </i>
   <i type="logical" name="LADDER"> F  </i>
   <i type="logical" name="LRPAFORCE"> F  </i>
   <i type="logical" name="LFXC"> F  </i>
   <i type="logical" name="LHARTREE"> T  </i>
   <i type="int" name="IBSE">     0</i>
   <v type="int" name="KPOINT">    -1     0     0     0</v>
   <i type="logical" name="LTCTC"> F  </i>
   <i type="logical" name="LTCTE"> F  </i>
   <i type="logical" name="LTETE"> F  </i>
   <i type="logical" name="LTRIPLET"> F  </i>
   <i type="logical" name="LFXCEPS"> F  </i>
   <i type="logical" name="LFXHEG"> F  </i>
   <i type="int" name="NATURALO">     2</i>
   <i type="logical" name="LHOLEGF"> F  </i>
   <i type="logical" name="L2ORDER"> F  </i>
   <i type="logical" name="LDMP1"> F  </i>
   <i type="logical" name="LMP2LT"> F  </i>
   <i type="logical" name="LSMP2LT"> F  </i>
   <i type="logical" name="LGWLF"> F  </i>
   <i name="ENCUTGW">     -2.00000000</i>
   <i name="ENCUTGWSOFT">     -2.00000000</i>
   <i name="ENCUTLF">     -1.00000000</i>
   <i type="logical" name="LESF_SPLINES"> F  </i>
   <i type="int" name="LMAXMP2">    -1</i>
   <i name="SCISSOR">      0.00000000</i>
   <i type="int" name="NOMEGA">     0</i>
   <i type="int" name="NOMEGAR">     0</i>
   <i type="int" name="NBANDSGW">    -1</i>
   <i type="int" name="NBANDSO">    -1</i>
   <i type="int" name="NBANDSV">    -1</i>
   <i type="int" name="NELM">     1</i>
   <i type="int" name="NELMHF">     1</i>
   <i type="int" name="DIM">     3</i>
   <i type="int" name="IESPILON">     4</i>
   <i type="int" name="ANTIRES">     0</i>
   <i name="OMEGAMAX">    -30.00000000</i>
   <i name="OMEGAMIN">    -30.00000000</i>
   <i name="OMEGATL">   -200.00000000</i>
   <i type="int" name="OMEGAGRID">     0</i>
   <i name="CSHIFT">     -0.10000000</i>
   <i type="logical" name="LSELFENERGY"> F  </i>
   <i type="logical" name="LSPECTRAL"> F  </i>
   <i type="logical" name="LSPECTRALGW"> F  </i>
   <i type="logical" name="LSINGLES"> F  </i>
   <i type="logical" name="LFERMIGW"> F  </i>
   <i type="logical" name="ODDONLYGW"> F  </i>
   <i type="logical" name="EVENONLYGW"> F  </i>
   <i type="int" name="NKREDLFX">     1</i>
   <i type="int" name="NKREDLFY">     1</i>
   <i type="int" name="NKREDLFZ">     1</i>
   <i type="int" name="MAXMEM">  2800</i>
   <i type="int" name="TELESCOPE">     0</i>
   <i type="int" name="NTAUPAR">    -1</i>
   <i type="int" name="NOMEGAPAR">    -1</i>
   <i name="DAMP_NEWTON">      0.80000001</i>
   <i name="LAMBDA">      1.00000000</i>
  </separator>
  <separator name="External order field" >
   <i name="OFIELD_KAPPA">      0.00000000</i>
   <v name="OFIELD_K">      0.00000000      0.00000000      0.00000000</v>
   <i name="OFIELD_Q6_NEAR">      0.00000000</i>
   <i name="OFIELD_Q6_FAR">      0.00000000</i>
   <i name="OFIELD_A">      0.00000000</i>
  </separator>
 </parameters>
 <atominfo>
  <atoms>       2 </atoms>
  <types>       1 </types>
  <array name="atoms" >
   <dimension dim="1">ion</dimension>
   <field type="string">element</field>
   <field type="int">atomtype</field>
   <set>
    <rc><c>Fe</c><c>   1</c></rc>
    <rc><c>Fe</c><c>   1</c></rc>
   </set>
  </array>
  <array name="atomtypes" >
   <dimension dim="1">type</dimension>
   <field type="int">atomspertype</field>
   <field type="string">element</field>
   <field>mass</field>
   <field>valence</field>
   <field type="string">pseudopotential</field>
   <set>
    <rc><c>   2</c><c>Fe</c><c>     55.84700000</c><c>      8.00000000</c><c>  PAW_PBE Fe 06Sep2000                  </c></rc>
   </set>
  </array>
 </atominfo>
 <structure name="initialpos" >
  <crystal>
   <varray name="basis" >
    <v>       2.37660000       0.00000000       0.00000000 </v>
    <v>      -1.18830000       2.05819597       0.00000000 </v>
    <v>       0.00000000       0.00000000       4.22382000 </v>
   </varray>
   <i name="volume">     20.66085166 </i>
   <varray name="rec_basis" >
    <v>       0.42076917       0.24293119       0.00000000 </v>
    <v>       0.00000000       0.48586238       0.00000000 </v>
    <v>       0.00000000       0.00000000       0.23675251 </v>
   </varray>
  </crystal>
  <varray name="positions" >
   <v>       0.00000000       0.00000000       0.00000000 </v>
   <v>       0.33333333       0.66666667       0.50000000 </v>
  </varray>
 </structure>
 <calculation>
  <scstep>
   <time name="dav">    0.78    0.80</time>
   <time name="total">    0.79    0.81</time>
   <energy>
    <i name="alphaZ">    133.80624796 </i>
    <i name="ewald">  -1220.82686550 </i>
    <i name="hartreedc">   -209.79299229 </i>
    <i name="XCdc">      8.40914727 </i>
    <i name="pawpsdc">   1109.69170683 </i>
    <i name="pawaedc">  -1125.09647265 </i>
    <i name="eentropy">      0.00105530 </i>
    <i name="bandstr">    175.10573033 </i>
    <i name="atom">   1188.57490811 </i>
    <i name="e_fr_energy">     59.87246536 </i>
    <i name="e_wo_entrp">     59.87141006 </i>
    <i name="e_0_energy">     59.87211360 </i>
   </energy>
  </scstep>
  <scstep>
   <time name="dav">    0.69    0.69</time>
   <time name="total">    0.70    0.70</time>
   <energy>
    <i name="e_fr_energy">    -14.71041650 </i>
    <i name="e_wo_entrp">    -14.71013699 </i>
    <i name="e_0_energy">    -14.71032333 </i>
   </energy>
  </scstep>
  <scstep>
   <time name="dav">    0.79    0.79</time>
   <time name="total">    0.80    0.80</time>
   <energy>
    <i name="e_fr_energy">    -19.15166764 </i>
    <i name="e_wo_entrp">    -19.15244308 </i>
    <i name="e_0_energy">    -19.15192612 </i>
   </energy>
  </scstep>
  <scstep>
   <time name="dav">    0.76    0.76</time>
   <time name="total">    0.77    0.77</time>
   <energy>
    <i name="e_fr_energy">    -19.17266749 </i>
    <i name="e_wo_entrp">    -19.17345260 </i>
    <i name="e_0_energy">    -19.17292919 </i>
   </energy>
  </scstep>
  <scstep>
   <time name="dav">    0.78    0.78</time>
   <time name="total">    0.81    0.81</time>
   <energy>
    <i name="e_fr_energy">    -19.17269521 </i>
    <i name="e_wo_entrp">    -19.17348037 </i>
    <i name="e_0_energy">    -19.17295693 </i>
   </energy>
  </scstep>
  <scstep>
   <time name="dav">    0.92    0.92</time>
   <time name="total">    0.95    0.95</time>
   <energy>
    <i name="e_fr_energy">    -16.31445741 </i>
    <i name="e_wo_entrp">    -16.31739211 </i>
    <i name="e_0_energy">    -16.31543564 </i>
   </energy>
  </scstep>
  <scstep>
   <time name="dav">    0.83    0.83</time>
   <time name="total">    0.87    0.87</time>
   <energy>
    <i name="e_fr_energy">    -16.10021035 </i>
    <i name="e_wo_entrp">    -16.10313237 </i>
    <i name="e_0_energy">    -16.10118436 </i>
   </energy>
  </scstep>
  <scstep>
   <time name="dav">    0.83    0.83</time>
   <time name="total">    0.86    0.86</time>
   <energy>
    <i name="e_fr_energy">    -16.07386914 </i>
    <i name="e_wo_entrp">    -16.07685445 </i>
    <i name="e_0_energy">    -16.07486424 </i>
   </energy>
  </scstep>
  <scstep>
   <time name="dav">    0.92    0.92</time>
   <time name="total">    0.95    0.95</time>
   <energy>
    <i name="e_fr_energy">    -16.06327015 </i>
    <i name="e_wo_entrp">    -16.06625521 </i>
    <i name="e_0_energy">    -16.06426517 </i>
   </energy>
  </scstep>
  <scstep>
   <time name="dav">    0.78    0.78</time>
   <time name="total">    0.81    0.81</time>
   <energy>
    <i name="e_fr_energy">    -16.06329985 </i>
    <i name="e_wo_entrp">    -16.06628032 </i>
    <i name="e_0_energy">    -16.06429334 </i>
   </energy>
  </scstep>
  <scstep>
   <time name="dav">    0.78    0.78</time>
   <time name="total">    0.81    0.81</time>
   <energy>
    <i name="e_fr_energy">    -16.06329319 </i>
    <i name="e_wo_entrp">    -16.06627360 </i>
    <i name="e_0_energy">    -16.06428666 </i>
   </energy>
  </scstep>
  <scstep>
   <time name="dav">    0.58    0.58</time>
   <time name="total">    0.59    0.59</time>
   <energy>
    <i name="alphaZ">    133.80624796 </i>
    <i name="ewald">  -1220.82686550 </i>
    <i name="hartreedc">   -175.57525476 </i>
    <i name="XCdc">      6.81711692 </i>
    <i name="pawpsdc">   1462.38748814 </i>
    <i name="pawaedc">  -1479.76486978 </i>
    <i name="eentropy">      0.00298063 </i>
    <i name="bandstr">     68.51495584 </i>
    <i name="atom">   1188.57490811 </i>
    <i name="e_fr_energy">    -16.06329244 </i>
    <i name="e_wo_entrp">    -16.06627307 </i>
    <i name="e_0_energy">    -16.06428598 </i>
   </energy>
  </scstep>
  <structure>
   <crystal>
    <varray name="basis" >
     <v>       2.37660000       0.00000000       0.00000000 </v>
     <v>      -1.18830000       2.05819597       0.00000000 </v>
     <v>       0.00000000       0.00000000       4.22382000 </v>
    </varray>
    <i name="volume">     20.66085166 </i>
    <varray name="rec_basis" >
     <v>       0.42076917       0.24293119       0.00000000 </v>
     <v>       0.00000000       0.48586238       0.00000000 </v>
     <v>       0.00000000       0.00000000       0.23675251 </v>
    </varray>
   </crystal>
   <varray name="positions" >
    <v>       0.00000000       0.00000000       0.00000000 </v>
    <v>       0.33333333       0.66666667       0.50000000 </v>
   </varray>
  </structure>
  <varray name="forces" >
   <v>      -0.00000000      -0.00000000       0.00000000 </v>
   <v>       0.00000000       0.00000000      -0.00000000 </v>
  </varray>
  <varray name="stress" >
   <v>     135.43774063      -0.00000000       0.00000000 </v>
   <v>      -0.00000000     135.43774063      -0.00000000 </v>
   <v>       0.00000000      -0.00000000    -356.11100833 </v>
  </varray>
  <energy>
   <i name="e_fr_energy">    -16.06329244 </i>
   <i name="e_wo_entrp">    -16.06627307 </i>
   <i name="e_0_energy">    -16.06428598 </i>
  </energy>
  <time name="totalsc">   10.02   10.05</time>
  <eigenvalues>
   <array>
    <dimension dim="1">band</dimension>
    <dimension dim="2">kpoint</dimension>
    <dimension dim="3">spin</dimension>
    <field>eigene</field>
    <field>occ</field>
    <set>
     <set comment="spin 1">
      <set comment="kpoint 1">
       <r>   -2.0745    1.0000 </r>
       <r>    1.7943    1.0000 </r>
       <r>    4.5334    1.0000 </r>
       <r>    5.2088    1.0000 </r>
       <r>    5.2089    1.0000 </r>
       <r>    5.4947    1.0000 </r>
       <r>    5.4949    1.0000 </r>
       <r>    5.9586    1.0000 </r>
       <r>    6.4705    1.0332 </r>
       <r>    6.4706    1.0332 </r>
       <r>    7.4717   -0.0000 </r>
       <r>    7.4717   -0.0000 </r>
       <r>   13.7642    0.0000 </r>
       <r>   29.7790    0.0000 </r>
       <r>   30.1688    0.0000 </r>
       <r>   33.0505    0.0000 </r>
       <r>   35.2610    0.0000 </r>
       <r>   35.2610    0.0000 </r>
       <r>   36.1060    0.0000 </r>
       <r>   36.1061    0.0000 </r>
       <r>   36.3074    0.0000 </r>
       <r>   38.9188    0.0000 </r>
       <r>   38.9188    0.0000 </r>
       <r>   39.9167    0.0000 </r>
       <r>   42.3665    0.0000 </r>
       <r>   42.3665    0.0000 </r>
       <r>   42.8416    0.0000 </r>
       <r>   46.0445    0.0000 </r>
       <r>   46.0448    0.0000 </r>
       <r>   47.8573    0.0000 </r>
       <r>   47.8574    0.0000 </r>
       <r>   50.1286    0.0000 </r>
       <r>   57.8020    0.0000 </r>
       <r>   61.1126    0.0000 </r>
       <r>   61.1134    0.0000 </r>
       <r>   61.5534    0.0000 </r>
       <r>   62.1923    0.0000 </r>
       <r>   63.0826    0.0000 </r>
       <r>   63.1420    0.0000 </r>
       <r>   63.5436    0.0000 </r>
      </set>
      <set comment="kpoint 2">
       <r>   -1.7458    1.0000 </r>
       <r>    2.0416    1.0000 </r>
       <r>    4.5606    1.0000 </r>
       <r>    5.1324    1.0000 </r>
       <r>    5.1703    1.0000 </r>
       <r>    5.3808    1.0000 </r>
       <r>    5.3950    1.0000 </r>
       <r>    5.6705    1.0000 </r>
       <r>    6.3179    1.0053 </r>
       <r>    6.3626    1.0109 </r>
       <r>    7.5008   -0.0000 </r>
       <r>    8.5296   -0.0000 </r>
       <r>   13.7881    0.0000 </r>
       <r>   28.8276    0.0000 </r>
       <r>   30.1488    0.0000 </r>
       <r>   31.3595    0.0000 </r>
       <r>   32.4959    0.0000 </r>
       <r>   34.8725    0.0000 </r>
       <r>   34.8733    0.0000 </r>
       <r>   36.1579    0.0000 </r>
       <r>   38.2674    0.0000 </r>
       <r>   38.9001    0.0000 </r>
       <r>   38.9998    0.0000 </r>
       <r>   39.6621    0.0000 </r>
       <r>   43.3647    0.0000 </r>
       <r>   43.5949    0.0000 </r>
       <r>   43.6663    0.0000 </r>
       <r>   44.0271    0.0000 </r>
       <r>   47.3532    0.0000 </r>
       <r>   49.1401    0.0000 </r>
       <r>   50.2581    0.0000 </r>
       <r>   52.1684    0.0000 </r>
       <r>   57.2717    0.0000 </r>
       <r>   59.4378    0.0000 </r>
       <r>   59.7528    0.0000 </r>
       <r>   60.3408    0.0000 </r>
       <r>   60.9935    0.0000 </r>
       <r>   63.5081    0.0000 </r>
       <r>   64.1679    0.0000 </r>
       <r>   64.7226    0.0000 </r>
      </set>
      <set comment="kpoint 3">
       <r>   -0.8140    1.0000 </r>
       <r>    2.6294    1.0000 </r>
       <r>    4.1606    1.0000 </r>
       <r>    4.4175    1.0000 </r>
       <r>    4.9400    1.0000 </r>
       <r>    5.4840    1.0000 </r>
       <r>    5.9249    1.0000 </r>
       <r>    5.9558    1.0000 </r>
       <r>    6.1076    1.0000 </r>
       <r>    6.1631    1.0002 </r>
       <r>    7.5469   -0.0000 </r>
       <r>   10.3036   -0.0000 </r>
       <r>   13.8989    0.0000 </r>
       <r>   25.0167    0.0000 </r>
       <r>   29.7032    0.0000 </r>
       <r>   30.0989    0.0000 </r>
       <r>   30.3901    0.0000 </r>
       <r>   31.2755    0.0000 </r>
       <r>   35.0944    0.0000 </r>
       <r>   36.0645    0.0000 </r>
       <r>   36.4596    0.0000 </r>
       <r>   37.3181    0.0000 </r>
       <r>   39.8656    0.0000 </r>
       <r>   40.5993    0.0000 </r>
       <r>   43.5050    0.0000 </r>
       <r>   44.7498    0.0000 </r>
       <r>   46.2746    0.0000 </r>
       <r>   48.4258    0.0000 </r>
       <r>   50.0090    0.0000 </r>
       <r>   52.6981    0.0000 </r>
       <r>   53.1674    0.0000 </r>
       <r>   55.6047    0.0000 </r>
       <r>   56.0777    0.0000 </r>
       <r>   56.3767    0.0000 </r>
       <r>   58.0252    0.0000 </r>
       <r>   59.5596    0.0000 </r>
       <r>   61.0003    0.0000 </r>
       <r>   63.3079    0.0000 </r>
       <r>   65.1646    0.0000 </r>
       <r>   65.4766    0.0000 </r>
      </set>
      <set comment="kpoint 4">
       <r>    0.5162    1.0000 </r>
       <r>    2.9280    1.0000 </r>
       <r>    3.3824    1.0000 </r>
       <r>    4.3821    1.0000 </r>
       <r>    4.7554    1.0000 </r>
       <r>    5.4999    1.0000 </r>
       <r>    5.8169    1.0000 </r>
       <r>    6.2077    1.0005 </r>
       <r>    6.6757    0.7651 </r>
       <r>    6.8471    0.1169 </r>
       <r>    7.5694   -0.0000 </r>
       <r>   12.3278    0.0000 </r>
       <r>   14.1499    0.0000 </r>
       <r>   21.0011    0.0000 </r>
       <r>   26.7649    0.0000 </r>
       <r>   27.3033    0.0000 </r>
       <r>   28.3383    0.0000 </r>
       <r>   31.3453    0.0000 </r>
       <r>   33.2258    0.0000 </r>
       <r>   36.0921    0.0000 </r>
       <r>   36.6049    0.0000 </r>
       <r>   36.8825    0.0000 </r>
       <r>   37.4226    0.0000 </r>
       <r>   40.9595    0.0000 </r>
       <r>   47.1584    0.0000 </r>
       <r>   48.5632    0.0000 </r>
       <r>   49.7622    0.0000 </r>
       <r>   50.7362    0.0000 </r>
       <r>   51.4922    0.0000 </r>
       <r>   53.0431    0.0000 </r>
       <r>   54.3878    0.0000 </r>
       <r>   55.6765    0.0000 </r>
       <r>   57.7500    0.0000 </r>
       <r>   57.9137    0.0000 </r>
       <r>   58.8815    0.0000 </r>
       <r>   60.5342    0.0000 </r>
       <r>   62.3827    0.0000 </r>
       <r>   63.0511    0.0000 </r>
       <r>   65.3471    0.0000 </r>
       <r>   65.7126    0.0000 </r>
      </set>
      <set comment="kpoint 5">
       <r>    1.7282    1.0000 </r>
       <r>    2.6754    1.0000 </r>
       <r>    2.8725    1.0000 </r>
       <r>    4.5252    1.0000 </r>
       <r>    5.0955    1.0000 </r>
       <r>    5.1701    1.0000 </r>
       <r>    5.5747    1.0000 </r>
       <r>    7.4121   -0.0000 </r>
       <r>    7.4300   -0.0000 </r>
       <r>    7.5359   -0.0000 </r>
       <r>    7.5694   -0.0000 </r>
       <r>   14.1622    0.0000 </r>
       <r>   14.5120    0.0000 </r>
       <r>   18.0414    0.0000 </r>
       <r>   23.4696    0.0000 </r>
       <r>   25.4257    0.0000 </r>
       <r>   25.4812    0.0000 </r>
       <r>   30.5666    0.0000 </r>
       <r>   32.2223    0.0000 </r>
       <r>   35.3990    0.0000 </r>
       <r>   36.1505    0.0000 </r>
       <r>   37.6781    0.0000 </r>
       <r>   38.0322    0.0000 </r>
       <r>   41.1618    0.0000 </r>
       <r>   48.1221    0.0000 </r>
       <r>   49.6080    0.0000 </r>
       <r>   50.5985    0.0000 </r>
       <r>   53.7039    0.0000 </r>
       <r>   53.8283    0.0000 </r>
       <r>   54.2989    0.0000 </r>
       <r>   56.3406    0.0000 </r>
       <r>   57.6605    0.0000 </r>
       <r>   57.7307    0.0000 </r>
       <r>   59.4637    0.0000 </r>
       <r>   61.4133    0.0000 </r>
       <r>   62.8180    0.0000 </r>
       <r>   62.9996    0.0000 </r>
       <r>   64.1617    0.0000 </r>
       <r>   65.9450    0.0000 </r>
       <r>   66.3130    0.0000 </r>
      </set>
      <set comment="kpoint 6">
       <r>    2.2311    1.0000 </r>
       <r>    2.4323    1.0000 </r>
       <r>    2.6235    1.0000 </r>
       <r>    4.8582    1.0000 </r>
       <r>    5.0607    1.0000 </r>
       <r>    5.4026    1.0000 </r>
       <r>    5.4391    1.0000 </r>
       <r>    7.5623   -0.0000 </r>
       <r>    7.8961   -0.0000 </r>
       <r>    8.0010   -0.0000 </r>
       <r>    9.0635   -0.0000 </r>
       <r>   12.4327    0.0000 </r>
       <r>   16.5963    0.0000 </r>
       <r>   17.9487    0.0000 </r>
       <r>   20.8401    0.0000 </r>
       <r>   22.7062    0.0000 </r>
       <r>   24.4673    0.0000 </r>
       <r>   29.9675    0.0000 </r>
       <r>   31.9192    0.0000 </r>
       <r>   34.2844    0.0000 </r>
       <r>   35.9318    0.0000 </r>
       <r>   38.5831    0.0000 </r>
       <r>   40.4158    0.0000 </r>
       <r>   40.8235    0.0000 </r>
       <r>   44.7614    0.0000 </r>
       <r>   49.8903    0.0000 </r>
       <r>   51.7331    0.0000 </r>
       <r>   55.7081    0.0000 </r>
       <r>   56.2943    0.0000 </r>
       <r>   56.9922    0.0000 </r>
       <r>   57.8571    0.0000 </r>
       <r>   59.5049    0.0000 </r>
       <r>   59.9253    0.0000 </r>
       <r>   61.0882    0.0000 </r>
       <r>   61.8552    0.0000 </r>
       <r>   62.3259    0.0000 </r>
       <r>   64.6417    0.0000 </r>
       <r>   65.0977    0.0000 </r>
       <r>   65.5208    0.0000 </r>
       <r>   66.3002    0.0000 </r>
      </set>
      <set comment="kpoint 7">
       <r>   -1.1131    1.0000 </r>
       <r>    2.4776    1.0000 </r>
       <r>    4.4244    1.0000 </r>
       <r>    4.4477    1.0000 </r>
       <r>    5.1641    1.0000 </r>
       <r>    5.1722    1.0000 </r>
       <r>    5.7820    1.0000 </r>
       <r>    5.9405    1.0000 </r>
       <r>    6.0511    1.0000 </r>
       <r>    6.3187    1.0054 </r>
       <r>    7.5044   -0.0000 </r>
       <r>    9.8074   -0.0000 </r>
       <r>   13.8598    0.0000 </r>
       <r>   26.7748    0.0000 </r>
       <r>   27.9818    0.0000 </r>
       <r>   30.7154    0.0000 </r>
       <r>   32.1191    0.0000 </r>
       <r>   33.5785    0.0000 </r>
       <r>   33.8023    0.0000 </r>
       <r>   35.0051    0.0000 </r>
       <r>   35.8706    0.0000 </r>
       <r>   40.5041    0.0000 </r>
       <r>   40.8323    0.0000 </r>
       <r>   41.3861    0.0000 </r>
       <r>   42.5068    0.0000 </r>
       <r>   42.6949    0.0000 </r>
       <r>   42.9716    0.0000 </r>
       <r>   49.0552    0.0000 </r>
       <r>   50.9219    0.0000 </r>
       <r>   50.9471    0.0000 </r>
       <r>   51.1432    0.0000 </r>
       <r>   55.1396    0.0000 </r>
       <r>   56.4837    0.0000 </r>
       <r>   57.1304    0.0000 </r>
       <r>   58.1237    0.0000 </r>
       <r>   59.5245    0.0000 </r>
       <r>   60.6741    0.0000 </r>
       <r>   63.7931    0.0000 </r>
       <r>   65.1445    0.0000 </r>
       <r>   65.4195    0.0000 </r>
      </set>
      <set comment="kpoint 8">
       <r>    0.0419    1.0000 </r>
       <r>    3.0423    1.0000 </r>
       <r>    3.6638    1.0000 </r>
       <r>    4.1650    1.0000 </r>
       <r>    4.8600    1.0000 </r>
       <r>    5.5094    1.0000 </r>
       <r>    5.5953    1.0000 </r>
       <r>    6.0700    1.0000 </r>
       <r>    6.4738    1.0336 </r>
       <r>    6.7573    0.4367 </r>
       <r>    7.4981   -0.0000 </r>
       <r>   11.6166   -0.0000 </r>
       <r>   14.0836    0.0000 </r>
       <r>   23.0576    0.0000 </r>
       <r>   25.6532    0.0000 </r>
       <r>   28.6253    0.0000 </r>
       <r>   30.7402    0.0000 </r>
       <r>   31.1416    0.0000 </r>
       <r>   34.1165    0.0000 </r>
       <r>   34.1682    0.0000 </r>
       <r>   35.3243    0.0000 </r>
       <r>   39.5613    0.0000 </r>
       <r>   40.1656    0.0000 </r>
       <r>   41.1866    0.0000 </r>
       <r>   44.2923    0.0000 </r>
       <r>   45.2971    0.0000 </r>
       <r>   47.2860    0.0000 </r>
       <r>   50.9455    0.0000 </r>
       <r>   53.1808    0.0000 </r>
       <r>   53.5076    0.0000 </r>
       <r>   53.9719    0.0000 </r>
       <r>   55.9374    0.0000 </r>
       <r>   57.0497    0.0000 </r>
       <r>   57.0755    0.0000 </r>
       <r>   58.1618    0.0000 </r>
       <r>   58.6837    0.0000 </r>
       <r>   61.5946    0.0000 </r>
       <r>   64.1210    0.0000 </r>
       <r>   65.7305    0.0000 </r>
       <r>   65.7669    0.0000 </r>
      </set>
      <set comment="kpoint 9">
       <r>    1.4005    1.0000 </r>
       <r>    3.0015    1.0000 </r>
       <r>    3.1012    1.0000 </r>
       <r>    4.2367    1.0000 </r>
       <r>    4.9223    1.0000 </r>
       <r>    5.1430    1.0000 </r>
       <r>    5.7162    1.0000 </r>
       <r>    6.3538    1.0096 </r>
       <r>    7.2289   -0.0016 </r>
       <r>    7.4825   -0.0000 </r>
       <r>    7.6730   -0.0000 </r>
       <r>   13.6961    0.0000 </r>
       <r>   14.4747    0.0000 </r>
       <r>   19.3477    0.0000 </r>
       <r>   23.9609    0.0000 </r>
       <r>   25.2036    0.0000 </r>
       <r>   27.7429    0.0000 </r>
       <r>   29.6378    0.0000 </r>
       <r>   33.3193    0.0000 </r>
       <r>   34.5861    0.0000 </r>
       <r>   35.6408    0.0000 </r>
       <r>   39.0932    0.0000 </r>
       <r>   39.5531    0.0000 </r>
       <r>   42.3852    0.0000 </r>
       <r>   46.2081    0.0000 </r>
       <r>   48.9416    0.0000 </r>
       <r>   50.1153    0.0000 </r>
       <r>   50.3088    0.0000 </r>
       <r>   52.3095    0.0000 </r>
       <r>   54.4700    0.0000 </r>
       <r>   55.6417    0.0000 </r>
       <r>   57.3764    0.0000 </r>
       <r>   58.3175    0.0000 </r>
       <r>   58.9356    0.0000 </r>
       <r>   60.5810    0.0000 </r>
       <r>   62.5238    0.0000 </r>
       <r>   63.7564    0.0000 </r>
       <r>   64.0465    0.0000 </r>
       <r>   64.6578    0.0000 </r>
       <r>   66.0845    0.0000 </r>
      </set>
      <set comment="kpoint 10">
       <r>    2.2797    1.0000 </r>
       <r>    2.6943    1.0000 </r>
       <r>    2.7710    1.0000 </r>
       <r>    4.6213    1.0000 </r>
       <r>    4.9075    1.0000 </r>
       <r>    5.2984    1.0000 </r>
       <r>    5.4173    1.0000 </r>
       <r>    7.2654   -0.0007 </r>
       <r>    7.4627   -0.0000 </r>
       <r>    7.7457   -0.0000 </r>
       <r>    8.8459   -0.0000 </r>
       <r>   13.8111    0.0000 </r>
       <r>   15.9054    0.0000 </r>
       <r>   17.7602    0.0000 </r>
       <r>   22.2008    0.0000 </r>
       <r>   22.6224    0.0000 </r>
       <r>   24.5165    0.0000 </r>
       <r>   28.7731    0.0000 </r>
       <r>   32.3849    0.0000 </r>
       <r>   34.0899    0.0000 </r>
       <r>   37.0506    0.0000 </r>
       <r>   39.4961    0.0000 </r>
       <r>   40.2751    0.0000 </r>
       <r>   41.8461    0.0000 </r>
       <r>   46.7558    0.0000 </r>
       <r>   48.9046    0.0000 </r>
       <r>   50.4280    0.0000 </r>
       <r>   52.4471    0.0000 </r>
       <r>   53.8246    0.0000 </r>
       <r>   56.0800    0.0000 </r>
       <r>   57.2124    0.0000 </r>
       <r>   58.9509    0.0000 </r>
       <r>   59.9102    0.0000 </r>
       <r>   61.9623    0.0000 </r>
       <r>   62.0908    0.0000 </r>
       <r>   63.2242    0.0000 </r>
       <r>   63.7143    0.0000 </r>
       <r>   64.7741    0.0000 </r>
       <r>   65.7686    0.0000 </r>
       <r>   66.4843    0.0000 </r>
      </set>
      <set comment="kpoint 11">
       <r>    2.4560    1.0000 </r>
       <r>    2.5776    1.0000 </r>
       <r>    2.6633    1.0000 </r>
       <r>    4.8276    1.0000 </r>
       <r>    5.0107    1.0000 </r>
       <r>    5.2984    1.0000 </r>
       <r>    5.3974    1.0000 </r>
       <r>    7.4531   -0.0000 </r>
       <r>    7.7889   -0.0000 </r>
       <r>    7.8141   -0.0000 </r>
       <r>   10.0554   -0.0000 </r>
       <r>   12.1534   -0.0000 </r>
       <r>   17.4179    0.0000 </r>
       <r>   18.3993    0.0000 </r>
       <r>   20.4172    0.0000 </r>
       <r>   21.6781    0.0000 </r>
       <r>   23.1558    0.0000 </r>
       <r>   28.4646    0.0000 </r>
       <r>   31.9982    0.0000 </r>
       <r>   33.9291    0.0000 </r>
       <r>   37.3170    0.0000 </r>
       <r>   40.3381    0.0000 </r>
       <r>   40.7462    0.0000 </r>
       <r>   41.9066    0.0000 </r>
       <r>   44.4587    0.0000 </r>
       <r>   50.2444    0.0000 </r>
       <r>   50.3423    0.0000 </r>
       <r>   53.0787    0.0000 </r>
       <r>   56.0488    0.0000 </r>
       <r>   56.3980    0.0000 </r>
       <r>   59.6004    0.0000 </r>
       <r>   59.6746    0.0000 </r>
       <r>   60.2433    0.0000 </r>
       <r>   60.3035    0.0000 </r>
       <r>   61.3488    0.0000 </r>
       <r>   63.7776    0.0000 </r>
       <r>   65.5079    0.0000 </r>
       <r>   65.5543    0.0000 </r>
       <r>   65.8860    0.0000 </r>
       <r>   67.2828    0.0000 </r>
      </set>
      <set comment="kpoint 12">
       <r>    1.2969    1.0000 </r>
       <r>    3.2374    1.0000 </r>
       <r>    3.4992    1.0000 </r>
       <r>    3.7277    1.0000 </r>
       <r>    4.9115    1.0000 </r>
       <r>    5.0761    1.0000 </r>
       <r>    5.8322    1.0000 </r>
       <r>    5.8431    1.0000 </r>
       <r>    7.2024   -0.0027 </r>
       <r>    7.3852   -0.0000 </r>
       <r>    7.7399   -0.0000 </r>
       <r>   13.4375    0.0000 </r>
       <r>   14.5935    0.0000 </r>
       <r>   21.1018    0.0000 </r>
       <r>   21.8212    0.0000 </r>
       <r>   26.8050    0.0000 </r>
       <r>   28.0585    0.0000 </r>
       <r>   30.0472    0.0000 </r>
       <r>   30.6747    0.0000 </r>
       <r>   35.1663    0.0000 </r>
       <r>   37.0566    0.0000 </r>
       <r>   40.6657    0.0000 </r>
       <r>   41.1106    0.0000 </r>
       <r>   43.4937    0.0000 </r>
       <r>   44.3085    0.0000 </r>
       <r>   46.2313    0.0000 </r>
       <r>   47.2935    0.0000 </r>
       <r>   51.7436    0.0000 </r>
       <r>   53.0552    0.0000 </r>
       <r>   54.0360    0.0000 </r>
       <r>   54.1761    0.0000 </r>
       <r>   57.8384    0.0000 </r>
       <r>   58.1786    0.0000 </r>
       <r>   60.8024    0.0000 </r>
       <r>   61.1068    0.0000 </r>
       <r>   61.3429    0.0000 </r>
       <r>   61.3834    0.0000 </r>
       <r>   64.8308    0.0000 </r>
       <r>   65.0286    0.0000 </r>
       <r>   66.9537    0.0000 </r>
      </set>
      <set comment="kpoint 13">
       <r>    2.5098    1.0000 </r>
       <r>    2.9734    1.0000 </r>
       <r>    3.2286    1.0000 </r>
       <r>    3.9262    1.0000 </r>
       <r>    4.8184    1.0000 </r>
       <r>    5.1875    1.0000 </r>
       <r>    5.4515    1.0000 </r>
       <r>    6.3939    1.0168 </r>
       <r>    7.2853   -0.0004 </r>
       <r>    7.6758   -0.0000 </r>
       <r>    8.9944   -0.0000 </r>
       <r>   15.2180    0.0000 </r>
       <r>   15.5690    0.0000 </r>
       <r>   18.1660    0.0000 </r>
       <r>   20.2293    0.0000 </r>
       <r>   24.0992    0.0000 </r>
       <r>   26.5068    0.0000 </r>
       <r>   26.5500    0.0000 </r>
       <r>   29.3695    0.0000 </r>
       <r>   37.3401    0.0000 </r>
       <r>   37.5518    0.0000 </r>
       <r>   40.6366    0.0000 </r>
       <r>   42.9802    0.0000 </r>
       <r>   44.2881    0.0000 </r>
       <r>   45.1921    0.0000 </r>
       <r>   47.2990    0.0000 </r>
       <r>   48.4720    0.0000 </r>
       <r>   49.5993    0.0000 </r>
       <r>   52.8888    0.0000 </r>
       <r>   53.6987    0.0000 </r>
       <r>   56.2218    0.0000 </r>
       <r>   59.1060    0.0000 </r>
       <r>   60.3223    0.0000 </r>
       <r>   61.4400    0.0000 </r>
       <r>   63.5411    0.0000 </r>
       <r>   63.6649    0.0000 </r>
       <r>   64.5380    0.0000 </r>
       <r>   65.0954    0.0000 </r>
       <r>   66.1811    0.0000 </r>
       <r>   67.7827    0.0000 </r>
      </set>
      <set comment="kpoint 14">
       <r>    2.8600    1.0000 </r>
       <r>    2.9285    1.0000 </r>
       <r>    3.0297    1.0000 </r>
       <r>    4.4084    1.0000 </r>
       <r>    4.7863    1.0000 </r>
       <r>    5.0831    1.0000 </r>
       <r>    5.4555    1.0000 </r>
       <r>    7.0921   -0.0165 </r>
       <r>    7.2309   -0.0015 </r>
       <r>    7.6717   -0.0000 </r>
       <r>   10.5801   -0.0000 </r>
       <r>   13.5717    0.0000 </r>
       <r>   17.7717    0.0000 </r>
       <r>   18.4104    0.0000 </r>
       <r>   19.3777    0.0000 </r>
       <r>   21.4273    0.0000 </r>
       <r>   23.6028    0.0000 </r>
       <r>   25.9314    0.0000 </r>
       <r>   28.7265    0.0000 </r>
       <r>   37.5411    0.0000 </r>
       <r>   39.4242    0.0000 </r>
       <r>   40.9860    0.0000 </r>
       <r>   42.4762    0.0000 </r>
       <r>   43.4429    0.0000 </r>
       <r>   46.9275    0.0000 </r>
       <r>   47.6875    0.0000 </r>
       <r>   49.3878    0.0000 </r>
       <r>   50.0762    0.0000 </r>
       <r>   53.5830    0.0000 </r>
       <r>   55.0114    0.0000 </r>
       <r>   55.7435    0.0000 </r>
       <r>   59.1092    0.0000 </r>
       <r>   59.6285    0.0000 </r>
       <r>   60.6129    0.0000 </r>
       <r>   64.5179    0.0000 </r>
       <r>   64.9413    0.0000 </r>
       <r>   66.2291    0.0000 </r>
       <r>   66.3348    0.0000 </r>
       <r>   66.4553    0.0000 </r>
       <r>   66.7062    0.0000 </r>
      </set>
      <set comment="kpoint 15">
       <r>    2.9961    1.0000 </r>
       <r>    3.3040    1.0000 </r>
       <r>    3.6093    1.0000 </r>
       <r>    3.6583    1.0000 </r>
       <r>    4.6650    1.0000 </r>
       <r>    5.0585    1.0000 </r>
       <r>    5.4886    1.0000 </r>
       <r>    6.6542    0.8356 </r>
       <r>    7.1147   -0.0122 </r>
       <r>    7.6359   -0.0000 </r>
       <r>   10.7094   -0.0000 </r>
       <r>   15.6562    0.0000 </r>
       <r>   16.2698    0.0000 </r>
       <r>   17.8003    0.0000 </r>
       <r>   19.0530    0.0000 </r>
       <r>   23.4424    0.0000 </r>
       <r>   23.4759    0.0000 </r>
       <r>   25.3284    0.0000 </r>
       <r>   26.1760    0.0000 </r>
       <r>   39.0587    0.0000 </r>
       <r>   39.8621    0.0000 </r>
       <r>   43.5018    0.0000 </r>
       <r>   44.4654    0.0000 </r>
       <r>   44.9566    0.0000 </r>
       <r>   45.0654    0.0000 </r>
       <r>   45.8233    0.0000 </r>
       <r>   48.1143    0.0000 </r>
       <r>   50.5528    0.0000 </r>
       <r>   50.8441    0.0000 </r>
       <r>   54.9980    0.0000 </r>
       <r>   55.1214    0.0000 </r>
       <r>   57.5493    0.0000 </r>
       <r>   59.5048    0.0000 </r>
       <r>   60.8033    0.0000 </r>
       <r>   64.6222    0.0000 </r>
       <r>   65.4522    0.0000 </r>
       <r>   65.5565    0.0000 </r>
       <r>   66.8759    0.0000 </r>
       <r>   66.8879    0.0000 </r>
       <r>   67.6899    0.0000 </r>
      </set>
      <set comment="kpoint 16">
       <r>    3.0385    1.0000 </r>
       <r>    3.4516    1.0000 </r>
       <r>    3.4956    1.0000 </r>
       <r>    3.9844    1.0000 </r>
       <r>    4.7327    1.0000 </r>
       <r>    4.7557    1.0000 </r>
       <r>    5.6300    1.0000 </r>
       <r>    7.0209   -0.0320 </r>
       <r>    7.0489   -0.0262 </r>
       <r>    7.3215   -0.0002 </r>
       <r>   12.4770    0.0000 </r>
       <r>   13.7163    0.0000 </r>
       <r>   15.8869    0.0000 </r>
       <r>   19.7484    0.0000 </r>
       <r>   20.0302    0.0000 </r>
       <r>   21.2306    0.0000 </r>
       <r>   23.2640    0.0000 </r>
       <r>   23.6346    0.0000 </r>
       <r>   25.5788    0.0000 </r>
       <r>   39.4630    0.0000 </r>
       <r>   42.2812    0.0000 </r>
       <r>   43.1506    0.0000 </r>
       <r>   43.6649    0.0000 </r>
       <r>   44.3385    0.0000 </r>
       <r>   45.9737    0.0000 </r>
       <r>   46.7185    0.0000 </r>
       <r>   49.8487    0.0000 </r>
       <r>   50.1920    0.0000 </r>
       <r>   50.4895    0.0000 </r>
       <r>   53.9488    0.0000 </r>
       <r>   55.2986    0.0000 </r>
       <r>   55.8002    0.0000 </r>
       <r>   59.0804    0.0000 </r>
       <r>   59.6545    0.0000 </r>
       <r>   65.0644    0.0000 </r>
       <r>   65.8415    0.0000 </r>
       <r>   67.0016    0.0000 </r>
       <r>   67.1592    0.0000 </r>
       <r>   67.2307    0.0000 </r>
       <r>   67.4283    0.0000 </r>
      </set>
      <set comment="kpoint 17">
       <r>   -1.9969    1.0000 </r>
       <r>    1.7577    1.0000 </r>
       <r>    4.5133    1.0000 </r>
       <r>    5.1995    1.0000 </r>
       <r>    5.1996    1.0000 </r>
       <r>    5.4787    1.0000 </r>
       <r>    5.4789    1.0000 </r>
       <r>    5.7492    1.0000 </r>
       <r>    6.5047    1.0352 </r>
       <r>    6.5047    1.0352 </r>
       <r>    7.4624   -0.0000 </r>
       <r>    7.4624   -0.0000 </r>
       <r>   14.1344    0.0000 </r>
       <r>   29.0153    0.0000 </r>
       <r>   30.3266    0.0000 </r>
       <r>   32.8912    0.0000 </r>
       <r>   35.3092    0.0000 </r>
       <r>   35.3093    0.0000 </r>
       <r>   36.0813    0.0000 </r>
       <r>   36.0816    0.0000 </r>
       <r>   36.8473    0.0000 </r>
       <r>   38.8320    0.0000 </r>
       <r>   38.8321    0.0000 </r>
       <r>   40.1579    0.0000 </r>
       <r>   42.0274    0.0000 </r>
       <r>   42.0274    0.0000 </r>
       <r>   43.0522    0.0000 </r>
       <r>   46.2583    0.0000 </r>
       <r>   46.2587    0.0000 </r>
       <r>   48.2327    0.0000 </r>
       <r>   48.2328    0.0000 </r>
       <r>   50.0020    0.0000 </r>
       <r>   57.1971    0.0000 </r>
       <r>   60.8636    0.0000 </r>
       <r>   60.8645    0.0000 </r>
       <r>   61.2478    0.0000 </r>
       <r>   61.2482    0.0000 </r>
       <r>   61.6063    0.0000 </r>
       <r>   62.8713    0.0000 </r>
       <r>   62.8920    0.0000 </r>
      </set>
      <set comment="kpoint 18">
       <r>   -1.6699    1.0000 </r>
       <r>    2.0096    1.0000 </r>
       <r>    4.5494    1.0000 </r>
       <r>    5.0191    1.0000 </r>
       <r>    5.1073    1.0000 </r>
       <r>    5.3849    1.0000 </r>
       <r>    5.4105    1.0000 </r>
       <r>    5.6536    1.0000 </r>
       <r>    6.3599    1.0105 </r>
       <r>    6.4031    1.0187 </r>
       <r>    7.4877   -0.0000 </r>
       <r>    8.3800   -0.0000 </r>
       <r>   14.1958    0.0000 </r>
       <r>   28.7728    0.0000 </r>
       <r>   29.5516    0.0000 </r>
       <r>   31.3557    0.0000 </r>
       <r>   32.5613    0.0000 </r>
       <r>   34.1706    0.0000 </r>
       <r>   35.4766    0.0000 </r>
       <r>   36.6020    0.0000 </r>
       <r>   37.9636    0.0000 </r>
       <r>   38.9919    0.0000 </r>
       <r>   39.0800    0.0000 </r>
       <r>   39.8876    0.0000 </r>
       <r>   43.2033    0.0000 </r>
       <r>   43.2593    0.0000 </r>
       <r>   44.2210    0.0000 </r>
       <r>   44.4526    0.0000 </r>
       <r>   47.1851    0.0000 </r>
       <r>   49.4133    0.0000 </r>
       <r>   50.5732    0.0000 </r>
       <r>   52.1334    0.0000 </r>
       <r>   56.0854    0.0000 </r>
       <r>   59.0993    0.0000 </r>
       <r>   59.7435    0.0000 </r>
       <r>   60.5202    0.0000 </r>
       <r>   61.2344    0.0000 </r>
       <r>   62.6043    0.0000 </r>
       <r>   63.1258    0.0000 </r>
       <r>   64.1143    0.0000 </r>
      </set>
      <set comment="kpoint 19">
       <r>   -0.7449    1.0000 </r>
       <r>    2.6107    1.0000 </r>
       <r>    4.0859    1.0000 </r>
       <r>    4.4329    1.0000 </r>
       <r>    4.9112    1.0000 </r>
       <r>    5.4171    1.0000 </r>
       <r>    5.8816    1.0000 </r>
       <r>    6.0583    1.0000 </r>
       <r>    6.1060    1.0000 </r>
       <r>    6.2250    1.0008 </r>
       <r>    7.5300   -0.0000 </r>
       <r>    9.9545   -0.0000 </r>
       <r>   14.4353    0.0000 </r>
       <r>   25.0741    0.0000 </r>
       <r>   29.4712    0.0000 </r>
       <r>   29.7915    0.0000 </r>
       <r>   30.6223    0.0000 </r>
       <r>   30.8452    0.0000 </r>
       <r>   34.7988    0.0000 </r>
       <r>   36.3680    0.0000 </r>
       <r>   36.8082    0.0000 </r>
       <r>   37.0076    0.0000 </r>
       <r>   40.2816    0.0000 </r>
       <r>   41.1308    0.0000 </r>
       <r>   43.7355    0.0000 </r>
       <r>   44.7228    0.0000 </r>
       <r>   46.0686    0.0000 </r>
       <r>   48.4465    0.0000 </r>
       <r>   49.8479    0.0000 </r>
       <r>   52.7252    0.0000 </r>
       <r>   53.4847    0.0000 </r>
       <r>   54.3592    0.0000 </r>
       <r>   55.5012    0.0000 </r>
       <r>   57.4105    0.0000 </r>
       <r>   57.8523    0.0000 </r>
       <r>   59.6118    0.0000 </r>
       <r>   61.2158    0.0000 </r>
       <r>   63.4331    0.0000 </r>
       <r>   63.9313    0.0000 </r>
       <r>   65.7410    0.0000 </r>
      </set>
      <set comment="kpoint 20">
       <r>    0.5654    1.0000 </r>
       <r>    2.9190    1.0000 </r>
       <r>    3.3633    1.0000 </r>
       <r>    4.3868    1.0000 </r>
       <r>    4.7193    1.0000 </r>
       <r>    5.5114    1.0000 </r>
       <r>    5.8366    1.0000 </r>
       <r>    6.2496    1.0014 </r>
       <r>    6.6843    0.7344 </r>
       <r>    6.8343    0.1527 </r>
       <r>    7.5488   -0.0000 </r>
       <r>   11.6225   -0.0000 </r>
       <r>   14.9892    0.0000 </r>
       <r>   21.0640    0.0000 </r>
       <r>   26.3211    0.0000 </r>
       <r>   27.4082    0.0000 </r>
       <r>   28.6823    0.0000 </r>
       <r>   31.0579    0.0000 </r>
       <r>   33.1313    0.0000 </r>
       <r>   35.2846    0.0000 </r>
       <r>   35.5701    0.0000 </r>
       <r>   37.8690    0.0000 </r>
       <r>   38.4827    0.0000 </r>
       <r>   41.5937    0.0000 </r>
       <r>   47.2550    0.0000 </r>
       <r>   48.1902    0.0000 </r>
       <r>   49.2683    0.0000 </r>
       <r>   49.4039    0.0000 </r>
       <r>   52.8194    0.0000 </r>
       <r>   53.2066    0.0000 </r>
       <r>   54.6486    0.0000 </r>
       <r>   56.0201    0.0000 </r>
       <r>   56.8154    0.0000 </r>
       <r>   57.5627    0.0000 </r>
       <r>   59.4008    0.0000 </r>
       <r>   60.4262    0.0000 </r>
       <r>   62.6834    0.0000 </r>
       <r>   63.4655    0.0000 </r>
       <r>   64.2844    0.0000 </r>
       <r>   66.2571    0.0000 </r>
      </set>
      <set comment="kpoint 21">
       <r>    1.7231    1.0000 </r>
       <r>    2.6388    1.0000 </r>
       <r>    2.9545    1.0000 </r>
       <r>    4.3279    1.0000 </r>
       <r>    5.1674    1.0000 </r>
       <r>    5.3586    1.0000 </r>
       <r>    5.6072    1.0000 </r>
       <r>    7.3770   -0.0000 </r>
       <r>    7.4239   -0.0000 </r>
       <r>    7.4549   -0.0000 </r>
       <r>    7.6134   -0.0000 </r>
       <r>   12.9785    0.0000 </r>
       <r>   15.7129    0.0000 </r>
       <r>   18.1450    0.0000 </r>
       <r>   23.0533    0.0000 </r>
       <r>   25.5969    0.0000 </r>
       <r>   25.8738    0.0000 </r>
       <r>   30.5095    0.0000 </r>
       <r>   32.1905    0.0000 </r>
       <r>   34.2772    0.0000 </r>
       <r>   36.1395    0.0000 </r>
       <r>   37.3191    0.0000 </r>
       <r>   39.0989    0.0000 </r>
       <r>   41.8565    0.0000 </r>
       <r>   46.8281    0.0000 </r>
       <r>   50.4176    0.0000 </r>
       <r>   50.9374    0.0000 </r>
       <r>   52.8359    0.0000 </r>
       <r>   53.3759    0.0000 </r>
       <r>   55.3376    0.0000 </r>
       <r>   56.0292    0.0000 </r>
       <r>   57.4314    0.0000 </r>
       <r>   58.3797    0.0000 </r>
       <r>   59.2598    0.0000 </r>
       <r>   61.4890    0.0000 </r>
       <r>   62.9599    0.0000 </r>
       <r>   63.2366    0.0000 </r>
       <r>   63.6173    0.0000 </r>
       <r>   66.2777    0.0000 </r>
       <r>   66.3211    0.0000 </r>
      </set>
      <set comment="kpoint 22">
       <r>    2.1554    1.0000 </r>
       <r>    2.3540    1.0000 </r>
       <r>    2.8302    1.0000 </r>
       <r>    4.3915    1.0000 </r>
       <r>    5.3423    1.0000 </r>
       <r>    5.4753    1.0000 </r>
       <r>    5.6785    1.0000 </r>
       <r>    7.5072   -0.0000 </r>
       <r>    7.9002   -0.0000 </r>
       <r>    8.0008   -0.0000 </r>
       <r>    8.9784   -0.0000 </r>
       <r>   12.2503    0.0000 </r>
       <r>   16.4500    0.0000 </r>
       <r>   18.0226    0.0000 </r>
       <r>   20.9042    0.0000 </r>
       <r>   23.1081    0.0000 </r>
       <r>   24.5897    0.0000 </r>
       <r>   29.9597    0.0000 </r>
       <r>   31.8958    0.0000 </r>
       <r>   33.4185    0.0000 </r>
       <r>   36.8455    0.0000 </r>
       <r>   37.7645    0.0000 </r>
       <r>   39.2483    0.0000 </r>
       <r>   42.4796    0.0000 </r>
       <r>   44.6782    0.0000 </r>
       <r>   50.6661    0.0000 </r>
       <r>   51.1881    0.0000 </r>
       <r>   54.5589    0.0000 </r>
       <r>   56.1402    0.0000 </r>
       <r>   57.3701    0.0000 </r>
       <r>   58.5761    0.0000 </r>
       <r>   59.6684    0.0000 </r>
       <r>   59.6781    0.0000 </r>
       <r>   61.2361    0.0000 </r>
       <r>   62.1260    0.0000 </r>
       <r>   62.5946    0.0000 </r>
       <r>   64.4874    0.0000 </r>
       <r>   65.4937    0.0000 </r>
       <r>   65.5490    0.0000 </r>
       <r>   66.1026    0.0000 </r>
      </set>
      <set comment="kpoint 23">
       <r>   -1.0413    1.0000 </r>
       <r>    2.4543    1.0000 </r>
       <r>    4.3313    1.0000 </r>
       <r>    4.4580    1.0000 </r>
       <r>    5.0934    1.0000 </r>
       <r>    5.1850    1.0000 </r>
       <r>    5.7575    1.0000 </r>
       <r>    5.9600    1.0000 </r>
       <r>    6.1034    1.0000 </r>
       <r>    6.3604    1.0106 </r>
       <r>    7.4907   -0.0000 </r>
       <r>    9.5217   -0.0000 </r>
       <r>   14.3492    0.0000 </r>
       <r>   26.8159    0.0000 </r>
       <r>   28.0379    0.0000 </r>
       <r>   30.0097    0.0000 </r>
       <r>   31.6835    0.0000 </r>
       <r>   33.7250    0.0000 </r>
       <r>   34.2593    0.0000 </r>
       <r>   34.4264    0.0000 </r>
       <r>   36.6174    0.0000 </r>
       <r>   40.5099    0.0000 </r>
       <r>   40.8372    0.0000 </r>
       <r>   41.6783    0.0000 </r>
       <r>   41.8662    0.0000 </r>
       <r>   43.1340    0.0000 </r>
       <r>   43.6118    0.0000 </r>
       <r>   48.8723    0.0000 </r>
       <r>   50.4108    0.0000 </r>
       <r>   51.3034    0.0000 </r>
       <r>   51.5683    0.0000 </r>
       <r>   54.7633    0.0000 </r>
       <r>   54.9366    0.0000 </r>
       <r>   57.4596    0.0000 </r>
       <r>   58.7128    0.0000 </r>
       <r>   60.1345    0.0000 </r>
       <r>   60.5497    0.0000 </r>
       <r>   62.9986    0.0000 </r>
       <r>   64.0438    0.0000 </r>
       <r>   65.7548    0.0000 </r>
      </set>
      <set comment="kpoint 24">
       <r>    0.1016    1.0000 </r>
       <r>    3.0366    1.0000 </r>
       <r>    3.6120    1.0000 </r>
       <r>    4.1853    1.0000 </r>
       <r>    4.8374    1.0000 </r>
       <r>    5.3421    1.0000 </r>
       <r>    5.7944    1.0000 </r>
       <r>    6.0410    1.0000 </r>
       <r>    6.5238    1.0322 </r>
       <r>    6.7390    0.5138 </r>
       <r>    7.4834   -0.0000 </r>
       <r>   11.0712   -0.0000 </r>
       <r>   14.7825    0.0000 </r>
       <r>   23.1209    0.0000 </r>
       <r>   25.7154    0.0000 </r>
       <r>   28.2700    0.0000 </r>
       <r>   30.2216    0.0000 </r>
       <r>   31.5514    0.0000 </r>
       <r>   33.0851    0.0000 </r>
       <r>   34.6421    0.0000 </r>
       <r>   35.8152    0.0000 </r>
       <r>   39.5633    0.0000 </r>
       <r>   40.2958    0.0000 </r>
       <r>   41.8010    0.0000 </r>
       <r>   44.2464    0.0000 </r>
       <r>   45.1942    0.0000 </r>
       <r>   47.4942    0.0000 </r>
       <r>   50.2858    0.0000 </r>
       <r>   52.6279    0.0000 </r>
       <r>   53.4537    0.0000 </r>
       <r>   54.4946    0.0000 </r>
       <r>   55.9650    0.0000 </r>
       <r>   56.1941    0.0000 </r>
       <r>   57.6908    0.0000 </r>
       <r>   58.0153    0.0000 </r>
       <r>   59.4316    0.0000 </r>
       <r>   61.6335    0.0000 </r>
       <r>   63.7426    0.0000 </r>
       <r>   64.5482    0.0000 </r>
       <r>   65.7211    0.0000 </r>
      </set>
      <set comment="kpoint 25">
       <r>    1.4265    1.0000 </r>
       <r>    2.9728    1.0000 </r>
       <r>    3.1307    1.0000 </r>
       <r>    4.2171    1.0000 </r>
       <r>    4.8653    1.0000 </r>
       <r>    5.2483    1.0000 </r>
       <r>    5.7224    1.0000 </r>
       <r>    6.3700    1.0122 </r>
       <r>    7.2463   -0.0011 </r>
       <r>    7.3960   -0.0000 </r>
       <r>    7.7143   -0.0000 </r>
       <r>   12.6562    0.0000 </r>
       <r>   15.6151    0.0000 </r>
       <r>   19.4143    0.0000 </r>
       <r>   23.9952    0.0000 </r>
       <r>   24.8838    0.0000 </r>
       <r>   28.1077    0.0000 </r>
       <r>   29.3989    0.0000 </r>
       <r>   33.5111    0.0000 </r>
       <r>   34.1001    0.0000 </r>
       <r>   35.2948    0.0000 </r>
       <r>   39.0165    0.0000 </r>
       <r>   40.3025    0.0000 </r>
       <r>   42.9290    0.0000 </r>
       <r>   45.9270    0.0000 </r>
       <r>   47.7661    0.0000 </r>
       <r>   49.6549    0.0000 </r>
       <r>   51.5546    0.0000 </r>
       <r>   52.6727    0.0000 </r>
       <r>   53.9273    0.0000 </r>
       <r>   56.0373    0.0000 </r>
       <r>   57.3933    0.0000 </r>
       <r>   58.0592    0.0000 </r>
       <r>   59.2251    0.0000 </r>
       <r>   60.8156    0.0000 </r>
       <r>   62.2171    0.0000 </r>
       <r>   63.4138    0.0000 </r>
       <r>   64.1037    0.0000 </r>
       <r>   64.6705    0.0000 </r>
       <r>   65.8834    0.0000 </r>
      </set>
      <set comment="kpoint 26">
       <r>    2.2193    1.0000 </r>
       <r>    2.6331    1.0000 </r>
       <r>    2.9416    1.0000 </r>
       <r>    4.3054    1.0000 </r>
       <r>    5.2274    1.0000 </r>
       <r>    5.2674    1.0000 </r>
       <r>    5.5222    1.0000 </r>
       <r>    7.2519   -0.0009 </r>
       <r>    7.4038   -0.0000 </r>
       <r>    7.7582   -0.0000 </r>
       <r>    8.8297   -0.0000 </r>
       <r>   13.3337    0.0000 </r>
       <r>   16.1296    0.0000 </r>
       <r>   18.0546    0.0000 </r>
       <r>   21.7971    0.0000 </r>
       <r>   22.8795    0.0000 </r>
       <r>   24.9242    0.0000 </r>
       <r>   28.5307    0.0000 </r>
       <r>   32.6261    0.0000 </r>
       <r>   34.0214    0.0000 </r>
       <r>   36.2620    0.0000 </r>
       <r>   38.6806    0.0000 </r>
       <r>   41.2305    0.0000 </r>
       <r>   42.4606    0.0000 </r>
       <r>   46.1545    0.0000 </r>
       <r>   48.8268    0.0000 </r>
       <r>   50.5615    0.0000 </r>
       <r>   52.6481    0.0000 </r>
       <r>   54.4677    0.0000 </r>
       <r>   55.7817    0.0000 </r>
       <r>   57.1072    0.0000 </r>
       <r>   58.7708    0.0000 </r>
       <r>   59.9093    0.0000 </r>
       <r>   61.6756    0.0000 </r>
       <r>   62.6359    0.0000 </r>
       <r>   63.2704    0.0000 </r>
       <r>   63.7305    0.0000 </r>
       <r>   64.4696    0.0000 </r>
       <r>   65.7985    0.0000 </r>
       <r>   66.7530    0.0000 </r>
      </set>
      <set comment="kpoint 27">
       <r>    2.3583    1.0000 </r>
       <r>    2.4688    1.0000 </r>
       <r>    2.9324    1.0000 </r>
       <r>    4.3735    1.0000 </r>
       <r>    5.2117    1.0000 </r>
       <r>    5.5022    1.0000 </r>
       <r>    5.5308    1.0000 </r>
       <r>    7.3942   -0.0000 </r>
       <r>    7.7846   -0.0000 </r>
       <r>    7.8156   -0.0000 </r>
       <r>    9.9970   -0.0000 </r>
       <r>   12.0770   -0.0000 </r>
       <r>   17.2592    0.0000 </r>
       <r>   18.0069    0.0000 </r>
       <r>   20.9635    0.0000 </r>
       <r>   21.9130    0.0000 </r>
       <r>   23.3596    0.0000 </r>
       <r>   28.2258    0.0000 </r>
       <r>   32.2288    0.0000 </r>
       <r>   33.9050    0.0000 </r>
       <r>   36.9459    0.0000 </r>
       <r>   38.6761    0.0000 </r>
       <r>   40.9817    0.0000 </r>
       <r>   43.7496    0.0000 </r>
       <r>   44.1818    0.0000 </r>
       <r>   49.3772    0.0000 </r>
       <r>   50.9021    0.0000 </r>
       <r>   53.7187    0.0000 </r>
       <r>   56.1097    0.0000 </r>
       <r>   56.4338    0.0000 </r>
       <r>   59.1537    0.0000 </r>
       <r>   59.2019    0.0000 </r>
       <r>   60.0714    0.0000 </r>
       <r>   60.7639    0.0000 </r>
       <r>   61.3911    0.0000 </r>
       <r>   64.4558    0.0000 </r>
       <r>   65.3195    0.0000 </r>
       <r>   65.6669    0.0000 </r>
       <r>   66.1034    0.0000 </r>
       <r>   66.9052    0.0000 </r>
      </set>
      <set comment="kpoint 28">
       <r>    1.3350    1.0000 </r>
       <r>    3.1930    1.0000 </r>
       <r>    3.5294    1.0000 </r>
       <r>    3.7458    1.0000 </r>
       <r>    4.9093    1.0000 </r>
       <r>    5.0289    1.0000 </r>
       <r>    5.8197    1.0000 </r>
       <r>    5.9149    1.0000 </r>
       <r>    7.2363   -0.0013 </r>
       <r>    7.3012   -0.0003 </r>
       <r>    7.7791   -0.0000 </r>
       <r>   12.5368    0.0000 </r>
       <r>   15.6102    0.0000 </r>
       <r>   21.1682    0.0000 </r>
       <r>   21.8980    0.0000 </r>
       <r>   26.4664    0.0000 </r>
       <r>   27.6341    0.0000 </r>
       <r>   30.5015    0.0000 </r>
       <r>   30.9629    0.0000 </r>
       <r>   34.1955    0.0000 </r>
       <r>   37.6108    0.0000 </r>
       <r>   41.0641    0.0000 </r>
       <r>   41.3550    0.0000 </r>
       <r>   43.2771    0.0000 </r>
       <r>   43.6536    0.0000 </r>
       <r>   46.9085    0.0000 </r>
       <r>   47.1719    0.0000 </r>
       <r>   51.4512    0.0000 </r>
       <r>   52.1941    0.0000 </r>
       <r>   53.6957    0.0000 </r>
       <r>   56.0098    0.0000 </r>
       <r>   57.9540    0.0000 </r>
       <r>   58.1696    0.0000 </r>
       <r>   60.0271    0.0000 </r>
       <r>   60.5103    0.0000 </r>
       <r>   61.9958    0.0000 </r>
       <r>   62.0980    0.0000 </r>
       <r>   64.5360    0.0000 </r>
       <r>   64.8687    0.0000 </r>
       <r>   64.9889    0.0000 </r>
      </set>
      <set comment="kpoint 29">
       <r>    2.4893    1.0000 </r>
       <r>    2.9818    1.0000 </r>
       <r>    3.2537    1.0000 </r>
       <r>    3.9293    1.0000 </r>
       <r>    4.8373    1.0000 </r>
       <r>    5.1753    1.0000 </r>
       <r>    5.4738    1.0000 </r>
       <r>    6.4226    1.0231 </r>
       <r>    7.2219   -0.0018 </r>
       <r>    7.7033   -0.0000 </r>
       <r>    9.0104   -0.0000 </r>
       <r>   14.0716    0.0000 </r>
       <r>   16.7175    0.0000 </r>
       <r>   18.3135    0.0000 </r>
       <r>   20.3002    0.0000 </r>
       <r>   23.7089    0.0000 </r>
       <r>   26.1099    0.0000 </r>
       <r>   27.0552    0.0000 </r>
       <r>   29.8363    0.0000 </r>
       <r>   35.7844    0.0000 </r>
       <r>   38.2977    0.0000 </r>
       <r>   41.0755    0.0000 </r>
       <r>   42.6668    0.0000 </r>
       <r>   44.4120    0.0000 </r>
       <r>   45.2446    0.0000 </r>
       <r>   46.4018    0.0000 </r>
       <r>   49.4294    0.0000 </r>
       <r>   49.7285    0.0000 </r>
       <r>   52.4224    0.0000 </r>
       <r>   54.6040    0.0000 </r>
       <r>   56.4355    0.0000 </r>
       <r>   59.1419    0.0000 </r>
       <r>   60.2514    0.0000 </r>
       <r>   61.3811    0.0000 </r>
       <r>   63.3065    0.0000 </r>
       <r>   63.8261    0.0000 </r>
       <r>   64.0848    0.0000 </r>
       <r>   65.2017    0.0000 </r>
       <r>   65.8695    0.0000 </r>
       <r>   66.6039    0.0000 </r>
      </set>
      <set comment="kpoint 30">
       <r>    2.7120    1.0000 </r>
       <r>    2.9643    1.0000 </r>
       <r>    3.2087    1.0000 </r>
       <r>    4.1970    1.0000 </r>
       <r>    4.9193    1.0000 </r>
       <r>    5.0661    1.0000 </r>
       <r>    5.5551    1.0000 </r>
       <r>    7.0971   -0.0155 </r>
       <r>    7.1637   -0.0056 </r>
       <r>    7.6886   -0.0000 </r>
       <r>   10.5958   -0.0000 </r>
       <r>   13.4769    0.0000 </r>
       <r>   17.2480    0.0000 </r>
       <r>   18.8842    0.0000 </r>
       <r>   19.3110    0.0000 </r>
       <r>   21.5261    0.0000 </r>
       <r>   24.0502    0.0000 </r>
       <r>   25.5219    0.0000 </r>
       <r>   29.2437    0.0000 </r>
       <r>   37.0362    0.0000 </r>
       <r>   38.6982    0.0000 </r>
       <r>   40.2167    0.0000 </r>
       <r>   43.3348    0.0000 </r>
       <r>   44.1784    0.0000 </r>
       <r>   46.6259    0.0000 </r>
       <r>   46.8825    0.0000 </r>
       <r>   49.7108    0.0000 </r>
       <r>   51.1932    0.0000 </r>
       <r>   53.9424    0.0000 </r>
       <r>   54.8161    0.0000 </r>
       <r>   55.8616    0.0000 </r>
       <r>   59.1162    0.0000 </r>
       <r>   59.3510    0.0000 </r>
       <r>   60.9382    0.0000 </r>
       <r>   63.7602    0.0000 </r>
       <r>   64.9051    0.0000 </r>
       <r>   65.6930    0.0000 </r>
       <r>   66.2661    0.0000 </r>
       <r>   66.6659    0.0000 </r>
       <r>   66.9056    0.0000 </r>
      </set>
      <set comment="kpoint 31">
       <r>    2.9866    1.0000 </r>
       <r>    3.3100    1.0000 </r>
       <r>    3.5736    1.0000 </r>
       <r>    3.7087    1.0000 </r>
       <r>    4.7129    1.0000 </r>
       <r>    4.9876    1.0000 </r>
       <r>    5.5157    1.0000 </r>
       <r>    6.6893    0.7159 </r>
       <r>    7.0452   -0.0270 </r>
       <r>    7.6596   -0.0000 </r>
       <r>   10.7454   -0.0000 </r>
       <r>   15.2925    0.0000 </r>
       <r>   16.3409    0.0000 </r>
       <r>   17.7613    0.0000 </r>
       <r>   19.4920    0.0000 </r>
       <r>   23.0044    0.0000 </r>
       <r>   23.1001    0.0000 </r>
       <r>   25.9450    0.0000 </r>
       <r>   26.6953    0.0000 </r>
       <r>   37.5154    0.0000 </r>
       <r>   40.6308    0.0000 </r>
       <r>   42.9219    0.0000 </r>
       <r>   43.2476    0.0000 </r>
       <r>   45.2175    0.0000 </r>
       <r>   45.3686    0.0000 </r>
       <r>   46.8651    0.0000 </r>
       <r>   48.9263    0.0000 </r>
       <r>   50.4695    0.0000 </r>
       <r>   50.7753    0.0000 </r>
       <r>   55.0925    0.0000 </r>
       <r>   55.5273    0.0000 </r>
       <r>   57.7263    0.0000 </r>
       <r>   59.1316    0.0000 </r>
       <r>   61.1022    0.0000 </r>
       <r>   64.6110    0.0000 </r>
       <r>   65.2776    0.0000 </r>
       <r>   65.4734    0.0000 </r>
       <r>   66.8731    0.0000 </r>
       <r>   66.9362    0.0000 </r>
       <r>   67.4476    0.0000 </r>
      </set>
      <set comment="kpoint 32">
       <r>    3.0350    1.0000 </r>
       <r>    3.4713    1.0000 </r>
       <r>    3.5374    1.0000 </r>
       <r>    3.9350    1.0000 </r>
       <r>    4.7036    1.0000 </r>
       <r>    4.7679    1.0000 </r>
       <r>    5.6479    1.0000 </r>
       <r>    6.9785   -0.0351 </r>
       <r>    7.0480   -0.0264 </r>
       <r>    7.3493   -0.0001 </r>
       <r>   12.5455    0.0000 </r>
       <r>   13.7123    0.0000 </r>
       <r>   15.8969    0.0000 </r>
       <r>   19.4046    0.0000 </r>
       <r>   19.5141    0.0000 </r>
       <r>   21.6714    0.0000 </r>
       <r>   23.1101    0.0000 </r>
       <r>   24.0639    0.0000 </r>
       <r>   26.1455    0.0000 </r>
       <r>   38.4856    0.0000 </r>
       <r>   40.9740    0.0000 </r>
       <r>   42.7918    0.0000 </r>
       <r>   43.4988    0.0000 </r>
       <r>   45.5479    0.0000 </r>
       <r>   46.1690    0.0000 </r>
       <r>   47.9281    0.0000 </r>
       <r>   49.5320    0.0000 </r>
       <r>   50.4533    0.0000 </r>
       <r>   50.8835    0.0000 </r>
       <r>   53.7365    0.0000 </r>
       <r>   55.0797    0.0000 </r>
       <r>   56.1022    0.0000 </r>
       <r>   59.2700    0.0000 </r>
       <r>   59.7978    0.0000 </r>
       <r>   64.9638    0.0000 </r>
       <r>   65.7797    0.0000 </r>
       <r>   66.7006    0.0000 </r>
       <r>   67.1410    0.0000 </r>
       <r>   67.2567    0.0000 </r>
       <r>   67.5335    0.0000 </r>
      </set>
      <set comment="kpoint 33">
       <r>   -1.7671    1.0000 </r>
       <r>    1.6289    1.0000 </r>
       <r>    4.4573    1.0000 </r>
       <r>    5.1837    1.0000 </r>
       <r>    5.1838    1.0000 </r>
       <r>    5.2596    1.0000 </r>
       <r>    5.4362    1.0000 </r>
       <r>    5.4363    1.0000 </r>
       <r>    6.5985    0.9663 </r>
       <r>    6.5985    0.9663 </r>
       <r>    7.4313   -0.0000 </r>
       <r>    7.4314   -0.0000 </r>
       <r>   15.1285    0.0000 </r>
       <r>   27.5199    0.0000 </r>
       <r>   30.3892    0.0000 </r>
       <r>   32.4884    0.0000 </r>
       <r>   35.4590    0.0000 </r>
       <r>   35.4591    0.0000 </r>
       <r>   36.1125    0.0000 </r>
       <r>   36.1127    0.0000 </r>
       <r>   38.1102    0.0000 </r>
[...]
       <r>   21.4007    0.0000 </r>
       <r>   22.1211    0.0000 </r>
       <r>   26.2334    0.0000 </r>
       <r>   27.3118    0.0000 </r>
       <r>   31.7751    0.0000 </r>
       <r>   32.8208    0.0000 </r>
       <r>   35.1968    0.0000 </r>
       <r>   36.6942    0.0000 </r>
       <r>   41.5624    0.0000 </r>
       <r>   41.9301    0.0000 </r>
       <r>   51.0816    0.0000 </r>
       <r>   51.8082    0.0000 </r>
       <r>   51.9785    0.0000 </r>
       <r>   53.5650    0.0000 </r>
       <r>   55.6643    0.0000 </r>
       <r>   56.3427    0.0000 </r>
       <r>   56.7442    0.0000 </r>
       <r>   57.9357    0.0000 </r>
       <r>   60.1212    0.0000 </r>
       <r>   60.7671    0.0000 </r>
       <r>   62.3014    0.0000 </r>
       <r>   63.0880    0.0000 </r>
       <r>   64.5281    0.0000 </r>
       <r>   64.5437    0.0000 </r>
       <r>   65.4314    0.0000 </r>
       <r>   65.8085    0.0000 </r>
      </set>
      <set comment="kpoint 95">
       <r>    2.9846    1.0000 </r>
       <r>    3.0337    1.0000 </r>
       <r>    3.9242    1.0000 </r>
       <r>    4.1334    1.0000 </r>
       <r>    4.5160    1.0000 </r>
       <r>    4.7111    1.0000 </r>
       <r>    5.8658    1.0000 </r>
       <r>    6.0585    1.0000 </r>
       <r>    7.5033   -0.0000 </r>
       <r>    7.6834   -0.0000 </r>
       <r>   11.6238   -0.0000 </r>
       <r>   12.1317   -0.0000 </r>
       <r>   17.8058    0.0000 </r>
       <r>   18.2139    0.0000 </r>
       <r>   19.5295    0.0000 </r>
       <r>   19.9107    0.0000 </r>
       <r>   26.3849    0.0000 </r>
       <r>   27.9486    0.0000 </r>
       <r>   31.8984    0.0000 </r>
       <r>   33.2313    0.0000 </r>
       <r>   34.9088    0.0000 </r>
       <r>   35.9652    0.0000 </r>
       <r>   43.9772    0.0000 </r>
       <r>   44.3777    0.0000 </r>
       <r>   47.9967    0.0000 </r>
       <r>   48.0994    0.0000 </r>
       <r>   54.0892    0.0000 </r>
       <r>   55.2758    0.0000 </r>
       <r>   55.8652    0.0000 </r>
       <r>   56.3454    0.0000 </r>
       <r>   58.0458    0.0000 </r>
       <r>   58.1822    0.0000 </r>
       <r>   59.1465    0.0000 </r>
       <r>   59.1541    0.0000 </r>
       <r>   60.9582    0.0000 </r>
       <r>   61.8334    0.0000 </r>
       <r>   64.2876    0.0000 </r>
       <r>   64.5364    0.0000 </r>
       <r>   65.4572    0.0000 </r>
       <r>   65.5574    0.0000 </r>
      </set>
      <set comment="kpoint 96">
       <r>    3.1886    1.0000 </r>
       <r>    3.3103    1.0000 </r>
       <r>    3.8706    1.0000 </r>
       <r>    3.9625    1.0000 </r>
       <r>    4.5092    1.0000 </r>
       <r>    4.6350    1.0000 </r>
       <r>    5.9144    1.0000 </r>
       <r>    6.0598    1.0000 </r>
       <r>    7.4840   -0.0000 </r>
       <r>    7.5490   -0.0000 </r>
       <r>   13.4443    0.0000 </r>
       <r>   13.5758    0.0000 </r>
       <r>   16.1202    0.0000 </r>
       <r>   16.4351    0.0000 </r>
       <r>   18.8810    0.0000 </r>
       <r>   19.3224    0.0000 </r>
       <r>   28.1005    0.0000 </r>
       <r>   28.7678    0.0000 </r>
       <r>   30.9317    0.0000 </r>
       <r>   31.2860    0.0000 </r>
       <r>   34.6134    0.0000 </r>
       <r>   35.4214    0.0000 </r>
       <r>   45.1021    0.0000 </r>
       <r>   45.7267    0.0000 </r>
       <r>   49.8081    0.0000 </r>
       <r>   50.2353    0.0000 </r>
       <r>   52.2508    0.0000 </r>
       <r>   52.6407    0.0000 </r>
       <r>   55.6510    0.0000 </r>
       <r>   56.5476    0.0000 </r>
       <r>   58.1007    0.0000 </r>
       <r>   58.9439    0.0000 </r>
       <r>   59.0981    0.0000 </r>
       <r>   59.7480    0.0000 </r>
       <r>   60.9367    0.0000 </r>
       <r>   61.9769    0.0000 </r>
       <r>   63.4627    0.0000 </r>
       <r>   63.5511    0.0000 </r>
       <r>   67.0007    0.0000 </r>
       <r>   67.0632    0.0000 </r>
      </set>
     </set>
    </set>
   </array>
  </eigenvalues>
  <separator name="orbital magnetization" >
   <v name="MAGDIPOLOUT">      0.00000000      0.00000000      0.00000000</v>
  </separator>
  <dos>
   <i name="efermi">      6.74229234 </i>
   <total>
    <array>
     <dimension dim="1">gridpoints</dimension>
     <dimension dim="2">spin</dimension>
     <field>energy</field>
     <field>total</field>
     <field>integrated</field>
     <set>
      <set comment="spin 1">
       <r>    -5.5831     0.0000     0.0000 </r>
       <r>    -5.3258     0.0000     0.0000 </r>
       <r>    -5.0685     0.0000     0.0000 </r>
       <r>    -4.8112     0.0000     0.0000 </r>
       <r>    -4.5539     0.0000     0.0000 </r>
       <r>    -4.2966     0.0000     0.0000 </r>
       <r>    -4.0393     0.0000     0.0000 </r>
       <r>    -3.7820    -0.0000    -0.0000 </r>
       <r>    -3.5247    -0.0000    -0.0000 </r>
       <r>    -3.2674    -0.0000    -0.0000 </r>
       <r>    -3.0101    -0.0000    -0.0000 </r>
       <r>    -2.7528    -0.0000    -0.0000 </r>
       <r>    -2.4955    -0.0000    -0.0000 </r>
       <r>    -2.2382    -0.0004    -0.0001 </r>
       <r>    -1.9809     0.0087     0.0021 </r>
       <r>    -1.7236     0.0557     0.0165 </r>
       <r>    -1.4664     0.1034     0.0431 </r>
       <r>    -1.2091     0.0594     0.0583 </r>
       <r>    -0.9518     0.1552     0.0983 </r>
       <r>    -0.6945     0.1798     0.1445 </r>
       <r>    -0.4372     0.1961     0.1950 </r>
       <r>    -0.1799     0.0828     0.2163 </r>
       <r>     0.0774     0.2512     0.2809 </r>
       <r>     0.3347     0.2964     0.3572 </r>
       <r>     0.5920     0.3082     0.4365 </r>
       <r>     0.8493     0.3034     0.5146 </r>
       <r>     1.1066     0.2264     0.5728 </r>
       <r>     1.3639     0.4207     0.6810 </r>
       <r>     1.6212     0.7033     0.8620 </r>
       <r>     1.8785     0.9182     1.0983 </r>
       <r>     2.1358     1.5145     1.4879 </r>
       <r>     2.3931     1.9816     1.9978 </r>
       <r>     2.6504     2.8510     2.7313 </r>
       <r>     2.9077     2.2300     3.3051 </r>
       <r>     3.1650     2.9692     4.0691 </r>
       <r>     3.4222     2.3514     4.6741 </r>
       <r>     3.6795     3.3392     5.5332 </r>
       <r>     3.9368     3.2256     6.3631 </r>
       <r>     4.1941     3.1212     7.1662 </r>
       <r>     4.4514     2.4055     7.7851 </r>
       <r>     4.7087     2.7471     8.4919 </r>
       <r>     4.9660     4.2662     9.5896 </r>
       <r>     5.2233     3.8102    10.5699 </r>
       <r>     5.4806     3.9985    11.5987 </r>
       <r>     5.7379     3.5304    12.5071 </r>
       <r>     5.9952     3.8483    13.4972 </r>
       <r>     6.2525     3.2989    14.3460 </r>
       <r>     6.5098     3.5086    15.2488 </r>
       <r>     6.7671     3.1929    16.0703 </r>
       <r>     7.0244     2.9200    16.8216 </r>
       <r>     7.2817     4.4744    17.9728 </r>
       <r>     7.5390     5.1841    19.3067 </r>
       <r>     7.7963     4.5710    20.4828 </r>
       <r>     8.0535     2.7898    21.2006 </r>
       <r>     8.3108     0.2379    21.2618 </r>
       <r>     8.5681     0.4878    21.3873 </r>
       <r>     8.8254     0.7383    21.5772 </r>
       <r>     9.0827     0.7904    21.7806 </r>
       <r>     9.3400     0.7265    21.9675 </r>
       <r>     9.5973     0.5219    22.1018 </r>
       <r>     9.8546     0.3799    22.1996 </r>
       <r>    10.1119     0.4279    22.3097 </r>
       <r>    10.3692     0.4085    22.4148 </r>
       <r>    10.6265     0.5798    22.5640 </r>
       <r>    10.8838     0.6317    22.7265 </r>
       <r>    11.1411     0.4473    22.8416 </r>
       <r>    11.3984     0.4106    22.9473 </r>
       <r>    11.6557     0.5258    23.0825 </r>
       <r>    11.9130     0.4000    23.1855 </r>
       <r>    12.1703     0.2228    23.2428 </r>
       <r>    12.4276     0.3347    23.3289 </r>
       <r>    12.6849     0.3943    23.4304 </r>
       <r>    12.9421     0.4224    23.5390 </r>
       <r>    13.1994     0.2169    23.5948 </r>
       <r>    13.4567     0.3559    23.6864 </r>
       <r>    13.7140     0.5849    23.8369 </r>
       <r>    13.9713     0.3482    23.9265 </r>
       <r>    14.2286     0.2909    24.0013 </r>
       <r>    14.4859     0.2530    24.0664 </r>
       <r>    14.7432     0.1968    24.1171 </r>
       <r>    15.0005     0.1253    24.1493 </r>
       <r>    15.2578     0.1462    24.1869 </r>
       <r>    15.5151     0.1913    24.2362 </r>
       <r>    15.7724     0.4200    24.3442 </r>
       <r>    16.0297     0.3794    24.4418 </r>
       <r>    16.2870     0.6787    24.6164 </r>
       <r>    16.5443     0.9708    24.8662 </r>
       <r>    16.8016     0.8493    25.0847 </r>
       <r>    17.0589     0.6239    25.2453 </r>
       <r>    17.3162     0.7029    25.4261 </r>
       <r>    17.5734     0.4331    25.5375 </r>
       <r>    17.8307     0.6920    25.7156 </r>
       <r>    18.0880     0.8326    25.9298 </r>
       <r>    18.3453     0.8036    26.1366 </r>
       <r>    18.6026     0.5773    26.2851 </r>
       <r>    18.8599     0.9664    26.5338 </r>
       <r>    19.1172     0.5149    26.6663 </r>
       <r>    19.3745     0.5636    26.8113 </r>
       <r>    19.6318     0.7908    27.0147 </r>
       <r>    19.8891     0.5843    27.1651 </r>
       <r>    20.1464     0.7223    27.3509 </r>
       <r>    20.4037     0.5270    27.4865 </r>
       <r>    20.6610     0.5942    27.6394 </r>
       <r>    20.9183     0.5935    27.7921 </r>
       <r>    21.1756     0.4021    27.8955 </r>
       <r>    21.4329     0.7276    28.0827 </r>
       <r>    21.6902     0.7111    28.2657 </r>
       <r>    21.9475     0.5668    28.4115 </r>
       <r>    22.2048     0.8213    28.6228 </r>
       <r>    22.4620     0.5235    28.7575 </r>
       <r>    22.7193     0.6375    28.9216 </r>
       <r>    22.9766     0.7701    29.1197 </r>
       <r>    23.2339     1.4074    29.4818 </r>
       <r>    23.4912     0.7738    29.6809 </r>
       <r>    23.7485     0.7275    29.8681 </r>
       <r>    24.0058     1.0545    30.1394 </r>
       <r>    24.2631     0.6194    30.2988 </r>
       <r>    24.5204     0.6596    30.4685 </r>
       <r>    24.7777     1.0289    30.7332 </r>
       <r>    25.0350     1.1089    31.0185 </r>
       <r>    25.2923     1.0404    31.2862 </r>
       <r>    25.5496     0.8517    31.5054 </r>
       <r>    25.8069     0.7658    31.7024 </r>
       <r>    26.0642     1.2158    32.0152 </r>
       <r>    26.3215     1.0251    32.2790 </r>
       <r>    26.5788     1.0839    32.5579 </r>
       <r>    26.8361     0.6448    32.7238 </r>
       <r>    27.0933     0.7396    32.9141 </r>
       <r>    27.3506     0.9235    33.1517 </r>
       <r>    27.6079     0.7919    33.3554 </r>
       <r>    27.8652     0.8804    33.5820 </r>
       <r>    28.1225     0.8614    33.8036 </r>
       <r>    28.3798     0.9367    34.0446 </r>
       <r>    28.6371     0.6820    34.2201 </r>
       <r>    28.8944     0.7233    34.4062 </r>
       <r>    29.1517     0.7200    34.5914 </r>
       <r>    29.4090     0.6462    34.7577 </r>
       <r>    29.6663     0.4544    34.8746 </r>
       <r>    29.9236     0.6157    35.0330 </r>
       <r>    30.1809     0.9202    35.2698 </r>
       <r>    30.4382     0.8422    35.4865 </r>
       <r>    30.6955     0.7301    35.6743 </r>
       <r>    30.9528     0.7710    35.8727 </r>
       <r>    31.2101     0.5735    36.0202 </r>
       <r>    31.4674     0.9032    36.2526 </r>
       <r>    31.7247     0.9826    36.5054 </r>
       <r>    31.9819     0.9468    36.7491 </r>
       <r>    32.2392     0.6863    36.9256 </r>
       <r>    32.4965     0.6836    37.1015 </r>
       <r>    32.7538     0.7969    37.3066 </r>
       <r>    33.0111     0.6029    37.4617 </r>
       <r>    33.2684     0.8667    37.6847 </r>
       <r>    33.5257     1.1199    37.9728 </r>
       <r>    33.7830     0.9200    38.2095 </r>
       <r>    34.0403     0.7299    38.3974 </r>
       <r>    34.2976     1.2319    38.7143 </r>
       <r>    34.5549     0.8217    38.9257 </r>
       <r>    34.8122     1.0967    39.2079 </r>
       <r>    35.0695     0.7928    39.4119 </r>
       <r>    35.3268     1.2616    39.7365 </r>
       <r>    35.5841     1.2258    40.0519 </r>
       <r>    35.8414     1.1348    40.3439 </r>
       <r>    36.0987     0.8398    40.5599 </r>
       <r>    36.3560     1.0414    40.8279 </r>
       <r>    36.6132     0.6771    41.0021 </r>
       <r>    36.8705     0.7964    41.2070 </r>
       <r>    37.1278     0.7079    41.3892 </r>
       <r>    37.3851     0.5043    41.5189 </r>
       <r>    37.6424     0.7551    41.7132 </r>
       <r>    37.8997     0.8313    41.9271 </r>
       <r>    38.1570     0.6039    42.0824 </r>
       <r>    38.4143     0.7018    42.2630 </r>
       <r>    38.6716     1.1241    42.5522 </r>
       <r>    38.9289     1.2071    42.8628 </r>
       <r>    39.1862     1.0177    43.1247 </r>
       <r>    39.4435     0.6134    43.2825 </r>
       <r>    39.7008     0.9045    43.5152 </r>
       <r>    39.9581     0.7284    43.7026 </r>
       <r>    40.2154     0.7139    43.8863 </r>
       <r>    40.4727     1.1130    44.1727 </r>
       <r>    40.7300     0.6635    44.3434 </r>
       <r>    40.9873     1.0489    44.6133 </r>
       <r>    41.2446     1.4488    44.9860 </r>
       <r>    41.5018     1.0453    45.2550 </r>
       <r>    41.7591     0.7392    45.4452 </r>
       <r>    42.0164     1.3384    45.7895 </r>
       <r>    42.2737     0.7085    45.9718 </r>
       <r>    42.5310     0.8912    46.2011 </r>
       <r>    42.7883     1.3025    46.5363 </r>
       <r>    43.0456     1.0649    46.8103 </r>
       <r>    43.3029     1.2001    47.1190 </r>
       <r>    43.5602     1.2837    47.4493 </r>
       <r>    43.8175     0.9244    47.6872 </r>
       <r>    44.0748     1.1811    47.9911 </r>
       <r>    44.3321     1.1796    48.2946 </r>
       <r>    44.5894     0.8830    48.5218 </r>
       <r>    44.8467     0.6993    48.7017 </r>
       <r>    45.1040     1.1174    48.9892 </r>
       <r>    45.3613     1.0026    49.2472 </r>
       <r>    45.6186     0.6016    49.4020 </r>
       <r>    45.8759     0.5174    49.5351 </r>
       <r>    46.1331     0.9623    49.7827 </r>
       <r>    46.3904     1.2591    50.1066 </r>
       <r>    46.6477     1.1854    50.4116 </r>
       <r>    46.9050     1.0724    50.6876 </r>
       <r>    47.1623     0.8452    50.9050 </r>
       <r>    47.4196     0.8707    51.1291 </r>
       <r>    47.6769     1.0647    51.4030 </r>
       <r>    47.9342     1.0054    51.6617 </r>
       <r>    48.1915     1.2214    51.9759 </r>
       <r>    48.4488     1.0288    52.2407 </r>
       <r>    48.7061     1.0546    52.5120 </r>
       <r>    48.9634     0.7958    52.7167 </r>
       <r>    49.2207     0.5934    52.8694 </r>
       <r>    49.4780     1.4975    53.2547 </r>
       <r>    49.7353     1.8028    53.7186 </r>
       <r>    49.9926     1.3949    54.0775 </r>
       <r>    50.2499     0.8707    54.3015 </r>
       <r>    50.5072     1.4585    54.6768 </r>
       <r>    50.7645     1.0154    54.9380 </r>
       <r>    51.0217     0.7830    55.1395 </r>
       <r>    51.2790     0.9933    55.3950 </r>
       <r>    51.5363     1.4648    55.7719 </r>
       <r>    51.7936     0.8196    55.9828 </r>
       <r>    52.0509     0.8019    56.1891 </r>
       <r>    52.3082     1.1580    56.4871 </r>
       <r>    52.5655     1.0276    56.7515 </r>
       <r>    52.8228     1.5354    57.1465 </r>
       <r>    53.0801     1.1417    57.4403 </r>
       <r>    53.3374     1.2688    57.7667 </r>
       <r>    53.5947     1.2763    58.0951 </r>
       <r>    53.8520     1.2425    58.4148 </r>
       <r>    54.1093     1.3686    58.7669 </r>
       <r>    54.3666     1.3937    59.1255 </r>
       <r>    54.6239     1.4183    59.4904 </r>
       <r>    54.8812     0.9317    59.7302 </r>
       <r>    55.1385     1.1785    60.0334 </r>
       <r>    55.3958     0.7054    60.2149 </r>
       <r>    55.6530     1.2284    60.5309 </r>
       <r>    55.9103     1.7402    60.9787 </r>
       <r>    56.1676     2.3235    61.5765 </r>
       <r>    56.4249     1.7990    62.0394 </r>
       <r>    56.6822     1.1504    62.3354 </r>
       <r>    56.9395     1.1015    62.6188 </r>
       <r>    57.1968     1.1889    62.9247 </r>
       <r>    57.4541     1.7563    63.3766 </r>
       <r>    57.7114     1.8238    63.8458 </r>
       <r>    57.9687     1.4712    64.2244 </r>
       <r>    58.2260     1.4902    64.6078 </r>
       <r>    58.4833     1.4503    64.9809 </r>
       <r>    58.7406     2.0135    65.4990 </r>
       <r>    58.9979     1.5630    65.9011 </r>
       <r>    59.2552     1.9951    66.4145 </r>
       <r>    59.5125     1.8519    66.8909 </r>
       <r>    59.7698     1.4646    67.2678 </r>
       <r>    60.0271     1.3051    67.6036 </r>
       <r>    60.2844     1.6348    68.0242 </r>
       <r>    60.5416     1.3028    68.3594 </r>
       <r>    60.7989     1.2521    68.6816 </r>
       <r>    61.0562     1.2605    69.0059 </r>
       <r>    61.3135     2.0621    69.5365 </r>
       <r>    61.5708     1.9548    70.0394 </r>
       <r>    61.8281     1.6373    70.4607 </r>
       <r>    62.0854     1.4817    70.8419 </r>
       <r>    62.3427     1.9027    71.3315 </r>
       <r>    62.6000     1.6525    71.7567 </r>
       <r>    62.8573     1.5356    72.1518 </r>
       <r>    63.1146     1.6724    72.5821 </r>
       <r>    63.3719     1.4871    72.9647 </r>
       <r>    63.6292     1.8845    73.4496 </r>
       <r>    63.8865     1.5286    73.8429 </r>
       <r>    64.1438     1.7384    74.2902 </r>
       <r>    64.4011     1.8547    74.7674 </r>
       <r>    64.6584     2.5351    75.4196 </r>
       <r>    64.9157     2.0952    75.9587 </r>
       <r>    65.1729     1.6551    76.3846 </r>
       <r>    65.4302     1.2883    76.7160 </r>
       <r>    65.6875     2.3530    77.3215 </r>
       <r>    65.9448     2.3221    77.9189 </r>
       <r>    66.2021     1.3979    78.2786 </r>
       <r>    66.4594     1.4100    78.6414 </r>
       <r>    66.7167     1.6510    79.0662 </r>
       <r>    66.9740     1.5077    79.4541 </r>
       <r>    67.2313     1.1578    79.7520 </r>
       <r>    67.4886     0.5949    79.9050 </r>
       <r>    67.7459     0.1895    79.9538 </r>
       <r>    68.0032     0.1203    79.9847 </r>
       <r>    68.2605     0.0597    80.0001 </r>
       <r>    68.5178     0.0000    80.0001 </r>
       <r>    68.7751    -0.0004    80.0000 </r>
       <r>    69.0324    -0.0000    80.0000 </r>
       <r>    69.2897    -0.0000    80.0000 </r>
       <r>    69.5470    -0.0000    80.0000 </r>
       <r>    69.8043     0.0000    80.0000 </r>
       <r>    70.0615     0.0000    80.0000 </r>
       <r>    70.3188     0.0000    80.0000 </r>
       <r>    70.5761     0.0000    80.0000 </r>
       <r>    70.8334     0.0000    80.0000 </r>
       <r>    71.0907     0.0000    80.0000 </r>
       <r>    71.3480     0.0000    80.0000 </r>
       <r>    71.6053     0.0000    80.0000 </r>
      </set>
     </set>
    </array>
   </total>
  </dos>
 </calculation>
 <structure name="finalpos" >
  <crystal>
   <varray name="basis" >
    <v>       2.37660000       0.00000000       0.00000000 </v>
    <v>      -1.18830000       2.05819597       0.00000000 </v>
    <v>       0.00000000       0.00000000       4.22382000 </v>
   </varray>
   <i name="volume">     20.66085166 </i>
   <varray name="rec_basis" >
    <v>       0.42076917       0.24293119       0.00000000 </v>
    <v>       0.00000000       0.48586238       0.00000000 </v>
    <v>       0.00000000       0.00000000       0.23675251 </v>
   </varray>
  </crystal>
  <varray name="positions" >
   <v>       0.00000000       0.00000000       0.00000000 </v>
   <v>       0.33333333       0.66666667       0.50000000 </v>
  </varray>
 </structure>
</modeling>
