unknown system                          
   1.00000000000000     
     3.635000    0.000000    0.000000
     0.000000    3.635000    0.000000
     0.000000    0.000000    3.635000
   Cu
     4
Direct
  0.000000  0.000000  0.000000
  0.500000  0.500000  0.000000
  0.500000  0.000000  0.500000
  0.000000  0.500000  0.500000
 
   24   24   24
  736.67      663.97      484.58      284.23      135.49      60.395      33.961      18.369      8.6389      6.6637    
  6.7442      5.1223      3.8576      5.1223      6.7442      6.6637      8.6389      18.369      33.961      60.395    
  135.49      284.23      484.58      663.97      663.97      597.95      435.45      254.86      122.01      55.897    
  32.415      17.516      8.6887      7.2323      7.5866      6.2411      5.1223      6.2411      7.5866      7.2323    
  8.6887      17.516      32.415      55.897      122.01      254.86      435.45      597.95      484.58      435.45    
  315.37      184.05      90.246      45.520      28.291      15.329      8.6129      7.9755      8.5317      7.5866    
  6.7442      7.5866      8.5317      7.9755      8.6129      15.329      28.291      45.520      90.246      184.05    
  315.37      435.45      284.23      254.86      184.05      108.96      58.146      35.002      22.528      12.659    
  8.2155      7.8017      7.9755      7.2323      6.6637      7.2323      7.9755      7.8017      8.2155      12.659    
  22.528      35.002      58.146      108.96      184.05      254.86      135.49      122.01      90.246      58.146    
  37.604      26.149      16.579      10.470      8.2295      8.2155      8.6129      8.6887      8.6389      8.6887    
  8.6129      8.2155      8.2295      10.470      16.579      26.149      37.604      58.146      90.246      122.01    
  60.395      55.897      45.520      35.002      26.149      17.848      12.105      9.8686      10.470      12.659    
  15.329      17.516      18.369      17.516      15.329      12.659      10.470      9.8686      12.105      17.848    
  26.149      35.002      45.520      55.897      33.961      32.415      28.291      22.528      16.579      12.105    
  10.443      12.105      16.579      22.528      28.291      32.415      33.961      32.415      28.291      22.528    
  16.579      12.105      10.443      12.105      16.579      22.528      28.291      32.415      18.369      17.516    
  15.329      12.659      10.470      9.8686      12.105      17.848      26.149      35.002      45.520      55.897    
  60.395      55.897      45.520      35.002      26.149      17.848      12.105      9.8686      10.470      12.659    
  15.329      17.516      8.6389      8.6887      8.6129      8.2155      8.2295      10.470      16.579      26.149    
  37.604      58.146      90.246      122.01      135.49      122.01      90.246      58.146      37.604      26.149    
  16.579      10.470      8.2295      8.2155      8.6129      8.6887      6.6637      7.2323      7.9755      7.8017    
  8.2155      12.659      22.528      35.002      58.146      108.96      184.05      254.86      284.23      254.86    
  184.05      108.96      58.146      35.002      22.528      12.659      8.2155      7.8017      7.9755      7.2323    
  6.7442      7.5866      8.5317      7.9755      8.6129      15.329      28.291      45.520      90.246      184.05    
  315.37      435.45      484.58      435.45      315.37      184.05      90.246      45.520      28.291      15.329    
  8.6129      7.9755      8.5317      7.5866      5.1223      6.2411      7.5866      7.2323      8.6887      17.516    
  32.415      55.897      122.01      254.86      435.45      597.95      663.97      597.95      435.45      254.86    
  122.01      55.897      32.415      17.516      8.6887      7.2323      7.5866      6.2411      3.8576      5.1223    
  6.7442      6.6637      8.6389      18.369      33.961      60.395      135.49      284.23      484.58      663.97    
  736.67      663.97      484.58      284.23      135.49      60.395      33.961      18.369      8.6389      6.6637    
  6.7442      5.1223      5.1223      6.2411      7.5866      7.2323      8.6887      17.516      32.415      55.897    
  122.01      254.86      435.45      597.95      663.97      597.95      435.45      254.86      122.01      55.897    
  32.415      17.516      8.6887      7.2323      7.5866      6.2411      6.7442      7.5866      8.5317      7.9755    
  8.6129      15.329      28.291      45.520      90.246      184.05      315.37      435.45      484.58      435.45    
  315.37      184.05      90.246      45.520      28.291      15.329      8.6129      7.9755      8.5317      7.5866    
  6.6637      7.2323      7.9755      7.8017      8.2155      12.659      22.528      35.002      58.146      108.96    
  184.05      254.86      284.23      254.86      184.05      108.96      58.146      35.002      22.528      12.659    
  8.2155      7.8017      7.9755      7.2323      8.6389      8.6887      8.6129      8.2155      8.2295      10.470    
  16.579      26.149      37.604      58.146      90.246      122.01      135.49      122.01      90.246      58.146    
  37.604      26.149      16.579      10.470      8.2295      8.2155      8.6129      8.6887      18.369      17.516    
  15.329      12.659      10.470      9.8686      12.105      17.848      26.149      35.002      45.520      55.897    
  60.395      55.897      45.520      35.002      26.149      17.848      12.105      9.8686      10.470      12.659    
  15.329      17.516      33.961      32.415      28.291      22.528      16.579      12.105      10.443      12.105    
  16.579      22.528      28.291      32.415      33.961      32.415      28.291      22.528      16.579      12.105    
  10.443      12.105      16.579      22.528      28.291      32.415      60.395      55.897      45.520      35.002    
  26.149      17.848      12.105      9.8686      10.470      12.659      15.329      17.516      18.369      17.516    
  15.329      12.659      10.470      9.8686      12.105      17.848      26.149      35.002      45.520      55.897    
  135.49      122.01      90.246      58.146      37.604      26.149      16.579      10.470      8.2295      8.2155    
  8.6129      8.6887      8.6389      8.6887      8.6129      8.2155      8.2295      10.470      16.579      26.149    
  37.604      58.146      90.246      122.01      284.23      254.86      184.05      108.96      58.146      35.002    
  22.528      12.659      8.2155      7.8017      7.9755      7.2323      6.6637      7.2323      7.9755      7.8017    
  8.2155      12.659      22.528      35.002      58.146      108.96      184.05      254.86      484.58      435.45    
  315.37      184.05      90.246      45.520      28.291      15.329      8.6129      7.9755      8.5317      7.5866    
  6.7442      7.5866      8.5317      7.9755      8.6129      15.329      28.291      45.520      90.246      184.05    
  315.37      435.45      663.97      597.95      435.45      254.86      122.01      55.897      32.415      17.516    
  8.6887      7.2323      7.5866      6.2411      5.1223      6.2411      7.5866      7.2323      8.6887      17.516    
  32.415      55.897      122.01      254.86      435.45      597.95      663.97      597.95      435.45      254.86    
  122.01      55.897      32.415      17.516      8.6887      7.2323      7.5866      6.2411      5.1223      6.2411    
  7.5866      7.2323      8.6887      17.516      32.415      55.897      122.01      254.86      435.45      597.95    
  597.95      538.12      391.15      228.64      110.16      51.977      30.918      16.659      8.6735      7.6902    
  8.2990      7.2194      6.2411      7.2194      8.2990      7.6902      8.6735      16.659      30.918      51.977    
  110.16      228.64      391.15      538.12      435.45      391.15      283.11      165.54      82.264      42.907    
  26.884      14.516      8.4871      8.2190      8.9965      8.2990      7.5866      8.2990      8.9965      8.2190    
  8.4871      14.516      26.884      42.907      82.264      165.54      283.11      391.15      254.86      228.64    
  165.54      98.938      54.170      33.542      21.368      12.024      8.0499      7.8710      8.2190      7.6902    
  7.2323      7.6902      8.2190      7.8710      8.0499      12.024      21.368      33.542      54.170      98.938    
  165.54      228.64      122.01      110.16      82.264      54.170      36.054      25.113      15.846      10.102    
  8.0412      8.0499      8.4871      8.6735      8.6887      8.6735      8.4871      8.0499      8.0412      10.102    
  15.846      25.113      36.054      54.170      82.264      110.16      55.897      51.977      42.907      33.542    
  25.113      17.190      11.798      9.6661      10.102      12.024      14.516      16.659      17.516      16.659    
  14.516      12.024      10.102      9.6661      11.798      17.190      25.113      33.542      42.907      51.977    
  32.415      30.918      26.884      21.368      15.846      11.798      10.315      11.798      15.846      21.368    
  26.884      30.918      32.415      30.918      26.884      21.368      15.846      11.798      10.315      11.798    
  15.846      21.368      26.884      30.918      17.516      16.659      14.516      12.024      10.102      9.6661    
  11.798      17.190      25.113      33.542      42.907      51.977      55.897      51.977      42.907      33.542    
  25.113      17.190      11.798      9.6661      10.102      12.024      14.516      16.659      8.6887      8.6735    
  8.4871      8.0499      8.0412      10.102      15.846      25.113      36.054      54.170      82.264      110.16    
  122.01      110.16      82.264      54.170      36.054      25.113      15.846      10.102      8.0412      8.0499    
  8.4871      8.6735      7.2323      7.6902      8.2190      7.8710      8.0499      12.024      21.368      33.542    
  54.170      98.938      165.54      228.64      254.86      228.64      165.54      98.938      54.170      33.542    
  21.368      12.024      8.0499      7.8710      8.2190      7.6902      7.5866      8.2990      8.9965      8.2190    
  8.4871      14.516      26.884      42.907      82.264      165.54      283.11      391.15      435.45      391.15    
  283.11      165.54      82.264      42.907      26.884      14.516      8.4871      8.2190      8.9965      8.2990    
  6.2411      7.2194      8.2990      7.6902      8.6735      16.659      30.918      51.977      110.16      228.64    
  391.15      538.12      597.95      538.12      391.15      228.64      110.16      51.977      30.918      16.659    
  8.6735      7.6902      8.2990      7.2194      5.1223      6.2411      7.5866      7.2323      8.6887      17.516    
  32.415      55.897      122.01      254.86      435.45      597.95      663.97      597.95      435.45      254.86    
  122.01      55.897      32.415      17.516      8.6887      7.2323      7.5866      6.2411      6.2411      7.2194    
  8.2990      7.6902      8.6735      16.659      30.918      51.977      110.16      228.64      391.15      538.12    
  597.95      538.12      391.15      228.64      110.16      51.977      30.918      16.659      8.6735      7.6902    
  8.2990      7.2194      7.5866      8.2990      8.9965      8.2190      8.4871      14.516      26.884      42.907    
  82.264      165.54      283.11      391.15      435.45      391.15      283.11      165.54      82.264      42.907    
  26.884      14.516      8.4871      8.2190      8.9965      8.2990      7.2323      7.6902      8.2190      7.8710    
  8.0499      12.024      21.368      33.542      54.170      98.938      165.54      228.64      254.86      228.64    
  165.54      98.938      54.170      33.542      21.368      12.024      8.0499      7.8710      8.2190      7.6902    
  8.6887      8.6735      8.4871      8.0499      8.0412      10.102      15.846      25.113      36.054      54.170    
  82.264      110.16      122.01      110.16      82.264      54.170      36.054      25.113      15.846      10.102    
  8.0412      8.0499      8.4871      8.6735      17.516      16.659      14.516      12.024      10.102      9.6661    
  11.798      17.190      25.113      33.542      42.907      51.977      55.897      51.977      42.907      33.542    
  25.113      17.190      11.798      9.6661      10.102      12.024      14.516      16.659      32.415      30.918    
  26.884      21.368      15.846      11.798      10.315      11.798      15.846      21.368      26.884      30.918    
  32.415      30.918      26.884      21.368      15.846      11.798      10.315      11.798      15.846      21.368    
  26.884      30.918      55.897      51.977      42.907      33.542      25.113      17.190      11.798      9.6661    
  10.102      12.024      14.516      16.659      17.516      16.659      14.516      12.024      10.102      9.6661    
  11.798      17.190      25.113      33.542      42.907      51.977      122.01      110.16      82.264      54.170    
  36.054      25.113      15.846      10.102      8.0412      8.0499      8.4871      8.6735      8.6887      8.6735    
  8.4871      8.0499      8.0412      10.102      15.846      25.113      36.054      54.170      82.264      110.16    
  254.86      228.64      165.54      98.938      54.170      33.542      21.368      12.024      8.0499      7.8710    
  8.2190      7.6902      7.2323      7.6902      8.2190      7.8710      8.0499      12.024      21.368      33.542    
  54.170      98.938      165.54      228.64      435.45      391.15      283.11      165.54      82.264      42.907    
  26.884      14.516      8.4871      8.2190      8.9965      8.2990      7.5866      8.2990      8.9965      8.2190    
  8.4871      14.516      26.884      42.907      82.264      165.54      283.11      391.15      597.95      538.12    
  391.15      228.64      110.16      51.977      30.918      16.659      8.6735      7.6902      8.2990      7.2194    
  6.2411      7.2194      8.2990      7.6902      8.6735      16.659      30.918      51.977      110.16      228.64    
  391.15      538.12      484.58      435.45      315.37      184.05      90.246      45.520      28.291      15.329    
  8.6129      7.9755      8.5317      7.5866      6.7442      7.5866      8.5317      7.9755      8.6129      15.329    
  28.291      45.520      90.246      184.05      315.37      435.45      435.45      391.15      283.11      165.54    
  82.264      42.907      26.884      14.516      8.4871      8.2190      8.9965      8.2990      7.5866      8.2990    
  8.9965      8.2190      8.4871      14.516      26.884      42.907      82.264      165.54      283.11      391.15    
  315.37      283.11      205.00      121.31      63.584      36.725      23.168      12.606      8.1567      8.4018    
  9.3243      8.9965      8.5317      8.9965      9.3243      8.4018      8.1567      12.606      23.168      36.725    
  63.584      121.31      205.00      283.11      184.05      165.54      121.31      75.273      44.818      29.664    
  18.397      10.645      7.7746      7.9082      8.4018      8.2190      7.9755      8.2190      8.4018      7.9082    
  7.7746      10.645      18.397      29.664      44.818      75.273      121.31      165.54      90.246      82.264    
  63.584      44.818      31.999      22.096      13.980      9.3780      7.8070      7.7746      8.1567      8.4871    
  8.6129      8.4871      8.1567      7.7746      7.8070      9.3780      13.980      22.096      31.999      44.818    
  63.584      82.264      45.520      42.907      36.725      29.664      22.096      15.309      10.970      9.2537    
  9.3780      10.645      12.606      14.516      15.329      14.516      12.606      10.645      9.3780      9.2537    
  10.970      15.309      22.096      29.664      36.725      42.907      28.291      26.884      23.168      18.397    
  13.980      10.970      9.9152      10.970      13.980      18.397      23.168      26.884      28.291      26.884    
  23.168      18.397      13.980      10.970      9.9152      10.970      13.980      18.397      23.168      26.884    
  15.329      14.516      12.606      10.645      9.3780      9.2537      10.970      15.309      22.096      29.664    
  36.725      42.907      45.520      42.907      36.725      29.664      22.096      15.309      10.970      9.2537    
  9.3780      10.645      12.606      14.516      8.6129      8.4871      8.1567      7.7746      7.8070      9.3780    
  13.980      22.096      31.999      44.818      63.584      82.264      90.246      82.264      63.584      44.818    
  31.999      22.096      13.980      9.3780      7.8070      7.7746      8.1567      8.4871      7.9755      8.2190    
  8.4018      7.9082      7.7746      10.645      18.397      29.664      44.818      75.273      121.31      165.54    
  184.05      165.54      121.31      75.273      44.818      29.664      18.397      10.645      7.7746      7.9082    
  8.4018      8.2190      8.5317      8.9965      9.3243      8.4018      8.1567      12.606      23.168      36.725    
  63.584      121.31      205.00      283.11      315.37      283.11      205.00      121.31      63.584      36.725    
  23.168      12.606      8.1567      8.4018      9.3243      8.9965      7.5866      8.2990      8.9965      8.2190    
  8.4871      14.516      26.884      42.907      82.264      165.54      283.11      391.15      435.45      391.15    
  283.11      165.54      82.264      42.907      26.884      14.516      8.4871      8.2190      8.9965      8.2990    
  6.7442      7.5866      8.5317      7.9755      8.6129      15.329      28.291      45.520      90.246      184.05    
  315.37      435.45      484.58      435.45      315.37      184.05      90.246      45.520      28.291      15.329    
  8.6129      7.9755      8.5317      7.5866      7.5866      8.2990      8.9965      8.2190      8.4871      14.516    
  26.884      42.907      82.264      165.54      283.11      391.15      435.45      391.15      283.11      165.54    
  82.264      42.907      26.884      14.516      8.4871      8.2190      8.9965      8.2990      8.5317      8.9965    
  9.3243      8.4018      8.1567      12.606      23.168      36.725      63.584      121.31      205.00      283.11    
  315.37      283.11      205.00      121.31      63.584      36.725      23.168      12.606      8.1567      8.4018    
  9.3243      8.9965      7.9755      8.2190      8.4018      7.9082      7.7746      10.645      18.397      29.664    
  44.818      75.273      121.31      165.54      184.05      165.54      121.31      75.273      44.818      29.664    
  18.397      10.645      7.7746      7.9082      8.4018      8.2190      8.6129      8.4871      8.1567      7.7746    
  7.8070      9.3780      13.980      22.096      31.999      44.818      63.584      82.264      90.246      82.264    
  63.584      44.818      31.999      22.096      13.980      9.3780      7.8070      7.7746      8.1567      8.4871    
  15.329      14.516      12.606      10.645      9.3780      9.2537      10.970      15.309      22.096      29.664    
  36.725      42.907      45.520      42.907      36.725      29.664      22.096      15.309      10.970      9.2537    
  9.3780      10.645      12.606      14.516      28.291      26.884      23.168      18.397      13.980      10.970    
  9.9152      10.970      13.980      18.397      23.168      26.884      28.291      26.884      23.168      18.397    
  13.980      10.970      9.9152      10.970      13.980      18.397      23.168      26.884      45.520      42.907    
  36.725      29.664      22.096      15.309      10.970      9.2537      9.3780      10.645      12.606      14.516    
  15.329      14.516      12.606      10.645      9.3780      9.2537      10.970      15.309      22.096      29.664    
  36.725      42.907      90.246      82.264      63.584      44.818      31.999      22.096      13.980      9.3780    
  7.8070      7.7746      8.1567      8.4871      8.6129      8.4871      8.1567      7.7746      7.8070      9.3780    
  13.980      22.096      31.999      44.818      63.584      82.264      184.05      165.54      121.31      75.273    
  44.818      29.664      18.397      10.645      7.7746      7.9082      8.4018      8.2190      7.9755      8.2190    
  8.4018      7.9082      7.7746      10.645      18.397      29.664      44.818      75.273      121.31      165.54    
  315.37      283.11      205.00      121.31      63.584      36.725      23.168      12.606      8.1567      8.4018    
  9.3243      8.9965      8.5317      8.9965      9.3243      8.4018      8.1567      12.606      23.168      36.725    
  63.584      121.31      205.00      283.11      435.45      391.15      283.11      165.54      82.264      42.907    
  26.884      14.516      8.4871      8.2190      8.9965      8.2990      7.5866      8.2990      8.9965      8.2190    
  8.4871      14.516      26.884      42.907      82.264      165.54      283.11      391.15      284.23      254.86    
  184.05      108.96      58.146      35.002      22.528      12.659      8.2155      7.8017      7.9755      7.2323    
  6.6637      7.2323      7.9755      7.8017      8.2155      12.659      22.528      35.002      58.146      108.96    
  184.05      254.86      254.86      228.64      165.54      98.938      54.170      33.542      21.368      12.024    
  8.0499      7.8710      8.2190      7.6902      7.2323      7.6902      8.2190      7.8710      8.0499      12.024    
  21.368      33.542      54.170      98.938      165.54      228.64      184.05      165.54      121.31      75.273    
  44.818      29.664      18.397      10.645      7.7746      7.9082      8.4018      8.2190      7.9755      8.2190    
  8.4018      7.9082      7.7746      10.645      18.397      29.664      44.818      75.273      121.31      165.54    
  108.96      98.938      75.273      51.140      34.927      23.974      14.806      9.4708      7.7125      7.7030    
  7.9082      7.8710      7.8017      7.8710      7.9082      7.7030      7.7125      9.4708      14.806      23.974    
  34.927      51.140      75.273      98.938      58.146      54.170      44.818      34.927      26.112      17.671    
  11.756      8.9153      7.9658      7.7125      7.7746      8.0499      8.2155      8.0499      7.7746      7.7125    
  7.9658      8.9153      11.756      17.671      26.112      34.927      44.818      54.170      35.002      33.542    
  29.664      23.974      17.671      12.638      9.8649      8.9289      8.9153      9.4708      10.645      12.024    
  12.659      12.024      10.645      9.4708      8.9153      8.9289      9.8649      12.638      17.671      23.974    
  29.664      33.542      22.528      21.368      18.397      14.806      11.756      9.8649      9.2452      9.8649    
  11.756      14.806      18.397      21.368      22.528      21.368      18.397      14.806      11.756      9.8649    
  9.2452      9.8649      11.756      14.806      18.397      21.368      12.659      12.024      10.645      9.4708    
  8.9153      8.9289      9.8649      12.638      17.671      23.974      29.664      33.542      35.002      33.542    
  29.664      23.974      17.671      12.638      9.8649      8.9289      8.9153      9.4708      10.645      12.024    
  8.2155      8.0499      7.7746      7.7125      7.9658      8.9153      11.756      17.671      26.112      34.927    
  44.818      54.170      58.146      54.170      44.818      34.927      26.112      17.671      11.756      8.9153    
  7.9658      7.7125      7.7746      8.0499      7.8017      7.8710      7.9082      7.7030      7.7125      9.4708    
  14.806      23.974      34.927      51.140      75.273      98.938      108.96      98.938      75.273      51.140    
  34.927      23.974      14.806      9.4708      7.7125      7.7030      7.9082      7.8710      7.9755      8.2190    
  8.4018      7.9082      7.7746      10.645      18.397      29.664      44.818      75.273      121.31      165.54    
  184.05      165.54      121.31      75.273      44.818      29.664      18.397      10.645      7.7746      7.9082    
  8.4018      8.2190      7.2323      7.6902      8.2190      7.8710      8.0499      12.024      21.368      33.542    
  54.170      98.938      165.54      228.64      254.86      228.64      165.54      98.938      54.170      33.542    
  21.368      12.024      8.0499      7.8710      8.2190      7.6902      6.6637      7.2323      7.9755      7.8017    
  8.2155      12.659      22.528      35.002      58.146      108.96      184.05      254.86      284.23      254.86    
  184.05      108.96      58.146      35.002      22.528      12.659      8.2155      7.8017      7.9755      7.2323    
  7.2323      7.6902      8.2190      7.8710      8.0499      12.024      21.368      33.542      54.170      98.938    
  165.54      228.64      254.86      228.64      165.54      98.938      54.170      33.542      21.368      12.024    
  8.0499      7.8710      8.2190      7.6902      7.9755      8.2190      8.4018      7.9082      7.7746      10.645    
  18.397      29.664      44.818      75.273      121.31      165.54      184.05      165.54      121.31      75.273    
  44.818      29.664      18.397      10.645      7.7746      7.9082      8.4018      8.2190      7.8017      7.8710    
  7.9082      7.7030      7.7125      9.4708      14.806      23.974      34.927      51.140      75.273      98.938    
  108.96      98.938      75.273      51.140      34.927      23.974      14.806      9.4708      7.7125      7.7030    
  7.9082      7.8710      8.2155      8.0499      7.7746      7.7125      7.9658      8.9153      11.756      17.671    
  26.112      34.927      44.818      54.170      58.146      54.170      44.818      34.927      26.112      17.671    
  11.756      8.9153      7.9658      7.7125      7.7746      8.0499      12.659      12.024      10.645      9.4708    
  8.9153      8.9289      9.8649      12.638      17.671      23.974      29.664      33.542      35.002      33.542    
  29.664      23.974      17.671      12.638      9.8649      8.9289      8.9153      9.4708      10.645      12.024    
  22.528      21.368      18.397      14.806      11.756      9.8649      9.2452      9.8649      11.756      14.806    
  18.397      21.368      22.528      21.368      18.397      14.806      11.756      9.8649      9.2452      9.8649    
  11.756      14.806      18.397      21.368      35.002      33.542      29.664      23.974      17.671      12.638    
  9.8649      8.9289      8.9153      9.4708      10.645      12.024      12.659      12.024      10.645      9.4708    
  8.9153      8.9289      9.8649      12.638      17.671      23.974      29.664      33.542      58.146      54.170    
  44.818      34.927      26.112      17.671      11.756      8.9153      7.9658      7.7125      7.7746      8.0499    
  8.2155      8.0499      7.7746      7.7125      7.9658      8.9153      11.756      17.671      26.112      34.927    
  44.818      54.170      108.96      98.938      75.273      51.140      34.927      23.974      14.806      9.4708    
  7.7125      7.7030      7.9082      7.8710      7.8017      7.8710      7.9082      7.7030      7.7125      9.4708    
  14.806      23.974      34.927      51.140      75.273      98.938      184.05      165.54      121.31      75.273    
  44.818      29.664      18.397      10.645      7.7746      7.9082      8.4018      8.2190      7.9755      8.2190    
  8.4018      7.9082      7.7746      10.645      18.397      29.664      44.818      75.273      121.31      165.54    
  254.86      228.64      165.54      98.938      54.170      33.542      21.368      12.024      8.0499      7.8710    
  8.2190      7.6902      7.2323      7.6902      8.2190      7.8710      8.0499      12.024      21.368      33.542    
  54.170      98.938      165.54      228.64      135.49      122.01      90.246      58.146      37.604      26.149    
  16.579      10.470      8.2295      8.2155      8.6129      8.6887      8.6389      8.6887      8.6129      8.2155    
  8.2295      10.470      16.579      26.149      37.604      58.146      90.246      122.01      122.01      110.16    
  82.264      54.170      36.054      25.113      15.846      10.102      8.0412      8.0499      8.4871      8.6735    
  8.6887      8.6735      8.4871      8.0499      8.0412      10.102      15.846      25.113      36.054      54.170    
  82.264      110.16      90.246      82.264      63.584      44.818      31.999      22.096      13.980      9.3780    
  7.8070      7.7746      8.1567      8.4871      8.6129      8.4871      8.1567      7.7746      7.8070      9.3780    
  13.980      22.096      31.999      44.818      63.584      82.264      58.146      54.170      44.818      34.927    
  26.112      17.671      11.756      8.9153      7.9658      7.7125      7.7746      8.0499      8.2155      8.0499    
  7.7746      7.7125      7.9658      8.9153      11.756      17.671      26.112      34.927      44.818      54.170    
  37.604      36.054      31.999      26.112      19.070      13.170      9.9067      8.7857      8.3730      7.9658    
  7.8070      8.0412      8.2295      8.0412      7.8070      7.9658      8.3730      8.7857      9.9067      13.170    
  19.070      26.112      31.999      36.054      26.149      25.113      22.096      17.671      13.170      10.049    
  8.7911      8.6795      8.7857      8.9153      9.3780      10.102      10.470      10.102      9.3780      8.9153    
  8.7857      8.6795      8.7911      10.049      13.170      17.671      22.096      25.113      16.579      15.846    