unknown system                          
   1.00000000000000     
     3.635000    0.000000    0.000000
     0.000000    3.635000    0.000000
     0.000000    0.000000    3.635000
   Cu
     4
Direct
  0.000000  0.000000  0.000000
  0.500000  0.500000  0.000000
  0.500000  0.000000  0.500000
  0.000000  0.500000  0.500000
 
   24   24   24
 0.73667384217E+03 0.66396796441E+03 0.48458191294E+03 0.28422924275E+03 0.13549129508E+03
 0.60394588243E+02 0.33960578933E+02 0.18368810462E+02 0.86388537903E+01 0.66636754864E+01
 0.67442497189E+01 0.51222555160E+01 0.38575966573E+01 0.51222555160E+01 0.67442497189E+01
 0.66636754864E+01 0.86388537903E+01 0.18368810462E+02 0.33960578933E+02 0.60394588243E+02
 0.13549129508E+03 0.28422924275E+03 0.48458191294E+03 0.66396796441E+03 0.66396796441E+03
 0.59795396069E+03 0.43544897030E+03 0.25486270312E+03 0.12201405860E+03 0.55897396180E+02
 0.32415074032E+02 0.17515804735E+02 0.86886724220E+01 0.72323120554E+01 0.75865757634E+01
 0.62411211237E+01 0.51222555160E+01 0.62411211237E+01 0.75865757634E+01 0.72323120554E+01
 0.86886724220E+01 0.17515804735E+02 0.32415074032E+02 0.55897396180E+02 0.12201405860E+03
 0.25486270312E+03 0.43544897030E+03 0.59795396069E+03 0.48458191294E+03 0.43544897030E+03
 0.31536500635E+03 0.18405201085E+03 0.90246226171E+02 0.45520152293E+02 0.28291157003E+02
 0.15328615740E+02 0.86128980929E+01 0.79755304376E+01 0.85317445979E+01 0.75865757634E+01
 0.67442497189E+01 0.75865757634E+01 0.85317445979E+01 0.79755304376E+01 0.86128980929E+01
 0.15328615740E+02 0.28291157003E+02 0.45520152293E+02 0.90246226171E+02 0.18405201085E+03
 0.31536500635E+03 0.43544897030E+03 0.28422924275E+03 0.25486270312E+03 0.18405201085E+03
 0.10895652389E+03 0.58145644574E+02 0.35002364781E+02 0.22528151762E+02 0.12658755940E+02
 0.82155349499E+01 0.78017335017E+01 0.79755304376E+01 0.72323120554E+01 0.66636754864E+01
 0.72323120554E+01 0.79755304376E+01 0.78017335017E+01 0.82155349499E+01 0.12658755940E+02
 0.22528151762E+02 0.35002364781E+02 0.58145644574E+02 0.10895652389E+03 0.18405201085E+03
 0.25486270312E+03 0.13549129508E+03 0.12201405860E+03 0.90246226171E+02 0.58145644574E+02
 0.37604328704E+02 0.26148525248E+02 0.16578723044E+02 0.10470381860E+02 0.82295146449E+01
 0.82155349499E+01 0.86128980929E+01 0.86886724220E+01 0.86388537903E+01 0.86886724220E+01
 0.86128980929E+01 0.82155349499E+01 0.82295146449E+01 0.10470381860E+02 0.16578723044E+02
 0.26148525248E+02 0.37604328704E+02 0.58145644574E+02 0.90246226171E+02 0.12201405860E+03
 0.60394588243E+02 0.55897396180E+02 0.45520152293E+02 0.35002364781E+02 0.26148525248E+02
 0.17848484651E+02 0.12105251220E+02 0.98686384067E+01 0.10470381860E+02 0.12658755940E+02
 0.15328615740E+02 0.17515804735E+02 0.18368810462E+02 0.17515804735E+02 0.15328615740E+02
 0.12658755940E+02 0.10470381860E+02 0.98686384067E+01 0.12105251220E+02 0.17848484651E+02
 0.26148525248E+02 0.35002364781E+02 0.45520152293E+02 0.55897396180E+02 0.33960578933E+02
 0.32415074032E+02 0.28291157003E+02 0.22528151762E+02 0.16578723044E+02 0.12105251220E+02
 0.10442870894E+02 0.12105251220E+02 0.16578723044E+02 0.22528151762E+02 0.28291157003E+02
 0.32415074032E+02 0.33960578933E+02 0.32415074032E+02 0.28291157003E+02 0.22528151762E+02
 0.16578723044E+02 0.12105251220E+02 0.10442870894E+02 0.12105251220E+02 0.16578723044E+02
 0.22528151762E+02 0.28291157003E+02 0.32415074032E+02 0.18368810462E+02 0.17515804735E+02
 0.15328615740E+02 0.12658755940E+02 0.10470381860E+02 0.98686384067E+01 0.12105251220E+02
 0.17848484651E+02 0.26148525248E+02 0.35002364781E+02 0.45520152293E+02 0.55897396180E+02
 0.60394588243E+02 0.55897396180E+02 0.45520152293E+02 0.35002364781E+02 0.26148525248E+02
 0.17848484651E+02 0.12105251220E+02 0.98686384067E+01 0.10470381860E+02 0.12658755940E+02
 0.15328615740E+02 0.17515804735E+02 0.86388537903E+01 0.86886724220E+01 0.86128980929E+01
 0.82155349499E+01 0.82295146449E+01 0.10470381860E+02 0.16578723044E+02 0.26148525248E+02
 0.37604328704E+02 0.58145644574E+02 0.90246226171E+02 0.12201405860E+03 0.13549129508E+03
 0.12201405860E+03 0.90246226171E+02 0.58145644574E+02 0.37604328704E+02 0.26148525248E+02
 0.16578723044E+02 0.10470381860E+02 0.82295146449E+01 0.82155349499E+01 0.86128980929E+01
 0.86886724220E+01 0.66636754864E+01 0.72323120554E+01 0.79755304376E+01 0.78017335017E+01
 0.82155349499E+01 0.12658755940E+02 0.22528151762E+02 0.35002364781E+02 0.58145644574E+02
 0.10895652389E+03 0.18405201085E+03 0.25486270312E+03 0.28422924275E+03 0.25486270312E+03
 0.18405201085E+03 0.10895652389E+03 0.58145644574E+02 0.35002364781E+02 0.22528151762E+02
 0.12658755940E+02 0.82155349499E+01 0.78017335017E+01 0.79755304376E+01 0.72323120554E+01
 0.67442497189E+01 0.75865757634E+01 0.85317445979E+01 0.79755304376E+01 0.86128980929E+01
 0.15328615740E+02 0.28291157003E+02 0.45520152293E+02 0.90246226171E+02 0.18405201085E+03
 0.31536500635E+03 0.43544897030E+03 0.48458191294E+03 0.43544897030E+03 0.31536500635E+03
 0.18405201085E+03 0.90246226171E+02 0.45520152293E+02 0.28291157003E+02 0.15328615740E+02
 0.86128980929E+01 0.79755304376E+01 0.85317445979E+01 0.75865757634E+01 0.51222555160E+01
 0.62411211237E+01 0.75865757634E+01 0.72323120554E+01 0.86886724220E+01 0.17515804735E+02
 0.32415074032E+02 0.55897396180E+02 0.12201405860E+03 0.25486270312E+03 0.43544897030E+03
 0.59795396069E+03 0.66396796441E+03 0.59795396069E+03 0.43544897030E+03 0.25486270312E+03
 0.12201405860E+03 0.55897396180E+02 0.32415074032E+02 0.17515804735E+02 0.86886724220E+01
 0.72323120554E+01 0.75865757634E+01 0.62411211237E+01 0.38575966573E+01 0.51222555160E+01
 0.67442497189E+01 0.66636754864E+01 0.86388537903E+01 0.18368810462E+02 0.33960578933E+02
 0.60394588243E+02 0.13549129508E+03 0.28422924275E+03 0.48458191294E+03 0.66396796441E+03
 0.73667384217E+03 0.66396796441E+03 0.48458191294E+03 0.28422924275E+03 0.13549129508E+03
 0.60394588243E+02 0.33960578933E+02 0.18368810462E+02 0.86388537903E+01 0.66636754864E+01
 0.67442497189E+01 0.51222555160E+01 0.51222555160E+01 0.62411211237E+01 0.75865757634E+01
 0.72323120554E+01 0.86886724220E+01 0.17515804735E+02 0.32415074032E+02 0.55897396180E+02
 0.12201405860E+03 0.25486270312E+03 0.43544897030E+03 0.59795396069E+03 0.66396796441E+03
 0.59795396069E+03 0.43544897030E+03 0.25486270312E+03 0.12201405860E+03 0.55897396180E+02
 0.32415074032E+02 0.17515804735E+02 0.86886724220E+01 0.72323120554E+01 0.75865757634E+01
 0.62411211237E+01 0.67442497189E+01 0.75865757634E+01 0.85317445979E+01 0.79755304376E+01
 0.86128980929E+01 0.15328615740E+02 0.28291157003E+02 0.45520152293E+02 0.90246226171E+02
 0.18405201085E+03 0.31536500635E+03 0.43544897030E+03 0.48458191294E+03 0.43544897030E+03
 0.31536500635E+03 0.18405201085E+03 0.90246226171E+02 0.45520152293E+02 0.28291157003E+02
 0.15328615740E+02 0.86128980929E+01 0.79755304376E+01 0.85317445979E+01 0.75865757634E+01
 0.66636754864E+01 0.72323120554E+01 0.79755304376E+01 0.78017335017E+01 0.82155349499E+01
 0.12658755940E+02 0.22528151762E+02 0.35002364781E+02 0.58145644574E+02 0.10895652389E+03
 0.18405201085E+03 0.25486270312E+03 0.28422924275E+03 0.25486270312E+03 0.18405201085E+03
 0.10895652389E+03 0.58145644574E+02 0.35002364781E+02 0.22528151762E+02 0.12658755940E+02
 0.82155349499E+01 0.78017335017E+01 0.79755304376E+01 0.72323120554E+01 0.86388537903E+01
 0.86886724220E+01 0.86128980929E+01 0.82155349499E+01 0.82295146449E+01 0.10470381860E+02
 0.16578723044E+02 0.26148525248E+02 0.37604328704E+02 0.58145644574E+02 0.90246226171E+02
 0.12201405860E+03 0.13549129508E+03 0.12201405860E+03 0.90246226171E+02 0.58145644574E+02
 0.37604328704E+02 0.26148525248E+02 0.16578723044E+02 0.10470381860E+02 0.82295146449E+01
 0.82155349499E+01 0.86128980929E+01 0.86886724220E+01 0.18368810462E+02 0.17515804735E+02
 0.15328615740E+02 0.12658755940E+02 0.10470381860E+02 0.98686384067E+01 0.12105251220E+02
 0.17848484651E+02 0.26148525248E+02 0.35002364781E+02 0.45520152293E+02 0.55897396180E+02
 0.60394588243E+02 0.55897396180E+02 0.45520152293E+02 0.35002364781E+02 0.26148525248E+02
 0.17848484651E+02 0.12105251220E+02 0.98686384067E+01 0.10470381860E+02 0.12658755940E+02
 0.15328615740E+02 0.17515804735E+02 0.33960578933E+02 0.32415074032E+02 0.28291157003E+02
 0.22528151762E+02 0.16578723044E+02 0.12105251220E+02 0.10442870894E+02 0.12105251220E+02
 0.16578723044E+02 0.22528151762E+02 0.28291157003E+02 0.32415074032E+02 0.33960578933E+02
 0.32415074032E+02 0.28291157003E+02 0.22528151762E+02 0.16578723044E+02 0.12105251220E+02
 0.10442870894E+02 0.12105251220E+02 0.16578723044E+02 0.22528151762E+02 0.28291157003E+02
 0.32415074032E+02 0.60394588243E+02 0.55897396180E+02 0.45520152293E+02 0.35002364781E+02
 0.26148525248E+02 0.17848484651E+02 0.12105251220E+02 0.98686384067E+01 0.10470381860E+02
 0.12658755940E+02 0.15328615740E+02 0.17515804735E+02 0.18368810462E+02 0.17515804735E+02
 0.15328615740E+02 0.12658755940E+02 0.10470381860E+02 0.98686384067E+01 0.12105251220E+02
 0.17848484651E+02 0.26148525248E+02 0.35002364781E+02 0.45520152293E+02 0.55897396180E+02
 0.13549129508E+03 0.12201405860E+03 0.90246226171E+02 0.58145644574E+02 0.37604328704E+02
 0.26148525248E+02 0.16578723044E+02 0.10470381860E+02 0.82295146449E+01 0.82155349499E+01
 0.86128980929E+01 0.86886724220E+01 0.86388537903E+01 0.86886724220E+01 0.86128980929E+01
 0.82155349499E+01 0.82295146449E+01 0.10470381860E+02 0.16578723044E+02 0.26148525248E+02
 0.37604328704E+02 0.58145644574E+02 0.90246226171E+02 0.12201405860E+03 0.28422924275E+03
 0.25486270312E+03 0.18405201085E+03 0.10895652389E+03 0.58145644574E+02 0.35002364781E+02
 0.22528151762E+02 0.12658755940E+02 0.82155349499E+01 0.78017335017E+01 0.79755304376E+01
 0.72323120554E+01 0.66636754864E+01 0.72323120554E+01 0.79755304376E+01 0.78017335017E+01
 0.82155349499E+01 0.12658755940E+02 0.22528151762E+02 0.35002364781E+02 0.58145644574E+02
 0.10895652389E+03 0.18405201085E+03 0.25486270312E+03 0.48458191294E+03 0.43544897030E+03
 0.31536500635E+03 0.18405201085E+03 0.90246226171E+02 0.45520152293E+02 0.28291157003E+02
 0.15328615740E+02 0.86128980929E+01 0.79755304376E+01 0.85317445979E+01 0.75865757634E+01
 0.67442497189E+01 0.75865757634E+01 0.85317445979E+01 0.79755304376E+01 0.86128980929E+01
 0.15328615740E+02 0.28291157003E+02 0.45520152293E+02 0.90246226171E+02 0.18405201085E+03
 0.31536500635E+03 0.43544897030E+03 0.66396796441E+03 0.59795396069E+03 0.43544897030E+03
 0.25486270312E+03 0.12201405860E+03 0.55897396180E+02 0.32415074032E+02 0.17515804735E+02
 0.86886724220E+01 0.72323120554E+01 0.75865757634E+01 0.62411211237E+01 0.51222555160E+01
 0.62411211237E+01 0.75865757634E+01 0.72323120554E+01 0.86886724220E+01 0.17515804735E+02
 0.32415074032E+02 0.55897396180E+02 0.12201405860E+03 0.25486270312E+03 0.43544897030E+03
 0.59795396069E+03 0.66396796441E+03 0.59795396069E+03 0.43544897030E+03 0.25486270312E+03
 0.12201405860E+03 0.55897396180E+02 0.32415074032E+02 0.17515804735E+02 0.86886724220E+01
 0.72323120554E+01 0.75865757634E+01 0.62411211237E+01 0.51222555160E+01 0.62411211237E+01
 0.75865757634E+01 0.72323120554E+01 0.86886724220E+01 0.17515804735E+02 0.32415074032E+02
 0.55897396180E+02 0.12201405860E+03 0.25486270312E+03 0.43544897030E+03 0.59795396069E+03
 0.59795396069E+03 0.53811824233E+03 0.39115074560E+03 0.22863966672E+03 0.11015618735E+03
 0.51976736295E+02 0.30918443266E+02 0.16658657853E+02 0.86735383768E+01 0.76901791030E+01
 0.82990087108E+01 0.72193865875E+01 0.62411211237E+01 0.72193865875E+01 0.82990087108E+01
 0.76901791030E+01 0.86735383768E+01 0.16658657853E+02 0.30918443266E+02 0.51976736295E+02
 0.11015618735E+03 0.22863966672E+03 0.39115074560E+03 0.53811824233E+03 0.43544897030E+03
 0.39115074560E+03 0.28311484188E+03 0.16554266801E+03 0.82264387459E+02 0.42907481706E+02
 0.26883683526E+02 0.14516464129E+02 0.84871142570E+01 0.82190147511E+01 0.89964975882E+01
 0.82990087108E+01 0.75865757634E+01 0.82990087108E+01 0.89964975882E+01 0.82190147511E+01
 0.84871142570E+01 0.14516464129E+02 0.26883683526E+02 0.42907481706E+02 0.82264387459E+02
 0.16554266801E+03 0.28311484188E+03 0.39115074560E+03 0.25486270312E+03 0.22863966672E+03
 0.16554266801E+03 0.98938111806E+02 0.54169722674E+02 0.33541679527E+02 0.21368258121E+02
 0.12024194737E+02 0.80499443051E+01 0.78710169027E+01 0.82190147511E+01 0.76901791030E+01
 0.72323120554E+01 0.76901791030E+01 0.82190147511E+01 0.78710169027E+01 0.80499443051E+01
 0.12024194737E+02 0.21368258121E+02 0.33541679527E+02 0.54169722674E+02 0.98938111806E+02
 0.16554266801E+03 0.22863966672E+03 0.12201405860E+03 0.11015618735E+03 0.82264387459E+02
 0.54169722674E+02 0.36054369078E+02 0.25113035844E+02 0.15845505676E+02 0.10101985627E+02
 0.80411734052E+01 0.80499443051E+01 0.84871142570E+01 0.86735383768E+01 0.86886724220E+01
 0.86735383768E+01 0.84871142570E+01 0.80499443051E+01 0.80411734052E+01 0.10101985627E+02
 0.15845505676E+02 0.25113035844E+02 0.36054369078E+02 0.54169722674E+02 0.82264387459E+02
 0.11015618735E+03 0.55897396180E+02 0.51976736295E+02 0.42907481706E+02 0.33541679527E+02
 0.25113035844E+02 0.17190257140E+02 0.11797925155E+02 0.96661084005E+01 0.10101985627E+02
 0.12024194737E+02 0.14516464129E+02 0.16658657853E+02 0.17515804735E+02 0.16658657853E+02
 0.14516464129E+02 0.12024194737E+02 0.10101985627E+02 0.96661084005E+01 0.11797925155E+02
 0.17190257140E+02 0.25113035844E+02 0.33541679527E+02 0.42907481706E+02 0.51976736295E+02
 0.32415074032E+02 0.30918443266E+02 0.26883683526E+02 0.21368258121E+02 0.15845505676E+02
 0.11797925155E+02 0.10315426236E+02 0.11797925155E+02 0.15845505676E+02 0.21368258121E+02
 0.26883683526E+02 0.30918443266E+02 0.32415074032E+02 0.30918443266E+02 0.26883683526E+02
 0.21368258121E+02 0.15845505676E+02 0.11797925155E+02 0.10315426236E+02 0.11797925155E+02
 0.15845505676E+02 0.21368258121E+02 0.26883683526E+02 0.30918443266E+02 0.17515804735E+02
 0.16658657853E+02 0.14516464129E+02 0.12024194737E+02 0.10101985627E+02 0.96661084005E+01
 0.11797925155E+02 0.17190257140E+02 0.25113035844E+02 0.33541679527E+02 0.42907481706E+02
 0.51976736295E+02 0.55897396180E+02 0.51976736295E+02 0.42907481706E+02 0.33541679527E+02
 0.25113035844E+02 0.17190257140E+02 0.11797925155E+02 0.96661084005E+01 0.10101985627E+02
 0.12024194737E+02 0.14516464129E+02 0.16658657853E+02 0.86886724220E+01 0.86735383768E+01
 0.84871142570E+01 0.80499443051E+01 0.80411734052E+01 0.10101985627E+02 0.15845505676E+02
 0.25113035844E+02 0.36054369078E+02 0.54169722674E+02 0.82264387459E+02 0.11015618735E+03
 0.12201405860E+03 0.11015618735E+03 0.82264387459E+02 0.54169722674E+02 0.36054369078E+02
 0.25113035844E+02 0.15845505676E+02 0.10101985627E+02 0.80411734052E+01 0.80499443051E+01
 0.84871142570E+01 0.86735383768E+01 0.72323120554E+01 0.76901791030E+01 0.82190147511E+01
 0.78710169027E+01 0.80499443051E+01 0.12024194737E+02 0.21368258121E+02 0.33541679527E+02
 0.54169722674E+02 0.98938111806E+02 0.16554266801E+03 0.22863966672E+03 0.25486270312E+03
 0.22863966672E+03 0.16554266801E+03 0.98938111806E+02 0.54169722674E+02 0.33541679527E+02
 0.21368258121E+02 0.12024194737E+02 0.80499443051E+01 0.78710169027E+01 0.82190147511E+01
 0.76901791030E+01 0.75865757634E+01 0.82990087108E+01 0.89964975882E+01 0.82190147511E+01
 0.84871142570E+01 0.14516464129E+02 0.26883683526E+02 0.42907481706E+02 0.82264387459E+02
 0.16554266801E+03 0.28311484188E+03 0.39115074560E+03 0.43544897030E+03 0.39115074560E+03
 0.28311484188E+03 0.16554266801E+03 0.82264387459E+02 0.42907481706E+02 0.26883683526E+02
 0.14516464129E+02 0.84871142570E+01 0.82190147511E+01 0.89964975882E+01 0.82990087108E+01
 0.62411211237E+01 0.72193865875E+01 0.82990087108E+01 0.76901791030E+01 0.86735383768E+01
 0.16658657853E+02 0.30918443266E+02 0.51976736295E+02 0.11015618735E+03 0.22863966672E+03
 0.39115074560E+03 0.53811824233E+03 0.59795396069E+03 0.53811824233E+03 0.39115074560E+03
 0.22863966672E+03 0.11015618735E+03 0.51976736295E+02 0.30918443266E+02 0.16658657853E+02
 0.86735383768E+01 0.76901791030E+01 0.82990087108E+01 0.72193865875E+01 0.51222555160E+01
 0.62411211237E+01 0.75865757634E+01 0.72323120554E+01 0.86886724220E+01 0.17515804735E+02
 0.32415074032E+02 0.55897396180E+02 0.12201405860E+03 0.25486270312E+03 0.43544897030E+03
 0.59795396069E+03 0.66396796441E+03 0.59795396069E+03 0.43544897030E+03 0.25486270312E+03
 0.12201405860E+03 0.55897396180E+02 0.32415074032E+02 0.17515804735E+02 0.86886724220E+01
 0.72323120554E+01 0.75865757634E+01 0.62411211237E+01 0.62411211237E+01 0.72193865875E+01
 0.82990087108E+01 0.76901791030E+01 0.86735383768E+01 0.16658657853E+02 0.30918443266E+02
 0.51976736295E+02 0.11015618735E+03 0.22863966672E+03 0.39115074560E+03 0.53811824233E+03
 0.59795396069E+03 0.53811824233E+03 0.39115074560E+03 0.22863966672E+03 0.11015618735E+03
 0.51976736295E+02 0.30918443266E+02 0.16658657853E+02 0.86735383768E+01 0.76901791030E+01
 0.82990087108E+01 0.72193865875E+01 0.75865757634E+01 0.82990087108E+01 0.89964975882E+01
 0.82190147511E+01 0.84871142570E+01 0.14516464129E+02 0.26883683526E+02 0.42907481706E+02
 0.82264387459E+02 0.16554266801E+03 0.28311484188E+03 0.39115074560E+03 0.43544897030E+03
 0.39115074560E+03 0.28311484188E+03 0.16554266801E+03 0.82264387459E+02 0.42907481706E+02
 0.26883683526E+02 0.14516464129E+02 0.84871142570E+01 0.82190147511E+01 0.89964975882E+01
 0.82990087108E+01 0.72323120554E+01 0.76901791030E+01 0.82190147511E+01 0.78710169027E+01
 0.80499443051E+01 0.12024194737E+02 0.21368258121E+02 0.33541679527E+02 0.54169722674E+02
 0.98938111806E+02 0.16554266801E+03 0.22863966672E+03 0.25486270312E+03 0.22863966672E+03
 0.16554266801E+03 0.98938111806E+02 0.54169722674E+02 0.33541679527E+02 0.21368258121E+02
 0.12024194737E+02 0.80499443051E+01 0.78710169027E+01 0.82190147511E+01 0.76901791030E+01
 0.86886724220E+01 0.86735383768E+01 0.84871142570E+01 0.80499443051E+01 0.80411734052E+01
 0.10101985627E+02 0.15845505676E+02 0.25113035844E+02 0.36054369078E+02 0.54169722674E+02
 0.82264387459E+02 0.11015618735E+03 0.12201405860E+03 0.11015618735E+03 0.82264387459E+02
 0.54169722674E+02 0.36054369078E+02 0.25113035844E+02 0.15845505676E+02 0.10101985627E+02
 0.80411734052E+01 0.80499443051E+01 0.84871142570E+01 0.86735383768E+01 0.17515804735E+02
 0.16658657853E+02 0.14516464129E+02 0.12024194737E+02 0.10101985627E+02 0.96661084005E+01
 0.11797925155E+02 0.17190257140E+02 0.25113035844E+02 0.33541679527E+02 0.42907481706E+02
 0.51976736295E+02 0.55897396180E+02 0.51976736295E+02 0.42907481706E+02 0.33541679527E+02
 0.25113035844E+02 0.17190257140E+02 0.11797925155E+02 0.96661084005E+01 0.10101985627E+02
 0.12024194737E+02 0.14516464129E+02 0.16658657853E+02 0.32415074032E+02 0.30918443266E+02
 0.26883683526E+02 0.21368258121E+02 0.15845505676E+02 0.11797925155E+02 0.10315426236E+02
 0.11797925155E+02 0.15845505676E+02 0.21368258121E+02 0.26883683526E+02 0.30918443266E+02
 0.32415074032E+02 0.30918443266E+02 0.26883683526E+02 0.21368258121E+02 0.15845505676E+02
 0.11797925155E+02 0.10315426236E+02 0.11797925155E+02 0.15845505676E+02 0.21368258121E+02
 0.26883683526E+02 0.30918443266E+02 0.55897396180E+02 0.51976736295E+02 0.42907481706E+02
 0.33541679527E+02 0.25113035844E+02 0.17190257140E+02 0.11797925155E+02 0.96661084005E+01
 0.10101985627E+02 0.12024194737E+02 0.14516464129E+02 0.16658657853E+02 0.17515804735E+02
 0.16658657853E+02 0.14516464129E+02 0.12024194737E+02 0.10101985627E+02 0.96661084005E+01
 0.11797925155E+02 0.17190257140E+02 0.25113035844E+02 0.33541679527E+02 0.42907481706E+02
 0.51976736295E+02 0.12201405860E+03 0.11015618735E+03 0.82264387459E+02 0.54169722674E+02
 0.36054369078E+02 0.25113035844E+02 0.15845505676E+02 0.10101985627E+02 0.80411734052E+01
 0.80499443051E+01 0.84871142570E+01 0.86735383768E+01 0.86886724220E+01 0.86735383768E+01
 0.84871142570E+01 0.80499443051E+01 0.80411734052E+01 0.10101985627E+02 0.15845505676E+02
 0.25113035844E+02 0.36054369078E+02 0.54169722674E+02 0.82264387459E+02 0.11015618735E+03
 0.25486270312E+03 0.22863966672E+03 0.16554266801E+03 0.98938111806E+02 0.54169722674E+02
 0.33541679527E+02 0.21368258121E+02 0.12024194737E+02 0.80499443051E+01 0.78710169027E+01
 0.82190147511E+01 0.76901791030E+01 0.72323120554E+01 0.76901791030E+01 0.82190147511E+01
 0.78710169027E+01 0.80499443051E+01 0.12024194737E+02 0.21368258121E+02 0.33541679527E+02
 0.54169722674E+02 0.98938111806E+02 0.16554266801E+03 0.22863966672E+03 0.43544897030E+03
 0.39115074560E+03 0.28311484188E+03 0.16554266801E+03 0.82264387459E+02 0.42907481706E+02
 0.26883683526E+02 0.14516464129E+02 0.84871142570E+01 0.82190147511E+01 0.89964975882E+01
 0.82990087108E+01 0.75865757634E+01 0.82990087108E+01 0.89964975882E+01 0.82190147511E+01
 0.84871142570E+01 0.14516464129E+02 0.26883683526E+02 0.42907481706E+02 0.82264387459E+02
 0.16554266801E+03 0.28311484188E+03 0.39115074560E+03 0.59795396069E+03 0.53811824233E+03
 0.39115074560E+03 0.22863966672E+03 0.11015618735E+03 0.51976736295E+02 0.30918443266E+02
 0.16658657853E+02 0.86735383768E+01 0.76901791030E+01 0.82990087108E+01 0.72193865875E+01
 0.62411211237E+01 0.72193865875E+01 0.82990087108E+01 0.76901791030E+01 0.86735383768E+01
 0.16658657853E+02 0.30918443266E+02 0.51976736295E+02 0.11015618735E+03 0.22863966672E+03
 0.39115074560E+03 0.53811824233E+03 0.48458191294E+03 0.43544897030E+03 0.31536500635E+03
 0.18405201085E+03 0.90246226171E+02 0.45520152293E+02 0.28291157003E+02 0.15328615740E+02
 0.86128980929E+01 0.79755304376E+01 0.85317445979E+01 0.75865757634E+01 0.67442497189E+01
 0.75865757634E+01 0.85317445979E+01 0.79755304376E+01 0.86128980929E+01 0.15328615740E+02
 0.28291157003E+02 0.45520152293E+02 0.90246226171E+02 0.18405201085E+03 0.31536500635E+03
 0.43544897030E+03 0.43544897030E+03 0.39115074560E+03 0.28311484188E+03 0.16554266801E+03
 0.82264387459E+02 0.42907481706E+02 0.26883683526E+02 0.14516464129E+02 0.84871142570E+01
 0.82190147511E+01 0.89964975882E+01 0.82990087108E+01 0.75865757634E+01 0.82990087108E+01
 0.89964975882E+01 0.82190147511E+01 0.84871142570E+01 0.14516464129E+02 0.26883683526E+02
 0.42907481706E+02 0.82264387459E+02 0.16554266801E+03 0.28311484188E+03 0.39115074560E+03
 0.31536500635E+03 0.28311484188E+03 0.20500278206E+03 0.12130536881E+03 0.63584094386E+02
 0.36725465729E+02 0.23167612840E+02 0.12606309992E+02 0.81567074631E+01 0.84018174722E+01
 0.93242534349E+01 0.89964975882E+01 0.85317445979E+01 0.89964975882E+01 0.93242534349E+01
 0.84018174722E+01 0.81567074631E+01 0.12606309992E+02 0.23167612840E+02 0.36725465729E+02
 0.63584094386E+02 0.12130536881E+03 0.20500278206E+03 0.28311484188E+03 0.18405201085E+03
 0.16554266801E+03 0.12130536881E+03 0.75273177673E+02 0.44817709284E+02 0.29664494907E+02
 0.18397099779E+02 0.10645084880E+02 0.77746269934E+01 0.79081945004E+01 0.84018174722E+01
 0.82190147511E+01 0.79755304376E+01 0.82190147511E+01 0.84018174722E+01 0.79081945004E+01
 0.77746269934E+01 0.10645084880E+02 0.18397099779E+02 0.29664494907E+02 0.44817709284E+02
 0.75273177673E+02 0.12130536881E+03 0.16554266801E+03 0.90246226171E+02 0.82264387459E+02
 0.63584094386E+02 0.44817709284E+02 0.31998780480E+02 0.22095706747E+02 0.13979617838E+02
 0.93780157167E+01 0.78069844187E+01 0.77746269934E+01 0.81567074631E+01 0.84871142570E+01
 0.86128980929E+01 0.84871142570E+01 0.81567074631E+01 0.77746269934E+01 0.78069844187E+01
 0.93780157167E+01 0.13979617838E+02 0.22095706747E+02 0.31998780480E+02 0.44817709284E+02
 0.63584094386E+02 0.82264387459E+02 0.45520152293E+02 0.42907481706E+02 0.36725465729E+02
 0.29664494907E+02 0.22095706747E+02 0.15308931823E+02 0.10969609398E+02 0.92537430114E+01
 0.93780157167E+01 0.10645084880E+02 0.12606309992E+02 0.14516464129E+02 0.15328615740E+02
 0.14516464129E+02 0.12606309992E+02 0.10645084880E+02 0.93780157167E+01 0.92537430114E+01
 0.10969609398E+02 0.15308931823E+02 0.22095706747E+02 0.29664494907E+02 0.36725465729E+02
 0.42907481706E+02 0.28291157003E+02 0.26883683526E+02 0.23167612840E+02 0.18397099779E+02
 0.13979617838E+02 0.10969609398E+02 0.99151670464E+01 0.10969609398E+02 0.13979617838E+02
 0.18397099779E+02 0.23167612840E+02 0.26883683526E+02 0.28291157003E+02 0.26883683526E+02
 0.23167612840E+02 0.18397099779E+02 0.13979617838E+02 0.10969609398E+02 0.99151670464E+01
 0.10969609398E+02 0.13979617838E+02 0.18397099779E+02 0.23167612840E+02 0.26883683526E+02
 0.15328615740E+02 0.14516464129E+02 0.12606309992E+02 0.10645084880E+02 0.93780157167E+01
 0.92537430114E+01 0.10969609398E+02 0.15308931823E+02 0.22095706747E+02 0.29664494907E+02
 0.36725465729E+02 0.42907481706E+02 0.45520152293E+02 0.42907481706E+02 0.36725465729E+02
 0.29664494907E+02 0.22095706747E+02 0.15308931823E+02 0.10969609398E+02 0.92537430114E+01
 0.93780157167E+01 0.10645084880E+02 0.12606309992E+02 0.14516464129E+02 0.86128980929E+01
 0.84871142570E+01 0.81567074631E+01 0.77746269934E+01 0.78069844187E+01 0.93780157167E+01
 0.13979617838E+02 0.22095706747E+02 0.31998780480E+02 0.44817709284E+02 0.63584094386E+02
 0.82264387459E+02 0.90246226171E+02 0.82264387459E+02 0.63584094386E+02 0.44817709284E+02
 0.31998780480E+02 0.22095706747E+02 0.13979617838E+02 0.93780157167E+01 0.78069844187E+01
 0.77746269934E+01 0.81567074631E+01 0.84871142570E+01 0.79755304376E+01 0.82190147511E+01
 0.84018174722E+01 0.79081945004E+01 0.77746269934E+01 0.10645084880E+02 0.18397099779E+02
 0.29664494907E+02 0.44817709284E+02 0.75273177673E+02 0.12130536881E+03 0.16554266801E+03
 0.18405201085E+03 0.16554266801E+03 0.12130536881E+03 0.75273177673E+02 0.44817709284E+02
 0.29664494907E+02 0.18397099779E+02 0.10645084880E+02 0.77746269934E+01 0.79081945004E+01
 0.84018174722E+01 0.82190147511E+01 0.85317445979E+01 0.89964975882E+01 0.93242534349E+01
 0.84018174722E+01 0.81567074631E+01 0.12606309992E+02 0.23167612840E+02 0.36725465729E+02
 0.63584094386E+02 0.12130536881E+03 0.20500278206E+03 0.28311484188E+03 0.31536500635E+03
 0.28311484188E+03 0.20500278206E+03 0.12130536881E+03 0.63584094386E+02 0.36725465729E+02
 0.23167612840E+02 0.12606309992E+02 0.81567074631E+01 0.84018174722E+01 0.93242534349E+01
 0.89964975882E+01 0.75865757634E+01 0.82990087108E+01 0.89964975882E+01 0.82190147511E+01
 0.84871142570E+01 0.14516464129E+02 0.26883683526E+02 0.42907481706E+02 0.82264387459E+02
 0.16554266801E+03 0.28311484188E+03 0.39115074560E+03 0.43544897030E+03 0.39115074560E+03
 0.28311484188E+03 0.16554266801E+03 0.82264387459E+02 0.42907481706E+02 0.26883683526E+02
 0.14516464129E+02 0.84871142570E+01 0.82190147511E+01 0.89964975882E+01 0.82990087108E+01
 0.67442497189E+01 0.75865757634E+01 0.85317445979E+01 0.79755304376E+01 0.86128980929E+01
 0.15328615740E+02 0.28291157003E+02 0.45520152293E+02 0.90246226171E+02 0.18405201085E+03
 0.31536500635E+03 0.43544897030E+03 0.48458191294E+03 0.43544897030E+03 0.31536500635E+03
 0.18405201085E+03 0.90246226171E+02 0.45520152293E+02 0.28291157003E+02 0.15328615740E+02
 0.86128980929E+01 0.79755304376E+01 0.85317445979E+01 0.75865757634E+01 0.75865757634E+01
 0.82990087108E+01 0.89964975882E+01 0.82190147511E+01 0.84871142570E+01 0.14516464129E+02
 0.26883683526E+02 0.42907481706E+02 0.82264387459E+02 0.16554266801E+03 0.28311484188E+03
 0.39115074560E+03 0.43544897030E+03 0.39115074560E+03 0.28311484188E+03 0.16554266801E+03
 0.82264387459E+02 0.42907481706E+02 0.26883683526E+02 0.14516464129E+02 0.84871142570E+01
 0.82190147511E+01 0.89964975882E+01 0.82990087108E+01 0.85317445979E+01 0.89964975882E+01
 0.93242534349E+01 0.84018174722E+01 0.81567074631E+01 0.12606309992E+02 0.23167612840E+02
 0.36725465729E+02 0.63584094386E+02 0.12130536881E+03 0.20500278206E+03 0.28311484188E+03
 0.31536500635E+03 0.28311484188E+03 0.20500278206E+03 0.12130536881E+03 0.63584094386E+02
 0.36725465729E+02 0.23167612840E+02 0.12606309992E+02 0.81567074631E+01 0.84018174722E+01
 0.93242534349E+01 0.89964975882E+01 0.79755304376E+01 0.82190147511E+01 0.84018174722E+01
 0.79081945004E+01 0.77746269934E+01 0.10645084880E+02 0.18397099779E+02 0.29664494907E+02
 0.44817709284E+02 0.75273177673E+02 0.12130536881E+03 0.16554266801E+03 0.18405201085E+03
 0.16554266801E+03 0.12130536881E+03 0.75273177673E+02 0.44817709284E+02 0.29664494907E+02
 0.18397099779E+02 0.10645084880E+02 0.77746269934E+01 0.79081945004E+01 0.84018174722E+01
 0.82190147511E+01 0.86128980929E+01 0.84871142570E+01 0.81567074631E+01 0.77746269934E+01
 0.78069844187E+01 0.93780157167E+01 0.13979617838E+02 0.22095706747E+02 0.31998780480E+02
 0.44817709284E+02 0.63584094386E+02 0.82264387459E+02 0.90246226171E+02 0.82264387459E+02
 0.63584094386E+02 0.44817709284E+02 0.31998780480E+02 0.22095706747E+02 0.13979617838E+02
 0.93780157167E+01 0.78069844187E+01 0.77746269934E+01 0.81567074631E+01 0.84871142570E+01
 0.15328615740E+02 0.14516464129E+02 0.12606309992E+02 0.10645084880E+02 0.93780157167E+01
 0.92537430114E+01 0.10969609398E+02 0.15308931823E+02 0.22095706747E+02 0.29664494907E+02
 0.36725465729E+02 0.42907481706E+02 0.45520152293E+02 0.42907481706E+02 0.36725465729E+02
 0.29664494907E+02 0.22095706747E+02 0.15308931823E+02 0.10969609398E+02 0.92537430114E+01
 0.93780157167E+01 0.10645084880E+02 0.12606309992E+02 0.14516464129E+02 0.28291157003E+02
 0.26883683526E+02 0.23167612840E+02 0.18397099779E+02 0.13979617838E+02 0.10969609398E+02
 0.99151670464E+01 0.10969609398E+02 0.13979617838E+02 0.18397099779E+02 0.23167612840E+02
 0.26883683526E+02 0.28291157003E+02 0.26883683526E+02 0.23167612840E+02 0.18397099779E+02
 0.13979617838E+02 0.10969609398E+02 0.99151670464E+01 0.10969609398E+02 0.13979617838E+02
 0.18397099779E+02 0.23167612840E+02 0.26883683526E+02 0.45520152293E+02 0.42907481706E+02
 0.36725465729E+02 0.29664494907E+02 0.22095706747E+02 0.15308931823E+02 0.10969609398E+02
 0.92537430114E+01 0.93780157167E+01 0.10645084880E+02 0.12606309992E+02 0.14516464129E+02
 0.15328615740E+02 0.14516464129E+02 0.12606309992E+02 0.10645084880E+02 0.93780157167E+01