   4   4   0   0
  0.1200752E+02  0.3635000E-09  0.3635000E-09  0.3635000E-09  0.5000000E-15
  1.000000000000000E-004
  CAR 
 unknown system                          
     26.88008275     -5.90191000  301      9.32115592      1.00000000
     -5.902  0.0000E+00  0.0000E+00
     -5.793  0.0000E+00  0.0000E+00
     -5.683  0.0000E+00  0.0000E+00
     -5.574 -0.4531E-30 -0.4951E-31
     -5.465 -0.2917E-26 -0.3188E-27
     -5.356 -0.1029E-22 -0.1124E-23
     -5.246 -0.1985E-19 -0.2171E-20
     -5.137 -0.2095E-16 -0.2291E-17
     -5.028 -0.1170E-13 -0.1281E-14
     -4.918 -0.3643E-11 -0.3994E-12
     -4.809 -0.6153E-09 -0.6763E-10
     -4.700 -0.5599E-07 -0.6185E-08
     -4.591 -0.2719E-05 -0.3033E-06
     -4.481 -0.6927E-04 -0.7873E-05
     -4.372 -0.8935E-03 -0.1055E-03
     -4.263 -0.5328E-02 -0.6877E-03
     -4.154 -0.9855E-02 -0.1765E-02
     -4.044  0.2490E-01  0.9560E-03
     -3.935  0.1138E+00  0.1339E-01
     -3.826  0.1704E+00  0.3201E-01
     -3.716  0.3298E+00  0.6805E-01
     -3.607  0.6927E+00  0.1437E+00
     -3.498  0.6897E+00  0.2191E+00
     -3.389  0.2450E+00  0.2459E+00
     -3.279 -0.3570E-01  0.2420E+00
     -3.170 -0.8663E-01  0.2325E+00
     -3.061  0.1972E-01  0.2347E+00
     -2.952  0.5202E+00  0.2915E+00
     -2.842  0.1111E+01  0.4129E+00
     -2.733  0.1234E+01  0.5478E+00
     -2.624  0.1205E+01  0.6795E+00
     -2.514  0.1217E+01  0.8124E+00
     -2.405  0.1497E+01  0.9760E+00
     -2.296  0.2022E+01  0.1197E+01
     -2.187  0.2845E+01  0.1508E+01
     -2.077  0.4498E+01  0.1999E+01
     -1.968  0.5747E+01  0.2627E+01
     -1.859  0.6149E+01  0.3299E+01
     -1.750  0.7159E+01  0.4082E+01
     -1.640  0.7712E+01  0.4924E+01
     -1.531  0.5789E+01  0.5557E+01
     -1.422  0.3441E+01  0.5933E+01
     -1.312  0.3330E+01  0.6297E+01
     -1.203  0.6022E+01  0.6955E+01
     -1.094  0.9861E+01  0.8032E+01
     -0.985  0.1117E+02  0.9253E+01
     -0.875  0.9911E+01  0.1034E+02
     -0.766  0.1078E+02  0.1151E+02
     -0.657  0.1312E+02  0.1295E+02
     -0.548  0.1225E+02  0.1429E+02
     -0.438  0.9265E+01  0.1530E+02
     -0.329  0.7414E+01  0.1611E+02
     -0.220  0.5078E+01  0.1666E+02
     -0.110  0.2465E+01  0.1693E+02
     -0.001  0.1722E+01  0.1712E+02
      0.108  0.2586E+01  0.1740E+02
      0.217  0.4654E+01  0.1791E+02
      0.327  0.6524E+01  0.1862E+02
      0.436  0.5725E+01  0.1925E+02
      0.545  0.3056E+01  0.1958E+02
      0.654  0.1613E+01  0.1976E+02
      0.764  0.2587E+01  0.2004E+02
      0.873  0.5185E+01  0.2061E+02
      0.982  0.5916E+01  0.2126E+02
      1.092  0.3728E+01  0.2166E+02
      1.201  0.1604E+01  0.2184E+02
      1.310  0.3573E+00  0.2188E+02
      1.419  0.1229E+01  0.2201E+02
      1.529  0.4985E+01  0.2256E+02
      1.638  0.7193E+01  0.2334E+02
      1.747  0.5473E+01  0.2394E+02
      1.856  0.3323E+01  0.2430E+02
      1.966  0.2114E+01  0.2454E+02
      2.075  0.1738E+01  0.2473E+02
      2.184  0.2514E+01  0.2500E+02
      2.294  0.4495E+01  0.2549E+02
      2.403  0.7009E+01  0.2626E+02
      2.512  0.7808E+01  0.2711E+02
      2.621  0.6291E+01  0.2780E+02
      2.731  0.4798E+01  0.2832E+02
      2.840  0.4171E+01  0.2878E+02
      2.949  0.2988E+01  0.2910E+02
      3.059  0.2465E+01  0.2937E+02
      3.168  0.4168E+01  0.2983E+02
      3.277  0.4539E+01  0.3033E+02
      3.386  0.2030E+01  0.3055E+02
      3.496  0.5995E+00  0.3061E+02
      3.605  0.1981E+01  0.3083E+02
      3.714  0.3215E+01  0.3118E+02
      3.823  0.2491E+01  0.3145E+02
      3.933  0.1710E+01  0.3164E+02
      4.042  0.1784E+01  0.3183E+02
      4.151  0.1902E+01  0.3204E+02
      4.261  0.1767E+01  0.3224E+02
      4.370  0.2517E+01  0.3251E+02
      4.479  0.4509E+01  0.3300E+02
      4.588  0.5416E+01  0.3359E+02
      4.698  0.3563E+01  0.3398E+02
      4.807  0.1183E+01  0.3411E+02
      4.916  0.9259E+00  0.3421E+02
      5.025  0.1451E+01  0.3437E+02
      5.135  0.1185E+01  0.3450E+02
      5.244  0.1349E+01  0.3465E+02
      5.353  0.2932E+01  0.3497E+02
      5.463  0.3673E+01  0.3537E+02
      5.572  0.1877E+01  0.3558E+02
      5.681  0.6759E+00  0.3565E+02
      5.790  0.2121E+01  0.3588E+02
      5.900  0.4416E+01  0.3636E+02
      6.009  0.5745E+01  0.3699E+02
      6.118  0.5137E+01  0.3755E+02
      6.227  0.3168E+01  0.3790E+02
      6.337  0.2004E+01  0.3812E+02
      6.446  0.1995E+01  0.3834E+02
      6.555  0.2395E+01  0.3860E+02
      6.665  0.2333E+01  0.3885E+02
      6.774  0.1838E+01  0.3905E+02
      6.883  0.2812E+01  0.3936E+02
      6.992  0.3703E+01  0.3977E+02
      7.102  0.2306E+01  0.4002E+02
      7.211  0.8882E+00  0.4012E+02
      7.320  0.6172E+00  0.4018E+02
      7.429  0.8329E+00  0.4027E+02
      7.539  0.1454E+01  0.4043E+02
      7.648  0.2295E+01  0.4068E+02
      7.757  0.2574E+01  0.4096E+02
      7.867  0.1965E+01  0.4118E+02
      7.976  0.1364E+01  0.4133E+02
      8.085  0.1683E+01  0.4151E+02
      8.194  0.3098E+01  0.4185E+02
      8.304  0.5228E+01  0.4242E+02
      8.413  0.6102E+01  0.4309E+02
      8.522  0.4271E+01  0.4356E+02
      8.631  0.1864E+01  0.4376E+02
      8.741  0.7860E+00  0.4385E+02
      8.850  0.3037E+00  0.4388E+02
      8.959 -0.2815E-01  0.4388E+02
      9.069 -0.1558E+00  0.4386E+02
      9.178 -0.6692E-01  0.4385E+02
      9.287  0.7730E+00  0.4394E+02
      9.396  0.2602E+01  0.4422E+02
      9.506  0.4094E+01  0.4467E+02
      9.615  0.3503E+01  0.4505E+02
      9.724  0.1463E+01  0.4521E+02
      9.833  0.1707E-01  0.4521E+02
      9.943 -0.6470E-01  0.4520E+02
     10.052  0.1431E+01  0.4536E+02
     10.161  0.4052E+01  0.4580E+02
     10.271  0.5445E+01  0.4640E+02
     10.380  0.4177E+01  0.4686E+02
     10.489  0.2175E+01  0.4709E+02
     10.598  0.1305E+01  0.4724E+02
     10.708  0.1975E+01  0.4745E+02
     10.817  0.3165E+01  0.4780E+02
     10.926  0.3687E+01  0.4820E+02
     11.035  0.4023E+01  0.4864E+02
     11.145  0.3094E+01  0.4898E+02
     11.254  0.1053E+01  0.4909E+02
     11.363  0.2156E+00  0.4912E+02
     11.473  0.3601E+00  0.4916E+02
     11.582  0.8202E+00  0.4925E+02
     11.691  0.1476E+01  0.4941E+02
     11.800  0.1242E+01  0.4954E+02
     11.910  0.3243E+00  0.4958E+02
     12.019 -0.1311E+00  0.4956E+02
     12.128 -0.8540E-01  0.4955E+02
     12.237  0.7983E+00  0.4964E+02
     12.347  0.2920E+01  0.4996E+02
     12.456  0.3880E+01  0.5038E+02
     12.565  0.2347E+01  0.5064E+02
     12.675  0.8860E+00  0.5074E+02
     12.784  0.3188E+00  0.5077E+02
     12.893  0.1707E-01  0.5077E+02
     13.002 -0.8036E-01  0.5077E+02
     13.112 -0.6646E-01  0.5076E+02
     13.221  0.1579E+00  0.5078E+02
     13.330  0.7710E+00  0.5086E+02
     13.439  0.1540E+01  0.5103E+02
     13.549  0.1891E+01  0.5123E+02
     13.658  0.1536E+01  0.5140E+02
     13.767  0.1342E+01  0.5155E+02
     13.877  0.2180E+01  0.5179E+02
     13.986  0.3091E+01  0.5213E+02
     14.095  0.2617E+01  0.5241E+02
     14.204  0.1685E+01  0.5260E+02
     14.314  0.1447E+01  0.5275E+02
     14.423  0.9621E+00  0.5286E+02
     14.532  0.6399E+00  0.5293E+02
     14.641  0.1253E+01  0.5307E+02
     14.751  0.1340E+01  0.5321E+02
     14.860  0.6029E+00  0.5328E+02
     14.969  0.4553E+00  0.5333E+02
     15.079  0.6423E+00  0.5340E+02
     15.188  0.4215E+00  0.5344E+02
     15.297  0.6673E+00  0.5352E+02
     15.406  0.1677E+01  0.5370E+02
     15.516  0.1867E+01  0.5390E+02
     15.625  0.1200E+01  0.5404E+02
     15.734  0.1988E+01  0.5425E+02
     15.843  0.3315E+01  0.5461E+02
     15.953  0.2271E+01  0.5486E+02
     16.062  0.5519E+00  0.5492E+02
     16.171  0.7055E+00  0.5500E+02
     16.281  0.1438E+01  0.5516E+02
     16.390  0.9502E+00  0.5526E+02
     16.499  0.2888E+00  0.5529E+02
     16.608  0.8103E+00  0.5538E+02
     16.718  0.1436E+01  0.5554E+02
     16.827  0.1036E+01  0.5565E+02
     16.936  0.1003E+01  0.5576E+02
     17.045  0.1879E+01  0.5597E+02
     17.155  0.1925E+01  0.5618E+02
     17.264  0.1067E+01  0.5629E+02
     17.373  0.1021E+01  0.5640E+02
     17.483  0.2289E+01  0.5665E+02
     17.592  0.2981E+01  0.5698E+02
     17.701  0.2121E+01  0.5721E+02
     17.810  0.2542E+01  0.5749E+02
     17.920  0.4407E+01  0.5797E+02
     18.029  0.4035E+01  0.5841E+02
     18.138  0.1488E+01  0.5858E+02
     18.247 -0.5430E-01  0.5857E+02
     18.357 -0.1800E+00  0.5855E+02
     18.466 -0.4697E-01  0.5854E+02
     18.575 -0.1124E-01  0.5854E+02
     18.685 -0.3931E-01  0.5854E+02
     18.794 -0.8498E-01  0.5853E+02
     18.903  0.1591E+00  0.5855E+02
     19.012  0.1008E+01  0.5866E+02
     19.122  0.1832E+01  0.5886E+02
     19.231  0.2025E+01  0.5908E+02
     19.340  0.1590E+01  0.5925E+02
     19.449  0.6350E+00  0.5932E+02
     19.559 -0.2922E-02  0.5932E+02
     19.668 -0.1674E-01  0.5932E+02
     19.777  0.1510E+00  0.5934E+02
     19.887  0.1714E+00  0.5935E+02
     19.996  0.6117E-01  0.5936E+02
     20.105 -0.4662E-02  0.5936E+02
     20.214 -0.7552E-02  0.5936E+02
     20.324 -0.1698E-02  0.5936E+02
     20.433 -0.1650E-03  0.5936E+02
     20.542 -0.8017E-05  0.5936E+02
     20.652 -0.4049E-05  0.5936E+02
     20.761 -0.1329E-03  0.5936E+02
     20.870 -0.2369E-02  0.5936E+02
     20.979 -0.2058E-01  0.5936E+02
     21.089 -0.7204E-01  0.5935E+02
     21.198  0.2028E-01  0.5935E+02
     21.307  0.6962E+00  0.5943E+02
     21.416  0.1508E+01  0.5959E+02
     21.526  0.1209E+01  0.5972E+02
     21.635  0.3006E+00  0.5976E+02
     21.744 -0.6906E-01  0.5975E+02
     21.854 -0.4647E-01  0.5974E+02
     21.963 -0.8344E-02  0.5974E+02
     22.072 -0.6815E-03  0.5974E+02
     22.181 -0.2805E-04  0.5974E+02
     22.291 -0.6045E-06  0.5974E+02
     22.400 -0.6947E-08  0.5974E+02
     22.509 -0.4300E-10  0.5974E+02
     22.618 -0.1444E-12  0.5974E+02
     22.728  0.0000E+00  0.5974E+02
     22.837  0.0000E+00  0.5974E+02
     22.946  0.0000E+00  0.5974E+02
     23.056  0.0000E+00  0.5974E+02
     23.165  0.0000E+00  0.5974E+02
     23.274 -0.5254E-27  0.5974E+02
     23.383 -0.2349E-23  0.5974E+02
     23.493 -0.5752E-20  0.5974E+02
     23.602 -0.7703E-17  0.5974E+02
     23.711 -0.5505E-14  0.5974E+02
     23.820 -0.2169E-11  0.5974E+02
     23.930 -0.4668E-09  0.5974E+02
     24.039 -0.5426E-07  0.5974E+02
     24.148 -0.3381E-05  0.5974E+02
     24.258 -0.1114E-03  0.5974E+02
     24.367 -0.1891E-02  0.5974E+02
     24.476 -0.1554E-01  0.5974E+02
     24.585 -0.4994E-01  0.5974E+02
     24.695  0.3036E-01  0.5974E+02
     24.804  0.5105E+00  0.5980E+02
     24.913  0.1021E+01  0.5991E+02
     25.022  0.7638E+00  0.5999E+02
     25.132  0.1672E+00  0.6001E+02
     25.241 -0.4928E-01  0.6000E+02
     25.350 -0.2826E-01  0.6000E+02
     25.460 -0.4762E-02  0.6000E+02
     25.569 -0.3694E-03  0.6000E+02
     25.678 -0.1450E-04  0.6000E+02
     25.787 -0.2986E-06  0.6000E+02
     25.897 -0.3281E-08  0.6000E+02
     26.006 -0.1943E-10  0.6000E+02
     26.115 -0.6242E-13  0.6000E+02
     26.224  0.0000E+00  0.6000E+02
     26.334  0.0000E+00  0.6000E+02
     26.443  0.0000E+00  0.6000E+02
     26.552  0.0000E+00  0.6000E+02
     26.662  0.0000E+00  0.6000E+02
     26.771  0.0000E+00  0.6000E+02
     26.880  0.0000E+00  0.6000E+02
