    4    4    1    1
  0.1200752E+02  0.3635000E-09  0.3635000E-09  0.3635000E-09  0.5000000E-15
  1.000000000000000E-004
  CAR 
 unknown system                          
     44     10     30
 
  0.0000000E+00  0.0000000E+00  0.0000000E+00  0.8000000E-02
    1       -3.901910   1.000000
    2       -3.901910   1.000000
    3       -3.901910   1.000000
    4       -2.635345   1.000000
    5       -2.635345   1.000000
    6       -1.966376   1.000000
    7       -1.302773   1.000000
    8       -1.302773   1.000000
    9       -1.302773   1.000000
   10        1.131504   1.000000
   11        1.131504   1.000000
   12        1.131504   1.000000
   13        4.215446   1.000000
   14        4.215446   1.000000
   15        4.215446   1.000000
   16        8.719933   1.000090
   17        8.719933   1.000090
   18        8.719933   1.000090
   19       12.152874  -0.000000
   20       12.152874  -0.000000
   21       12.152874  -0.000000
   22       17.264193   0.000000
   23       17.264193   0.000000
   24       17.264193   0.000000
   25       17.264193   0.000000
   26       17.264193   0.000000
   27       17.264193   0.000000
   28       19.778117   0.000000
   29       19.778117   0.000000
   30       19.778117   0.000000
 
  0.2000000E+00  0.0000000E+00  0.0000000E+00  0.4800000E-01
    1       -2.651830   1.000000
    2       -2.642053   1.000000
    3       -2.569561   1.000000
    4       -2.150819   1.000000
    5       -2.150819   1.000000
    6       -1.481215   1.000000
    7       -1.206390   1.000000
    8       -1.206390   1.000000
    9       -1.187254   1.000000
   10       -1.127275   1.000000
   11       -0.636958   1.000000
   12       -0.636958   1.000000
   13        3.172018   1.000000
   14        3.806572   1.000000
   15        3.806572   1.000000
   16        5.776574   1.000000
   17        6.456218   1.000000
   18        6.456218   1.000000
   19        7.190903   1.000000
   20        7.190903   1.000000
   21        9.632602  -0.025045
   22        9.632602  -0.025045
   23       12.376215  -0.000000
   24       12.376215  -0.000000
   25       15.809165   0.000000
   26       16.973903   0.000000
   27       16.973903   0.000000
   28       17.348141   0.000000
   29       17.889647   0.000000
   30       17.889647   0.000000
 
  0.4000000E+00  0.0000000E+00  0.0000000E+00  0.4800000E-01
    1       -2.847755   1.000000
    2       -2.376684   1.000000
    3       -1.079561   1.000000
    4       -1.079561   1.000000
    5       -0.851678   1.000000
    6       -0.753654   1.000000
    7       -0.753654   1.000000
    8       -0.707052   1.000000
    9       -0.707052   1.000000
   10       -0.646811   1.000000
   11       -0.646811   1.000000
   12       -0.565063   1.000000
   13       -0.163537   1.000000
   14        1.659681   1.000000
   15        2.542247   1.000000
   16        3.216302   1.000000
   17        5.154015   1.000000
   18        5.154015   1.000000
   19        7.421049   1.000000
   20        7.421049   1.000000
   21       11.066425  -0.000000
   22       11.066425  -0.000000
   23       13.492092  -0.000000
   24       13.492092  -0.000000
   25       13.675162  -0.000000
   26       13.675162  -0.000000
   27       13.968847  -0.000000
   28       13.968847  -0.000000
   29       15.354449   0.000000
   30       15.354449   0.000000
 
  0.2000000E+00  0.2000000E+00  0.0000000E+00  0.9600000E-01
    1       -3.605149   1.000000
    2       -2.887693   1.000000
    3       -1.819100   1.000000
    4       -1.711159   1.000000
    5       -1.711159   1.000000
    6       -1.549324   1.000000
    7       -1.078091   1.000000
    8       -1.062269   1.000000
    9       -0.749766   1.000000
   10       -0.749766   1.000000
   11       -0.427355   1.000000
   12       -0.077668   1.000000
   13        0.053377   1.000000
   14        0.053377   1.000000
   15        3.170553   1.000000
   16        5.949846   1.000000
   17        5.949846   1.000000
   18        5.996980   1.000000
   19        5.996980   1.000000
   20        6.582694   1.000000
   21        7.890653   1.000000
   22        8.455595   1.000000
   23        8.455595   1.000000
   24       10.596402  -0.000000
   25       12.625998  -0.000000
   26       13.510248  -0.000000
   27       16.235441   0.000000
   28       16.235441   0.000000
   29       17.522986   0.000000
   30       17.522986   0.000000
 
  0.4000000E+00  0.2000000E+00  0.0000000E+00  0.1920000E+00
    1       -2.143569   1.000000
    2       -2.036352   1.000000
    3       -1.897181   1.000000
    4       -1.183208   1.000000
    5       -1.010039   1.000000
    6       -0.807489   1.000000
    7       -0.782999   1.000000
    8       -0.641890   1.000000
    9       -0.532380   1.000000
   10       -0.398252   1.000000
   11        0.216833   1.000000
   12        1.588922   1.000000
   13        1.792911   1.000000
   14        2.268256   1.000000
   15        2.425491   1.000000
   16        2.866742   1.000000
   17        3.149241   1.000000
   18        3.246204   1.000000
   19        3.656638   1.000000
   20        5.375947   1.000000
   21        6.048407   1.000000
   22        7.604240   1.000000
   23       10.186616  -0.000000
   24       10.233148  -0.000000
   25       11.674217  -0.000000
   26       13.869443  -0.000000
   27       14.277871  -0.000000
   28       15.779207   0.000000
   29       17.538062   0.000000
   30       19.053446   0.000000
 
  0.4000000E+00  0.4000000E+00  0.0000000E+00  0.9600000E-01
    1       -1.231396   1.000000
    2       -0.888876   1.000000
    3       -0.888876   1.000000
    4       -0.704536   1.000000
    5       -0.704536   1.000000
    6        0.469789   1.000000
    7        1.547850   1.000000
    8        1.773077   1.000000
    9        1.881442   1.000000
   10        2.015564   1.000000
   11        2.140728   1.000000
   12        2.140728   1.000000
   13        2.699501   1.000000
   14        2.704767   1.000000
   15        2.704767   1.000000
   16        3.125774   1.000000
   17        3.945982   1.000000
   18        4.377698   1.000000
   19        4.377698   1.000000
   20        5.373834   1.000000
   21        6.615216   1.000000
   22        6.615216   1.000000
   23        6.952315   1.000000
   24        8.650810   1.000011
   25       13.329927  -0.000000
   26       15.018445   0.000000
   27       15.820183   0.000000
   28       15.820183   0.000000
   29       17.068662   0.000000
   30       17.068662   0.000000
 
  0.2000000E+00  0.2000000E+00  0.2000000E+00  0.6400000E-01
    1       -1.554269   1.000000
    2       -1.554269   1.000000
    3       -1.554269   1.000000
    4       -1.018536   1.000000
    5       -1.018536   1.000000
    6       -0.840091   1.000000
    7       -0.374345   1.000000
    8       -0.374345   1.000000
    9       -0.374345   1.000000
   10       -0.175245   1.000000
   11        0.874375   1.000000
   12        0.874375   1.000000
   13        0.874375   1.000000
   14        4.452158   1.000000
   15        4.452158   1.000000
   16        5.419676   1.000000
   17        5.419676   1.000000
   18        5.419676   1.000000
   19        7.742229   1.000000
   20        7.742229   1.000000
   21        7.742229   1.000000
   22       10.416262  -0.000000
   23       10.416262  -0.000000
   24       10.416262  -0.000000
   25       14.021364  -0.000000
   26       14.021364  -0.000000
   27       14.021364  -0.000000
   28       16.667742   0.000000
   29       16.667742   0.000000
   30       16.667742   0.000000
 
  0.4000000E+00  0.2000000E+00  0.2000000E+00  0.1920000E+00
    1       -2.355153   1.000000
    2       -2.029137   1.000000
    3       -1.901290   1.000000
    4       -1.712224   1.000000
    5       -1.712224   1.000000
    6       -1.685018   1.000000
    7       -0.636539   1.000000
    8       -0.564297   1.000000
    9       -0.328121   1.000000
   10       -0.328121   1.000000
   11        1.128187   1.000000
   12        1.506785   1.000000
   13        1.572657   1.000000
   14        1.572657   1.000000
   15        2.358302   1.000000
   16        2.358302   1.000000
   17        2.835030   1.000000
   18        3.625385   1.000000
   19        4.139966   1.000000
   20        4.498277   1.000000
   21        8.376800   1.000000
   22        8.376800   1.000000
   23        9.498560  -0.009085
   24        9.498560  -0.009085
   25       11.016062  -0.000000
   26       11.016062  -0.000000
   27       15.456585   0.000000
   28       17.811180   0.000000
   29       17.945270   0.000000
   30       17.945270   0.000000
 
  0.4000000E+00  0.4000000E+00  0.2000000E+00  0.1920000E+00
    1       -1.092296   1.000000
    2       -1.040885   1.000000
    3       -0.609837   1.000000
    4        0.223042   1.000000
    5        0.299995   1.000000
    6        0.372165   1.000000
    7        0.372165   1.000000
    8        0.646649   1.000000
    9        0.918763   1.000000
   10        0.918763   1.000000
   11        2.489944   1.000000
   12        2.489944   1.000000
   13        2.585786   1.000000
   14        4.594557   1.000000
   15        4.594557   1.000000
   16        4.949411   1.000000
   17        6.127174   1.000000
   18        6.321619   1.000000
   19        6.915450   1.000000
   20        6.915450   1.000000
   21        8.079141   1.000000
   22        8.242181   1.000000
   23       10.254998  -0.000000
   24       10.785235  -0.000000
   25       10.785235  -0.000000
   26       12.380112  -0.000000
   27       12.380112  -0.000000
   28       14.647390  -0.000000
   29       19.258829   0.000000
   30       21.391183   0.000000
 
  0.4000000E+00  0.4000000E+00  0.4000000E+00  0.6400000E-01
    1       -1.387614   1.000000
    2       -1.387614   1.000000
    3       -1.387614   1.000000
    4       -1.256443   1.000000
    5       -1.256443   1.000000
    6       -1.003018   1.000000
    7       -1.003018   1.000000
    8       -1.003018   1.000000
    9       -0.861348   1.000000
   10        0.850635   1.000000
   11        0.850635   1.000000
   12        0.850635   1.000000
   13        3.981116   1.000000
   14        5.779524   1.000000
   15        5.779524   1.000000
   16        5.843799   1.000000
   17        5.843799   1.000000
   18        5.843799   1.000000
   19        8.272469   1.000000
   20        8.272469   1.000000
   21        8.272469   1.000000
   22        9.353771   0.364009
   23        9.353771   0.364009
   24        9.353771   0.364009
   25       10.081367  -0.000001
   26       10.081367  -0.000001
   27       10.081367  -0.000001
   28       11.386662  -0.000000
   29       24.880083   0.000000
   30       24.880083   0.000000
