unknown system                          
   1.00000000000000     
     3.573378    0.000000    0.000000
     0.000000    3.573378    0.000000
     0.000000    0.000000    3.573378
   Cu
     4
Direct
  0.000000  0.000000  0.000000
  0.500000  0.500000  0.000000
  0.500000  0.000000  0.500000
  0.000000  0.500000  0.500000
 
   32   32   32
 0.80174460075E+03 0.75712184790E+03 0.63698879903E+03 0.47556654141E+03 0.31203360917E+03
 0.17687663533E+03 0.85568512198E+02 0.38004578057E+02 0.21132306846E+02 0.15556730294E+02
 0.11933753735E+02 0.96829022120E+01 0.83864374405E+01 0.77145291187E+01 0.73030846353E+01
 0.69582523211E+01 0.68011813646E+01 0.69582523211E+01 0.73030846353E+01 0.77145291187E+01
 0.83864374405E+01 0.96829022120E+01 0.11933753735E+02 0.15556730294E+02 0.21132306846E+02
 0.38004578057E+02 0.85568512198E+02 0.17687663533E+03 0.31203360917E+03 0.47556654141E+03
 0.63698879903E+03 0.75712184790E+03 0.75712184790E+03 0.71480953891E+03 0.60089365767E+03
 0.44786936470E+03 0.29304754780E+03 0.16553015568E+03 0.79997864720E+02 0.36029103209E+02
 0.20701013645E+02 0.15366189440E+02 0.11862341129E+02 0.96982112679E+01 0.84571459175E+01
 0.78166203528E+01 0.74279670636E+01 0.71049952215E+01 0.69582523211E+01 0.71049952215E+01
 0.74279670636E+01 0.78166203528E+01 0.84571459175E+01 0.96982112679E+01 0.11862341129E+02
 0.15366189440E+02 0.20701013645E+02 0.36029103209E+02 0.79997864720E+02 0.16553015568E+03
 0.29304754780E+03 0.44786936470E+03 0.60089365767E+03 0.71480953891E+03 0.63698879903E+03
 0.60089365767E+03 0.50374250404E+03 0.37344395675E+03 0.24227560991E+03 0.13551095066E+03
 0.65567453885E+02 0.31110480849E+02 0.19622811134E+02 0.14838730258E+02 0.11669768487E+02
 0.97366282209E+01 0.86314202896E+01 0.80558034867E+01 0.77078824424E+01 0.74279670636E+01
 0.73030846353E+01 0.74279670636E+01 0.77078824424E+01 0.80558034867E+01 0.86314202896E+01
 0.97366282209E+01 0.11669768487E+02 0.14838730258E+02 0.19622811134E+02 0.31110480849E+02
 0.65567453885E+02 0.13551095066E+03 0.24227560991E+03 0.37344395675E+03 0.50374250404E+03
 0.60089365767E+03 0.47556654141E+03 0.44786936470E+03 0.37344395675E+03 0.27412585642E+03
 0.17534169678E+03 0.96912214884E+02 0.47876723470E+02 0.25565481527E+02 0.18226491888E+02
 0.14096050908E+02 0.11423589301E+02 0.98107329558E+01 0.88784041967E+01 0.83706345954E+01
 0.80558034867E+01 0.78166203528E+01 0.77145291187E+01 0.78166203528E+01 0.80558034867E+01
 0.83706345954E+01 0.88784041967E+01 0.98107329558E+01 0.11423589301E+02 0.14096050908E+02
 0.18226491888E+02 0.25565481527E+02 0.47876723470E+02 0.96912214884E+02 0.17534169678E+03
 0.27412585642E+03 0.37344395675E+03 0.44786936470E+03 0.31203360917E+03 0.29304754780E+03
 0.24227560991E+03 0.17534169678E+03 0.11040129219E+03 0.61187809823E+02 0.32852064733E+02
 0.21358163707E+02 0.16617074858E+02 0.13306503568E+02 0.11230374390E+02 0.99953635998E+01
 0.92790330164E+01 0.88784041967E+01 0.86314202896E+01 0.84571459175E+01 0.83864374405E+01
 0.84571459175E+01 0.86314202896E+01 0.88784041967E+01 0.92790330164E+01 0.99953635998E+01
 0.11230374390E+02 0.13306503568E+02 0.16617074858E+02 0.21358163707E+02 0.32852064733E+02
 0.61187809823E+02 0.11040129219E+03 0.17534169678E+03 0.24227560991E+03 0.29304754780E+03
 0.17687663533E+03 0.16553015568E+03 0.13551095066E+03 0.96912214884E+02 0.61187809823E+02
 0.36273148126E+02 0.23688811847E+02 0.18547181638E+02 0.15036999825E+02 0.12644804368E+02
 0.11211936473E+02 0.10410773111E+02 0.99953635998E+01 0.98107329558E+01 0.97366282209E+01
 0.96982112679E+01 0.96829022120E+01 0.96982112679E+01 0.97366282209E+01 0.98107329558E+01
 0.99953635998E+01 0.10410773111E+02 0.11211936473E+02 0.12644804368E+02 0.15036999825E+02
 0.18547181638E+02 0.23688811847E+02 0.36273148126E+02 0.61187809823E+02 0.96912214884E+02
 0.13551095066E+03 0.16553015568E+03 0.85568512198E+02 0.79997864720E+02 0.65567453885E+02
 0.47876723470E+02 0.32852064733E+02 0.23688811847E+02 0.19261684207E+02 0.16094280632E+02
 0.13738120438E+02 0.12265406101E+02 0.11499140128E+02 0.11211936473E+02 0.11230374390E+02
 0.11423589301E+02 0.11669768487E+02 0.11862341129E+02 0.11933753735E+02 0.11862341129E+02
 0.11669768487E+02 0.11423589301E+02 0.11230374390E+02 0.11211936473E+02 0.11499140128E+02
 0.12265406101E+02 0.13738120438E+02 0.16094280632E+02 0.19261684207E+02 0.23688811847E+02
 0.32852064733E+02 0.47876723470E+02 0.65567453885E+02 0.79997864720E+02 0.38004578057E+02
 0.36029103209E+02 0.31110480849E+02 0.25565481527E+02 0.21358163707E+02 0.18547181638E+02
 0.16094280632E+02 0.14156689016E+02 0.12898679481E+02 0.12305385720E+02 0.12265406101E+02
 0.12644804368E+02 0.13306503568E+02 0.14096050908E+02 0.14838730258E+02 0.15366189440E+02
 0.15556730294E+02 0.15366189440E+02 0.14838730258E+02 0.14096050908E+02 0.13306503568E+02
 0.12644804368E+02 0.12265406101E+02 0.12305385720E+02 0.12898679481E+02 0.14156689016E+02
 0.16094280632E+02 0.18547181638E+02 0.21358163707E+02 0.25565481527E+02 0.31110480849E+02
 0.36029103209E+02 0.21132306846E+02 0.20701013645E+02 0.19622811134E+02 0.18226491888E+02
 0.16617074858E+02 0.15036999825E+02 0.13738120438E+02 0.12898679481E+02 0.12610284640E+02
 0.12898679481E+02 0.13738120438E+02 0.15036999825E+02 0.16617074858E+02 0.18226491888E+02
 0.19622811134E+02 0.20701013645E+02 0.21132306846E+02 0.20701013645E+02 0.19622811134E+02
 0.18226491888E+02 0.16617074858E+02 0.15036999825E+02 0.13738120438E+02 0.12898679481E+02
 0.12610284640E+02 0.12898679481E+02 0.13738120438E+02 0.15036999825E+02 0.16617074858E+02
 0.18226491888E+02 0.19622811134E+02 0.20701013645E+02 0.15556730294E+02 0.15366189440E+02
 0.14838730258E+02 0.14096050908E+02 0.13306503568E+02 0.12644804368E+02 0.12265406101E+02
 0.12305385720E+02 0.12898679481E+02 0.14156689016E+02 0.16094280632E+02 0.18547181638E+02
 0.21358163707E+02 0.25565481527E+02 0.31110480849E+02 0.36029103209E+02 0.38004578057E+02
 0.36029103209E+02 0.31110480849E+02 0.25565481527E+02 0.21358163707E+02 0.18547181638E+02
 0.16094280632E+02 0.14156689016E+02 0.12898679481E+02 0.12305385720E+02 0.12265406101E+02
 0.12644804368E+02 0.13306503568E+02 0.14096050908E+02 0.14838730258E+02 0.15366189440E+02
 0.11933753735E+02 0.11862341129E+02 0.11669768487E+02 0.11423589301E+02 0.11230374390E+02
 0.11211936473E+02 0.11499140128E+02 0.12265406101E+02 0.13738120438E+02 0.16094280632E+02
 0.19261684207E+02 0.23688811847E+02 0.32852064733E+02 0.47876723470E+02 0.65567453885E+02
 0.79997864720E+02 0.85568512198E+02 0.79997864720E+02 0.65567453885E+02 0.47876723470E+02
 0.32852064733E+02 0.23688811847E+02 0.19261684207E+02 0.16094280632E+02 0.13738120438E+02
 0.12265406101E+02 0.11499140128E+02 0.11211936473E+02 0.11230374390E+02 0.11423589301E+02
 0.11669768487E+02 0.11862341129E+02 0.96829022120E+01 0.96982112679E+01 0.97366282209E+01
 0.98107329558E+01 0.99953635998E+01 0.10410773111E+02 0.11211936473E+02 0.12644804368E+02
 0.15036999825E+02 0.18547181638E+02 0.23688811847E+02 0.36273148126E+02 0.61187809823E+02
 0.96912214884E+02 0.13551095066E+03 0.16553015568E+03 0.17687663533E+03 0.16553015568E+03
 0.13551095066E+03 0.96912214884E+02 0.61187809823E+02 0.36273148126E+02 0.23688811847E+02
 0.18547181638E+02 0.15036999825E+02 0.12644804368E+02 0.11211936473E+02 0.10410773111E+02
 0.99953635998E+01 0.98107329558E+01 0.97366282209E+01 0.96982112679E+01 0.83864374405E+01
 0.84571459175E+01 0.86314202896E+01 0.88784041967E+01 0.92790330164E+01 0.99953635998E+01
 0.11230374390E+02 0.13306503568E+02 0.16617074858E+02 0.21358163707E+02 0.32852064733E+02
 0.61187809823E+02 0.11040129219E+03 0.17534169678E+03 0.24227560991E+03 0.29304754780E+03
 0.31203360917E+03 0.29304754780E+03 0.24227560991E+03 0.17534169678E+03 0.11040129219E+03
 0.61187809823E+02 0.32852064733E+02 0.21358163707E+02 0.16617074858E+02 0.13306503568E+02
 0.11230374390E+02 0.99953635998E+01 0.92790330164E+01 0.88784041967E+01 0.86314202896E+01
 0.84571459175E+01 0.77145291187E+01 0.78166203528E+01 0.80558034867E+01 0.83706345954E+01
 0.88784041967E+01 0.98107329558E+01 0.11423589301E+02 0.14096050908E+02 0.18226491888E+02
 0.25565481527E+02 0.47876723470E+02 0.96912214884E+02 0.17534169678E+03 0.27412585642E+03
 0.37344395675E+03 0.44786936470E+03 0.47556654141E+03 0.44786936470E+03 0.37344395675E+03
 0.27412585642E+03 0.17534169678E+03 0.96912214884E+02 0.47876723470E+02 0.25565481527E+02
 0.18226491888E+02 0.14096050908E+02 0.11423589301E+02 0.98107329558E+01 0.88784041967E+01
 0.83706345954E+01 0.80558034867E+01 0.78166203528E+01 0.73030846353E+01 0.74279670636E+01
 0.77078824424E+01 0.80558034867E+01 0.86314202896E+01 0.97366282209E+01 0.11669768487E+02
 0.14838730258E+02 0.19622811134E+02 0.31110480849E+02 0.65567453885E+02 0.13551095066E+03
 0.24227560991E+03 0.37344395675E+03 0.50374250404E+03 0.60089365767E+03 0.63698879903E+03
 0.60089365767E+03 0.50374250404E+03 0.37344395675E+03 0.24227560991E+03 0.13551095066E+03
 0.65567453885E+02 0.31110480849E+02 0.19622811134E+02 0.14838730258E+02 0.11669768487E+02
 0.97366282209E+01 0.86314202896E+01 0.80558034867E+01 0.77078824424E+01 0.74279670636E+01
 0.69582523211E+01 0.71049952215E+01 0.74279670636E+01 0.78166203528E+01 0.84571459175E+01
 0.96982112679E+01 0.11862341129E+02 0.15366189440E+02 0.20701013645E+02 0.36029103209E+02
 0.79997864720E+02 0.16553015568E+03 0.29304754780E+03 0.44786936470E+03 0.60089365767E+03
 0.71480953891E+03 0.75712184790E+03 0.71480953891E+03 0.60089365767E+03 0.44786936470E+03
 0.29304754780E+03 0.16553015568E+03 0.79997864720E+02 0.36029103209E+02 0.20701013645E+02
 0.15366189440E+02 0.11862341129E+02 0.96982112679E+01 0.84571459175E+01 0.78166203528E+01
 0.74279670636E+01 0.71049952215E+01 0.68011813646E+01 0.69582523211E+01 0.73030846353E+01
 0.77145291187E+01 0.83864374405E+01 0.96829022120E+01 0.11933753735E+02 0.15556730294E+02
 0.21132306846E+02 0.38004578057E+02 0.85568512198E+02 0.17687663533E+03 0.31203360917E+03
 0.47556654141E+03 0.63698879903E+03 0.75712184790E+03 0.80174460075E+03 0.75712184790E+03
 0.63698879903E+03 0.47556654141E+03 0.31203360917E+03 0.17687663533E+03 0.85568512198E+02
 0.38004578057E+02 0.21132306846E+02 0.15556730294E+02 0.11933753735E+02 0.96829022120E+01
 0.83864374405E+01 0.77145291187E+01 0.73030846353E+01 0.69582523211E+01 0.69582523211E+01
 0.71049952215E+01 0.74279670636E+01 0.78166203528E+01 0.84571459175E+01 0.96982112679E+01
 0.11862341129E+02 0.15366189440E+02 0.20701013645E+02 0.36029103209E+02 0.79997864720E+02
 0.16553015568E+03 0.29304754780E+03 0.44786936470E+03 0.60089365767E+03 0.71480953891E+03
 0.75712184790E+03 0.71480953891E+03 0.60089365767E+03 0.44786936470E+03 0.29304754780E+03
 0.16553015568E+03 0.79997864720E+02 0.36029103209E+02 0.20701013645E+02 0.15366189440E+02
 0.11862341129E+02 0.96982112679E+01 0.84571459175E+01 0.78166203528E+01 0.74279670636E+01
 0.71049952215E+01 0.73030846353E+01 0.74279670636E+01 0.77078824424E+01 0.80558034867E+01
 0.86314202896E+01 0.97366282209E+01 0.11669768487E+02 0.14838730258E+02 0.19622811134E+02
 0.31110480849E+02 0.65567453885E+02 0.13551095066E+03 0.24227560991E+03 0.37344395675E+03
 0.50374250404E+03 0.60089365767E+03 0.63698879903E+03 0.60089365767E+03 0.50374250404E+03
 0.37344395675E+03 0.24227560991E+03 0.13551095066E+03 0.65567453885E+02 0.31110480849E+02
 0.19622811134E+02 0.14838730258E+02 0.11669768487E+02 0.97366282209E+01 0.86314202896E+01
 0.80558034867E+01 0.77078824424E+01 0.74279670636E+01 0.77145291187E+01 0.78166203528E+01
 0.80558034867E+01 0.83706345954E+01 0.88784041967E+01 0.98107329558E+01 0.11423589301E+02
 0.14096050908E+02 0.18226491888E+02 0.25565481527E+02 0.47876723470E+02 0.96912214884E+02
 0.17534169678E+03 0.27412585642E+03 0.37344395675E+03 0.44786936470E+03 0.47556654141E+03
 0.44786936470E+03 0.37344395675E+03 0.27412585642E+03 0.17534169678E+03 0.96912214884E+02
 0.47876723470E+02 0.25565481527E+02 0.18226491888E+02 0.14096050908E+02 0.11423589301E+02
 0.98107329558E+01 0.88784041967E+01 0.83706345954E+01 0.80558034867E+01 0.78166203528E+01
 0.83864374405E+01 0.84571459175E+01 0.86314202896E+01 0.88784041967E+01 0.92790330164E+01
 0.99953635998E+01 0.11230374390E+02 0.13306503568E+02 0.16617074858E+02 0.21358163707E+02
 0.32852064733E+02 0.61187809823E+02 0.11040129219E+03 0.17534169678E+03 0.24227560991E+03
 0.29304754780E+03 0.31203360917E+03 0.29304754780E+03 0.24227560991E+03 0.17534169678E+03
 0.11040129219E+03 0.61187809823E+02 0.32852064733E+02 0.21358163707E+02 0.16617074858E+02
 0.13306503568E+02 0.11230374390E+02 0.99953635998E+01 0.92790330164E+01 0.88784041967E+01
 0.86314202896E+01 0.84571459175E+01 0.96829022120E+01 0.96982112679E+01 0.97366282209E+01
 0.98107329558E+01 0.99953635998E+01 0.10410773111E+02 0.11211936473E+02 0.12644804368E+02
 0.15036999825E+02 0.18547181638E+02 0.23688811847E+02 0.36273148126E+02 0.61187809823E+02
 0.96912214884E+02 0.13551095066E+03 0.16553015568E+03 0.17687663533E+03 0.16553015568E+03
 0.13551095066E+03 0.96912214884E+02 0.61187809823E+02 0.36273148126E+02 0.23688811847E+02
 0.18547181638E+02 0.15036999825E+02 0.12644804368E+02 0.11211936473E+02 0.10410773111E+02
 0.99953635998E+01 0.98107329558E+01 0.97366282209E+01 0.96982112679E+01 0.11933753735E+02
 0.11862341129E+02 0.11669768487E+02 0.11423589301E+02 0.11230374390E+02 0.11211936473E+02
 0.11499140128E+02 0.12265406101E+02 0.13738120438E+02 0.16094280632E+02 0.19261684207E+02
 0.23688811847E+02 0.32852064733E+02 0.47876723470E+02 0.65567453885E+02 0.79997864720E+02
 0.85568512198E+02 0.79997864720E+02 0.65567453885E+02 0.47876723470E+02 0.32852064733E+02
 0.23688811847E+02 0.19261684207E+02 0.16094280632E+02 0.13738120438E+02 0.12265406101E+02
 0.11499140128E+02 0.11211936473E+02 0.11230374390E+02 0.11423589301E+02 0.11669768487E+02
 0.11862341129E+02 0.15556730294E+02 0.15366189440E+02 0.14838730258E+02 0.14096050908E+02
 0.13306503568E+02 0.12644804368E+02 0.12265406101E+02 0.12305385720E+02 0.12898679481E+02
 0.14156689016E+02 0.16094280632E+02 0.18547181638E+02 0.21358163707E+02 0.25565481527E+02
 0.31110480849E+02 0.36029103209E+02 0.38004578057E+02 0.36029103209E+02 0.31110480849E+02
 0.25565481527E+02 0.21358163707E+02 0.18547181638E+02 0.16094280632E+02 0.14156689016E+02
 0.12898679481E+02 0.12305385720E+02 0.12265406101E+02 0.12644804368E+02 0.13306503568E+02
 0.14096050908E+02 0.14838730258E+02 0.15366189440E+02 0.21132306846E+02 0.20701013645E+02
 0.19622811134E+02 0.18226491888E+02 0.16617074858E+02 0.15036999825E+02 0.13738120438E+02
 0.12898679481E+02 0.12610284640E+02 0.12898679481E+02 0.13738120438E+02 0.15036999825E+02
 0.16617074858E+02 0.18226491888E+02 0.19622811134E+02 0.20701013645E+02 0.21132306846E+02
 0.20701013645E+02 0.19622811134E+02 0.18226491888E+02 0.16617074858E+02 0.15036999825E+02
 0.13738120438E+02 0.12898679481E+02 0.12610284640E+02 0.12898679481E+02 0.13738120438E+02
 0.15036999825E+02 0.16617074858E+02 0.18226491888E+02 0.19622811134E+02 0.20701013645E+02
 0.38004578057E+02 0.36029103209E+02 0.31110480849E+02 0.25565481527E+02 0.21358163707E+02
 0.18547181638E+02 0.16094280632E+02 0.14156689016E+02 0.12898679481E+02 0.12305385720E+02
 0.12265406101E+02 0.12644804368E+02 0.13306503568E+02 0.14096050908E+02 0.14838730258E+02
 0.15366189440E+02 0.15556730294E+02 0.15366189440E+02 0.14838730258E+02 0.14096050908E+02
 0.13306503568E+02 0.12644804368E+02 0.12265406101E+02 0.12305385720E+02 0.12898679481E+02
 0.14156689016E+02 0.16094280632E+02 0.18547181638E+02 0.21358163707E+02 0.25565481527E+02
 0.31110480849E+02 0.36029103209E+02 0.85568512198E+02 0.79997864720E+02 0.65567453885E+02
 0.47876723470E+02 0.32852064733E+02 0.23688811847E+02 0.19261684207E+02 0.16094280632E+02
 0.13738120438E+02 0.12265406101E+02 0.11499140128E+02 0.11211936473E+02 0.11230374390E+02
 0.11423589301E+02 0.11669768487E+02 0.11862341129E+02 0.11933753735E+02 0.11862341129E+02
 0.11669768487E+02 0.11423589301E+02 0.11230374390E+02 0.11211936473E+02 0.11499140128E+02
 0.12265406101E+02 0.13738120438E+02 0.16094280632E+02 0.19261684207E+02 0.23688811847E+02
 0.32852064733E+02 0.47876723470E+02 0.65567453885E+02 0.79997864720E+02 0.17687663533E+03
 0.16553015568E+03 0.13551095066E+03 0.96912214884E+02 0.61187809823E+02 0.36273148126E+02
 0.23688811847E+02 0.18547181638E+02 0.15036999825E+02 0.12644804368E+02 0.11211936473E+02
 0.10410773111E+02 0.99953635998E+01 0.98107329558E+01 0.97366282209E+01 0.96982112679E+01
 0.96829022120E+01 0.96982112679E+01 0.97366282209E+01 0.98107329558E+01 0.99953635998E+01
 0.10410773111E+02 0.11211936473E+02 0.12644804368E+02 0.15036999825E+02 0.18547181638E+02
 0.23688811847E+02 0.36273148126E+02 0.61187809823E+02 0.96912214884E+02 0.13551095066E+03
 0.16553015568E+03 0.31203360917E+03 0.29304754780E+03 0.24227560991E+03 0.17534169678E+03
 0.11040129219E+03 0.61187809823E+02 0.32852064733E+02 0.21358163707E+02 0.16617074858E+02
 0.13306503568E+02 0.11230374390E+02 0.99953635998E+01 0.92790330164E+01 0.88784041967E+01
 0.86314202896E+01 0.84571459175E+01 0.83864374405E+01 0.84571459175E+01 0.86314202896E+01
 0.88784041967E+01 0.92790330164E+01 0.99953635998E+01 0.11230374390E+02 0.13306503568E+02
 0.16617074858E+02 0.21358163707E+02 0.32852064733E+02 0.61187809823E+02 0.11040129219E+03
 0.17534169678E+03 0.24227560991E+03 0.29304754780E+03 0.47556654141E+03 0.44786936470E+03
 0.37344395675E+03 0.27412585642E+03 0.17534169678E+03 0.96912214884E+02 0.47876723470E+02
 0.25565481527E+02 0.18226491888E+02 0.14096050908E+02 0.11423589301E+02 0.98107329558E+01
 0.88784041967E+01 0.83706345954E+01 0.80558034867E+01 0.78166203528E+01 0.77145291187E+01
 0.78166203528E+01 0.80558034867E+01 0.83706345954E+01 0.88784041967E+01 0.98107329558E+01
 0.11423589301E+02 0.14096050908E+02 0.18226491888E+02 0.25565481527E+02 0.47876723470E+02
 0.96912214884E+02 0.17534169678E+03 0.27412585642E+03 0.37344395675E+03 0.44786936470E+03
 0.63698879903E+03 0.60089365767E+03 0.50374250404E+03 0.37344395675E+03 0.24227560991E+03
 0.13551095066E+03 0.65567453885E+02 0.31110480849E+02 0.19622811134E+02 0.14838730258E+02
 0.11669768487E+02 0.97366282209E+01 0.86314202896E+01 0.80558034867E+01 0.77078824424E+01
 0.74279670636E+01 0.73030846353E+01 0.74279670636E+01 0.77078824424E+01 0.80558034867E+01
 0.86314202896E+01 0.97366282209E+01 0.11669768487E+02 0.14838730258E+02 0.19622811134E+02
 0.31110480849E+02 0.65567453885E+02 0.13551095066E+03 0.24227560991E+03 0.37344395675E+03
 0.50374250404E+03 0.60089365767E+03 0.75712184790E+03 0.71480953891E+03 0.60089365767E+03
 0.44786936470E+03 0.29304754780E+03 0.16553015568E+03 0.79997864720E+02 0.36029103209E+02
 0.20701013645E+02 0.15366189440E+02 0.11862341129E+02 0.96982112679E+01 0.84571459175E+01
 0.78166203528E+01 0.74279670636E+01 0.71049952215E+01 0.69582523211E+01 0.71049952215E+01
 0.74279670636E+01 0.78166203528E+01 0.84571459175E+01 0.96982112679E+01 0.11862341129E+02
 0.15366189440E+02 0.20701013645E+02 0.36029103209E+02 0.79997864720E+02 0.16553015568E+03
 0.29304754780E+03 0.44786936470E+03 0.60089365767E+03 0.71480953891E+03 0.75712184790E+03
 0.71480953891E+03 0.60089365767E+03 0.44786936470E+03 0.29304754780E+03 0.16553015568E+03
 0.79997864720E+02 0.36029103209E+02 0.20701013645E+02 0.15366189440E+02 0.11862341129E+02
 0.96982112679E+01 0.84571459175E+01 0.78166203528E+01 0.74279670636E+01 0.71049952215E+01
 0.69582523211E+01 0.71049952215E+01 0.74279670636E+01 0.78166203528E+01 0.84571459175E+01
 0.96982112679E+01 0.11862341129E+02 0.15366189440E+02 0.20701013645E+02 0.36029103209E+02
 0.79997864720E+02 0.16553015568E+03 0.29304754780E+03 0.44786936470E+03 0.60089365767E+03
 0.71480953891E+03 0.71480953891E+03 0.67468855691E+03 0.56667518775E+03 0.42163709820E+03
 0.27511175180E+03 0.15486977994E+03 0.74818474019E+02 0.34226810466E+02 0.20306064866E+02
 0.15179695675E+02 0.11791969809E+02 0.97111795190E+01 0.85228360667E+01 0.79118925761E+01
 0.75445619048E+01 0.72420549402E+01 0.71049952215E+01 0.72420549402E+01 0.75445619048E+01
 0.79118925761E+01 0.85228360667E+01 0.97111795190E+01 0.11791969809E+02 0.15179695675E+02
 0.20306064866E+02 0.34226810466E+02 0.74818474019E+02 0.15486977994E+03 0.27511175180E+03
 0.42163709820E+03 0.56667518775E+03 0.67468855691E+03 0.60089365767E+03 0.56667518775E+03
 0.47459237989E+03 0.35118027581E+03 0.22718886556E+03 0.12670503709E+03 0.61431721440E+02
 0.29753528774E+02 0.19303272670E+02 0.14664372665E+02 0.11602944419E+02 0.97444450506E+01
 0.86857259031E+01 0.81361217725E+01 0.78068395612E+01 0.75445619048E+01 0.74279670636E+01
 0.75445619048E+01 0.78068395612E+01 0.81361217725E+01 0.86857259031E+01 0.97444450506E+01
 0.11602944419E+02 0.14664372665E+02 0.19303272670E+02 0.29753528774E+02 0.61431721440E+02
 0.12670503709E+03 0.22718886556E+03 0.35118027581E+03 0.47459237989E+03 0.56667518775E+03
 0.44786936470E+03 0.42163709820E+03 0.35118027581E+03 0.25727701134E+03 0.16414090178E+03
 0.90607287888E+02 0.45103032935E+02 0.24738130989E+02 0.17949452072E+02 0.13940966673E+02
 0.11362543906E+02 0.98126352582E+01 0.89194406054E+01 0.84343945206E+01 0.81361217725E+01
 0.79118925761E+01 0.78166203528E+01 0.79118925761E+01 0.81361217725E+01 0.84343945206E+01
 0.89194406054E+01 0.98126352582E+01 0.11362543906E+02 0.13940966673E+02 0.17949452072E+02
 0.24738130989E+02 0.45103032935E+02 0.90607287888E+02 0.16414090178E+03 0.25727701134E+03
 0.35118027581E+03 0.42163709820E+03 0.29304754780E+03 0.27511175180E+03 0.22718886556E+03
 0.16414090178E+03 0.10322002994E+03 0.57398649906E+02 0.31356314490E+02 0.20927924953E+02
 0.16377507423E+02 0.13174494357E+02 0.11174385542E+02 0.99882246294E+01 0.93020225033E+01
 0.89194406054E+01 0.86857259031E+01 0.85228360667E+01 0.84571459175E+01 0.85228360667E+01
 0.86857259031E+01 0.89194406054E+01 0.93020225033E+01 0.99882246294E+01 0.11174385542E+02
 0.13174494357E+02 0.16377507423E+02 0.20927924953E+02 0.31356314490E+02 0.57398649906E+02
 0.10322002994E+03 0.16414090178E+03 0.22718886556E+03 0.27511175180E+03 0.16553015568E+03
 0.15486977994E+03 0.12670503709E+03 0.90607287888E+02 0.57398649906E+02 0.34478870280E+02
 0.23060206426E+02 0.18247429313E+02 0.14842103337E+02 0.12534040729E+02 0.11155362906E+02
 0.10386078564E+02 0.99882246294E+01 0.98126352582E+01 0.97444450506E+01 0.97111795190E+01
 0.96982112679E+01 0.97111795190E+01 0.97444450506E+01 0.98126352582E+01 0.99882246294E+01
 0.10386078564E+02 0.11155362906E+02 0.12534040729E+02 0.14842103337E+02 0.18247429313E+02
 0.23060206426E+02 0.34478870280E+02 0.57398649906E+02 0.90607287888E+02 0.12670503709E+03
 0.15486977994E+03 0.79997864720E+02 0.74818474019E+02 0.61431721440E+02 0.45103032935E+02
 0.31356314490E+02 0.23060206426E+02 0.18940900962E+02 0.15861509302E+02 0.13585391238E+02
 0.12167480051E+02 0.11430845094E+02 0.11155362906E+02 0.11174385542E+02 0.11362543906E+02
 0.11602944419E+02 0.11791969809E+02 0.11862341129E+02 0.11791969809E+02 0.11602944419E+02
 0.11362543906E+02 0.11174385542E+02 0.11155362906E+02 0.11430845094E+02 0.12167480051E+02
 0.13585391238E+02 0.15861509302E+02 0.18940900962E+02 0.23060206426E+02 0.31356314490E+02
 0.45103032935E+02 0.61431721440E+02 0.74818474019E+02 0.36029103209E+02 0.34226810466E+02
 0.29753528774E+02 0.24738130989E+02 0.20927924953E+02 0.18247429313E+02 0.15861509302E+02
 0.13987747535E+02 0.12775741696E+02 0.12205326087E+02 0.12167480051E+02 0.12534040729E+02
 0.13174494357E+02 0.13940966673E+02 0.14664372665E+02 0.15179695675E+02 0.15366189440E+02
 0.15179695675E+02 0.14664372665E+02 0.13940966673E+02 0.13174494357E+02 0.12534040729E+02
 0.12167480051E+02 0.12205326087E+02 0.12775741696E+02 0.13987747535E+02 0.15861509302E+02
 0.18247429313E+02 0.20927924953E+02 0.24738130989E+02 0.29753528774E+02 0.34226810466E+02
 0.20701013645E+02 0.20306064866E+02 0.19303272670E+02 0.17949452072E+02 0.16377507423E+02
 0.14842103337E+02 0.13585391238E+02 0.12775741696E+02 0.12498041517E+02 0.12775741696E+02
 0.13585391238E+02 0.14842103337E+02 0.16377507423E+02 0.17949452072E+02 0.19303272670E+02
 0.20306064866E+02 0.20701013645E+02 0.20306064866E+02 0.19303272670E+02 0.17949452072E+02
 0.16377507423E+02 0.14842103337E+02 0.13585391238E+02 0.12775741696E+02 0.12498041517E+02
 0.12775741696E+02 0.13585391238E+02 0.14842103337E+02 0.16377507423E+02 0.17949452072E+02
 0.19303272670E+02 0.20306064866E+02 0.15366189440E+02 0.15179695675E+02 0.14664372665E+02
 0.13940966673E+02 0.13174494357E+02 0.12534040729E+02 0.12167480051E+02 0.12205326087E+02
 0.12775741696E+02 0.13987747535E+02 0.15861509302E+02 0.18247429313E+02 0.20927924953E+02
 0.24738130989E+02 0.29753528774E+02 0.34226810466E+02 0.36029103209E+02 0.34226810466E+02
 0.29753528774E+02 0.24738130989E+02 0.20927924953E+02 0.18247429313E+02 0.15861509302E+02
 0.13987747535E+02 0.12775741696E+02 0.12205326087E+02 0.12167480051E+02 0.12534040729E+02
 0.13174494357E+02 0.13940966673E+02 0.14664372665E+02 0.15179695675E+02 0.11862341129E+02
 0.11791969809E+02 0.11602944419E+02 0.11362543906E+02 0.11174385542E+02 0.11155362906E+02
 0.11430845094E+02 0.12167480051E+02 0.13585391238E+02 0.15861509302E+02 0.18940900962E+02
 0.23060206426E+02 0.31356314490E+02 0.45103032935E+02 0.61431721440E+02 0.74818474019E+02
 0.79997864720E+02 0.74818474019E+02 0.61431721440E+02 0.45103032935E+02 0.31356314490E+02
 0.23060206426E+02 0.18940900962E+02 0.15861509302E+02 0.13585391238E+02 0.12167480051E+02
 0.11430845094E+02 0.11155362906E+02 0.11174385542E+02 0.11362543906E+02 0.11602944419E+02
 0.11791969809E+02 0.96982112679E+01 0.97111795190E+01 0.97444450506E+01 0.98126352582E+01
 0.99882246294E+01 0.10386078564E+02 0.11155362906E+02 0.12534040729E+02 0.14842103337E+02
 0.18247429313E+02 0.23060206426E+02 0.34478870280E+02 0.57398649906E+02 0.90607287888E+02
 0.12670503709E+03 0.15486977994E+03 0.16553015568E+03 0.15486977994E+03 0.12670503709E+03
 0.90607287888E+02 0.57398649906E+02 0.34478870280E+02 0.23060206426E+02 0.18247429313E+02
 0.14842103337E+02 0.12534040729E+02 0.11155362906E+02 0.10386078564E+02 0.99882246294E+01
 0.98126352582E+01 0.97444450506E+01 0.97111795190E+01 0.84571459175E+01 0.85228360667E+01
 0.86857259031E+01 0.89194406054E+01 0.93020225033E+01 0.99882246294E+01 0.11174385542E+02
 0.13174494357E+02 0.16377507423E+02 0.20927924953E+02 0.31356314490E+02 0.57398649906E+02
 0.10322002994E+03 0.16414090178E+03 0.22718886556E+03 0.27511175180E+03 0.29304754780E+03
 0.27511175180E+03 0.22718886556E+03 0.16414090178E+03 0.10322002994E+03 0.57398649906E+02
 0.31356314490E+02 0.20927924953E+02 0.16377507423E+02 0.13174494357E+02 0.11174385542E+02
 0.99882246294E+01 0.93020225033E+01 0.89194406054E+01 0.86857259031E+01 0.85228360667E+01
 0.78166203528E+01 0.79118925761E+01 0.81361217725E+01 0.84343945206E+01 0.89194406054E+01
 0.98126352582E+01 0.11362543906E+02 0.13940966673E+02 0.17949452072E+02 0.24738130989E+02
 0.45103032935E+02 0.90607287888E+02 0.16414090178E+03 0.25727701134E+03 0.35118027581E+03
 0.42163709820E+03 0.44786936470E+03 0.42163709820E+03 0.35118027581E+03 0.25727701134E+03
 0.16414090178E+03 0.90607287888E+02 0.45103032935E+02 0.24738130989E+02 0.17949452072E+02
 0.13940966673E+02 0.11362543906E+02 0.98126352582E+01 0.89194406054E+01 0.84343945206E+01
 0.81361217725E+01 0.79118925761E+01 0.74279670636E+01 0.75445619048E+01 0.78068395612E+01
 0.81361217725E+01 0.86857259031E+01 0.97444450506E+01 0.11602944419E+02 0.14664372665E+02
 0.19303272670E+02 0.29753528774E+02 0.61431721440E+02 0.12670503709E+03 0.22718886556E+03
 0.35118027581E+03 0.47459237989E+03 0.56667518775E+03 0.60089365767E+03 0.56667518775E+03
 0.47459237989E+03 0.35118027581E+03 0.22718886556E+03 0.12670503709E+03 0.61431721440E+02
 0.29753528774E+02 0.19303272670E+02 0.14664372665E+02 0.11602944419E+02 0.97444450506E+01
 0.86857259031E+01 0.81361217725E+01 0.78068395612E+01 0.75445619048E+01 0.71049952215E+01
 0.72420549402E+01 0.75445619048E+01 0.79118925761E+01 0.85228360667E+01 0.97111795190E+01
 0.11791969809E+02 0.15179695675E+02 0.20306064866E+02 0.34226810466E+02 0.74818474019E+02
 0.15486977994E+03 0.27511175180E+03 0.42163709820E+03 0.56667518775E+03 0.67468855691E+03
 0.71480953891E+03 0.67468855691E+03 0.56667518775E+03 0.42163709820E+03 0.27511175180E+03
 0.15486977994E+03 0.74818474019E+02 0.34226810466E+02 0.20306064866E+02 0.15179695675E+02
 0.11791969809E+02 0.97111795190E+01 0.85228360667E+01 0.79118925761E+01 0.75445619048E+01
 0.72420549402E+01 0.69582523211E+01 0.71049952215E+01 0.74279670636E+01 0.78166203528E+01
 0.84571459175E+01 0.96982112679E+01 0.11862341129E+02 0.15366189440E+02 0.20701013645E+02
 0.36029103209E+02 0.79997864720E+02 0.16553015568E+03 0.29304754780E+03 0.44786936470E+03
 0.60089365767E+03 0.71480953891E+03 0.75712184790E+03 0.71480953891E+03 0.60089365767E+03
 0.44786936470E+03 0.29304754780E+03 0.16553015568E+03 0.79997864720E+02 0.36029103209E+02
 0.20701013645E+02 0.15366189440E+02 0.11862341129E+02 0.96982112679E+01 0.84571459175E+01
 0.78166203528E+01 0.74279670636E+01 0.71049952215E+01 0.71049952215E+01 0.72420549402E+01
 0.75445619048E+01 0.79118925761E+01 0.85228360667E+01 0.97111795190E+01 0.11791969809E+02
 0.15179695675E+02 0.20306064866E+02 0.34226810466E+02 0.74818474019E+02 0.15486977994E+03
 0.27511175180E+03 0.42163709820E+03 0.56667518775E+03 0.67468855691E+03 0.71480953891E+03
 0.67468855691E+03 0.56667518775E+03 0.42163709820E+03 0.27511175180E+03 0.15486977994E+03
 0.74818474019E+02 0.34226810466E+02 0.20306064866E+02 0.15179695675E+02 0.11791969809E+02
 0.97111795190E+01 0.85228360667E+01 0.79118925761E+01 0.75445619048E+01 0.72420549402E+01
 0.74279670636E+01 0.75445619048E+01 0.78068395612E+01 0.81361217725E+01 0.86857259031E+01
 0.97444450506E+01 0.11602944419E+02 0.14664372665E+02 0.19303272670E+02 0.29753528774E+02
 0.61431721440E+02 0.12670503709E+03 0.22718886556E+03 0.35118027581E+03 0.47459237989E+03
 0.56667518775E+03 0.60089365767E+03 0.56667518775E+03 0.47459237989E+03 0.35118027581E+03
 0.22718886556E+03 0.12670503709E+03 0.61431721440E+02 0.29753528774E+02 0.19303272670E+02