    4    4    1    1
  0.1140714E+02  0.3573378E-09  0.3573378E-09  0.3573378E-09  0.5000000E-15
  1.000000000000000E-004
  CAR 
 unknown system                          
     44     35     30
 
  0.0000000E+00  0.0000000E+00  0.0000000E+00  0.1371742E-02
    1       -1.597702   1.000000
    2        2.941588   1.000000
    3        2.941588   1.000000
    4        2.941588   1.000000
    5        3.422033   1.000000
    6        3.422033   1.000000
    7        3.422033   1.000000
    8        4.893520   1.000000
    9        4.893520   1.000000
   10        4.893520   1.000000
   11        5.765974   1.000000
   12        5.765974   1.000000
   13        6.345298   1.000000
   14        6.345298   1.000000
   15        6.345298   1.000000
   16        6.510021   1.000000
   17        6.510021   1.000000
   18        6.510021   1.000000
   19        6.510021   1.000000
   20        6.510021   1.000000
   21        6.510021   1.000000
   22        9.494188  -0.000000
   23        9.494188  -0.000000
   24        9.494188  -0.000000
   25       15.386031   0.000000
   26       15.386031   0.000000
   27       15.386031   0.000000
   28       21.374549   0.000000
   29       21.374549   0.000000
   30       21.374549   0.000000
 
  0.1111111E+00  0.0000000E+00  0.0000000E+00  0.8230453E-02
    1       -1.443873   1.000000
    2        2.939363   1.000000
    3        3.014078   1.000000
    4        3.014078   1.000000
    5        3.463875   1.000000
    6        3.466459   1.000000
    7        3.466459   1.000000
    8        4.846647   1.000000
    9        4.931030   1.000000
   10        4.931030   1.000000
   11        5.723561   1.000000
   12        5.783569   1.000000
   13        6.239362   1.000000
   14        6.239362   1.000000
   15        6.290153   1.000000
   16        6.290153   1.000000
   17        6.327405   1.000000
   18        6.445239   1.000000
   19        6.445239   1.000000
   20        6.510129   1.000000
   21        6.510129   1.000000
   22        8.643769  -0.000041
   23        9.901449  -0.000000
   24        9.901449  -0.000000
   25       15.439163   0.000000
   26       15.439163   0.000000
   27       16.535506   0.000000
   28       20.442201   0.000000
   29       20.442203   0.000000
   30       20.771174   0.000000
 
  0.2222222E+00  0.0000000E+00  0.0000000E+00  0.8230453E-02
    1       -0.988833   1.000000
    2        2.875021   1.000000
    3        3.213137   1.000000
    4        3.213137   1.000000
    5        3.585242   1.000000
    6        3.601083   1.000000
    7        3.601083   1.000000
    8        4.711889   1.000000
    9        5.041201   1.000000
   10        5.041201   1.000000
   11        5.604584   1.000000
   12        5.680404   1.000000
   13        5.680404   1.000000
   14        5.832575   1.000000
   15        6.134923   1.000000
   16        6.134923   1.000000
   17        6.266476   1.000000
   18        6.266476   1.000000
   19        6.276039   1.000000
   20        6.510465   1.000000
   21        6.510465   1.000000
   22        7.109687   1.000000
   23       10.868836  -0.000000
   24       10.868836  -0.000000
   25       15.607643   0.000000
   26       15.607643   0.000000
   27       18.710235   0.000000
   28       18.710235   0.000000
   29       19.010758   0.000000
   30       19.535921   0.000000
 
  0.3333333E+00  0.0000000E+00  0.0000000E+00  0.8230453E-02
    1       -0.255144   1.000000
    2        2.542219   1.000000
    3        3.476154   1.000000
    4        3.476154   1.000000
    5        3.773180   1.000000
    6        3.828699   1.000000
    7        3.828699   1.000000
    8        4.508404   1.000000
    9        5.095763   1.000000
   10        5.095763   1.000000
   11        5.219247   1.000000
   12        5.219247   1.000000
   13        5.440362   1.000000
   14        5.875877   1.000000
   15        5.908224   1.000000
   16        5.920446   1.000000
   17        5.920446   1.000000
   18        6.012255   1.000000
   19        6.012255   1.000000
   20        6.197664   1.000000
   21        6.510766   1.000000
   22        6.510766   1.000000
   23       12.127310  -0.000000
   24       12.127310  -0.000000
   25       15.914524   0.000000
   26       15.914524   0.000000
   27       16.904092   0.000000
   28       16.904092   0.000000
   29       18.306834   0.000000
   30       18.306834   0.000000
 
  0.4444444E+00  0.0000000E+00  0.0000000E+00  0.8230453E-02
    1        0.701773   1.000000
    2        1.739975   1.000000
    3        3.681661   1.000000
    4        3.681661   1.000000
    5        4.008162   1.000000
    6        4.153861   1.000000
    7        4.153861   1.000000
    8        4.263475   1.000000
    9        4.578122   1.000000
   10        4.578122   1.000000
   11        5.299419   1.000000
   12        5.337587   1.000000
   13        5.454594   1.000000
   14        5.454594   1.000000
   15        5.728491   1.000000
   16        5.728491   1.000000
   17        5.746301   1.000000
   18        5.746301   1.000000
   19        6.001827   1.000000
   20        6.102374   1.000000
   21        6.511018   1.000000
   22        6.511018   1.000000
   23       13.576940   0.000000
   24       13.576940   0.000000
   25       15.178077   0.000000
   26       15.178077   0.000000
   27       16.357618   0.000000
   28       16.357618   0.000000
   29       17.356796   0.000000
   30       17.356796   0.000000
 
  0.1111111E+00  0.1111111E+00  0.0000000E+00  0.1646091E-01
    1       -1.291309   1.000000
    2        3.014960   1.000000
    3        3.014960   1.000000
    4        3.083718   1.000000
    5        3.506853   1.000000
    6        3.506853   1.000000
    7        3.508194   1.000000
    8        4.820911   1.000000
    9        4.948371   1.000000
   10        4.961274   1.000000
   11        5.712459   1.000000
   12        5.775482   1.000000
   13        6.059033   1.000000
   14        6.120804   1.000000
   15        6.120804   1.000000
   16        6.239232   1.000000
   17        6.303790   1.000000
   18        6.303790   1.000000
   19        6.445072   1.000000
   20        6.445072   1.000000
   21        6.468400   1.000000
   22        9.044961  -0.000000
   23        9.044961  -0.000000
   24       10.260661  -0.000000
   25       15.491386   0.000000
   26       16.617456   0.000000
   27       16.617456   0.000000
   28       18.739872   0.000000
   29       20.647773   0.000000
   30       20.648109   0.000000
 
  0.2222222E+00  0.1111111E+00  0.0000000E+00  0.3292181E-01
    1       -0.840017   1.000000
    2        2.960404   1.000000
    3        3.222962   1.000000
    4        3.275012   1.000000
    5        3.623842   1.000000
    6        3.633286   1.000000
    7        3.636765   1.000000
    8        4.702346   1.000000
    9        5.047749   1.000000
   10        5.048044   1.000000
   11        5.560197   1.000000
   12        5.591596   1.000000
   13        5.615335   1.000000
   14        5.826811   1.000000
   15        5.842536   1.000000
   16        6.094870   1.000000
   17        6.144968   1.000000
   18        6.256265   1.000000
   19        6.265752   1.000000
   20        6.444601   1.000000
   21        6.446363   1.000000
   22        7.583819   1.004688
   23        9.930179  -0.000000
   24       11.159930  -0.000000
   25       15.636291   0.000000
   26       16.872980   0.000000
   27       16.912816   0.000000
   28       18.901855   0.000000
   29       19.112607   0.000000
   30       19.717485   0.000000
 
  0.3333333E+00  0.1111111E+00  0.0000000E+00  0.3292181E-01
    1       -0.113179   1.000000
    2        2.642266   1.000000
    3        3.501634   1.000000
    4        3.532774   1.000000
    5        3.805105   1.000000
    6        3.837249   1.000000
    7        3.856384   1.000000
    8        4.510119   1.000000
    9        4.992473   1.000000
   10        5.059529   1.000000
   11        5.156172   1.000000
   12        5.222093   1.000000
   13        5.418254   1.000000
   14        5.502782   1.000000
   15        5.894674   1.000000
   16        5.921383   1.000000
   17        5.932057   1.000000
   18        6.011306   1.000000
   19        6.120393   1.000000
   20        6.441624   1.000000
   21        6.443608   1.000000
   22        6.568369   1.000000
   23       11.022184  -0.000000
   24       12.372791  -0.000000
   25       15.065035   0.000000
   26       16.113451   0.000000
   27       17.095639   0.000000
   28       17.313821   0.000000
   29       18.477548   0.000000
   30       20.257937   0.000000
 
  0.4444444E+00  0.1111111E+00  0.0000000E+00  0.3292181E-01
    1        0.832949   1.000000
    2        1.856250   1.000000
    3        3.728332   1.000000
    4        3.741898   1.000000
    5        4.031096   1.000000
    6        4.116453   1.000000
    7        4.168653   1.000000
    8        4.275972   1.000000
    9        4.501370   1.000000
   10        4.573174   1.000000
   11        5.145034   1.000000
   12        5.150334   1.000000
   13        5.455326   1.000000
   14        5.575158   1.000000
   15        5.727975   1.000000
   16        5.736529   1.000000
   17        5.751846   1.000000
   18        5.837822   1.000000
   19        6.044013   1.000000
   20        6.202421   1.000000
   21        6.441402   1.000000
   22        6.442410   1.000000
   23       12.246186  -0.000000
   24       13.596389   0.000000
   25       13.794219   0.000000
   26       15.378326   0.000000
   27       16.588554   0.000000
   28       17.308797   0.000000
   29       18.154168   0.000000
   30       19.079921   0.000000
 
  0.2222222E+00  0.2222222E+00  0.0000000E+00  0.1646091E-01
    1       -0.400716   1.000000
    2        3.196635   1.000000
    3        3.196635   1.000000
    4        3.443412   1.000000
    5        3.730147   1.000000
    6        3.740180   1.000000
    7        3.740180   1.000000
    8        4.640328   1.000000
    9        5.069537   1.000000
   10        5.104475   1.000000
   11        5.269647   1.000000
   12        5.269647   1.000000
   13        5.324129   1.000000
   14        5.582573   1.000000
   15        5.879319   1.000000
   16        5.978862   1.000000
   17        6.117040   1.000000
   18        6.117040   1.000000
   19        6.263739   1.000000
   20        6.263739   1.000000
   21        6.345800   1.000000
   22        8.397622  -0.010461
   23        8.397622  -0.010461
   24       11.940449  -0.000000
   25       14.772547   0.000000
   26       16.001541   0.000000
   27       19.396604   0.000000
   28       19.396604   0.000000
   29       19.456775   0.000000
   30       19.456775   0.000000
 
  0.3333333E+00  0.2222222E+00  0.0000000E+00  0.3292181E-01
    1        0.303983   1.000000
    2        2.921801   1.000000
    3        3.523107   1.000000
    4        3.677793   1.000000
    5        3.874524   1.000000
    6        3.899854   1.000000
    7        3.935712   1.000000
    8        4.499750   1.000000
    9        4.757108   1.000000
   10        4.944923   1.000000
   11        4.966593   1.000000
   12        5.075973   1.000000
   13        5.248702   1.000000
   14        5.517980   1.000000
   15        5.814423   1.000000
   16        5.916515   1.000000
   17        5.995493   1.000000
   18        6.009593   1.000000
   19        6.029873   1.000000
   20        6.261607   1.000000
   21        6.289817   1.000000
   22        7.222637   1.000000
   23        9.330687  -0.000000
   24       13.057833  -0.000000
   25       13.085702  -0.000000
   26       16.332510   0.000000
   27       17.650072   0.000000
   28       18.832483   0.000000
   29       20.069319   0.000000
   30       20.326065   0.000000
 
  0.4444444E+00  0.2222222E+00  0.0000000E+00  0.3292181E-01
    1        1.214183   1.000000
    2        2.186947   1.000000
    3        3.820687   1.000000
    4        3.909408   1.000000
    5        4.013365   1.000000
    6        4.097091   1.000000
    7        4.209341   1.000000
    8        4.306927   1.000000
    9        4.330601   1.000000
   10        4.553740   1.000000
   11        4.885438   1.000000
   12        4.988129   1.000000
   13        5.465735   1.000000
   14        5.583046   1.000000
   15        5.691366   1.000000
   16        5.729995   1.000000
   17        5.733316   1.000000
   18        5.783539   1.000000
   19        6.247716   1.000000
   20        6.261352   1.000000
   21        6.267609   1.000000
   22        6.579272   1.000000
   23       10.390064  -0.000000
   24       11.624391  -0.000000
   25       14.413480   0.000000
   26       15.955201   0.000000
   27       16.911421   0.000000
   28       17.745089   0.000000
   29       20.846437   0.000000
   30       21.452807   0.000000
 
  0.3333333E+00  0.3333333E+00  0.0000000E+00  0.1646091E-01
    1        0.965917   1.000000
    2        3.313330   1.000000
    3        3.313330   1.000000
    4        3.814861   1.000000
    5        3.985267   1.000000
    6        4.055541   1.000000
    7        4.055541   1.000000
    8        4.445363   1.000000
    9        4.600151   1.000000
   10        4.600151   1.000000
   11        4.751033   1.000000
   12        5.007764   1.000000
   13        5.338827   1.000000
   14        5.451381   1.000000
   15        5.688217   1.000000
   16        5.811430   1.000000
   17        5.811430   1.000000
   18        6.011487   1.000000
   19        6.011487   1.000000
   20        6.150248   1.000000
   21        6.263945   1.000000
   22        7.965661   0.701493
   23        7.965661   0.701493
   24       11.360627  -0.000000
   25       14.082215   0.000000
   26       16.772726   0.000000
   27       18.519533   0.000000
   28       18.519533   0.000000
   29       19.579456   0.000000
   30       19.579456   0.000000
 
  0.4444444E+00  0.3333333E+00  0.0000000E+00  0.3292181E-01
    1        1.803199   1.000000
    2        2.671140   1.000000
    3        3.681777   1.000000
    4        3.849610   1.000000
    5        4.145821   1.000000
    6        4.197808   1.000000
    7        4.264710   1.000000
    8        4.329089   1.000000
    9        4.337627   1.000000
   10        4.508380   1.000000
   11        4.687558   1.000000
   12        4.874990   1.000000
   13        5.470201   1.000000
   14        5.509718   1.000000
   15        5.589693   1.000000
   16        5.626793   1.000000
   17        5.638427   1.000000
   18        5.745726   1.000000
   19        6.025098   1.000000
   20        6.064793   1.000000
   21        6.594434   1.000000
   22        7.096577   1.000000
   23        8.848591  -0.000000
   24        9.955414  -0.000000
   25       15.364573   0.000000
   26       16.854483   0.000000
   27       17.443643   0.000000
   28       18.375926   0.000000
   29       19.651932   0.000000
   30       20.570556   0.000000
 
  0.4444444E+00  0.4444444E+00  0.0000000E+00  0.1646091E-01
    1        2.510423   1.000000
    2        3.188765   1.000000
    3        3.188765   1.000000
    4        3.595026   1.000000
    5        4.316357   1.000000
    6        4.316357   1.000000
    7        4.344215   1.000000
    8        4.379187   1.000000
    9        4.427396   1.000000
   10        4.545340   1.000000
   11        4.545340   1.000000
   12        4.752712   1.000000
   13        5.398722   1.000000
   14        5.476501   1.000000
   15        5.484255   1.000000
   16        5.484255   1.000000
   17        5.615814   1.000000
   18        5.794356   1.000000
   19        5.794356   1.000000
   20        5.897941   1.000000
   21        7.063239   1.000000
   22        7.758770   1.035012
   23        7.758770   1.035012
   24        8.674081  -0.000016
   25       16.582030   0.000000
   26       18.020573   0.000000
   27       18.020573   0.000000
   28       18.218746   0.000000
   29       19.259195   0.000000
   30       19.259197   0.000000
 
  0.1111111E+00  0.1111111E+00  0.1111111E+00  0.1097394E-01
    1       -1.140057   1.000000
    2        3.086831   1.000000
    3        3.086831   1.000000
    4        3.086831   1.000000
    5        3.547302   1.000000
    6        3.547302   1.000000
    7        3.547302   1.000000
    8        4.798632   1.000000
    9        4.974672   1.000000
   10        4.974672   1.000000
   11        5.738176   1.000000
   12        5.738176   1.000000
   13        5.959299   1.000000
   14        5.959299   1.000000
   15        5.959299   1.000000
   16        6.179220   1.000000
   17        6.179220   1.000000
   18        6.179220   1.000000
   19        6.453597   1.000000
   20        6.453597   1.000000
   21        6.453597   1.000000
   22        9.379313  -0.000000
   23        9.379313  -0.000000
   24        9.379313  -0.000000
   25       16.698348   0.000000
   26       16.698348   0.000000
   27       16.698348   0.000000
   28       18.934054   0.000000
   29       18.934054   0.000000
   30       18.934054   0.000000
 
  0.2222222E+00  0.1111111E+00  0.1111111E+00  0.3292181E-01
    1       -0.693085   1.000000
    2        3.038770   1.000000
    3        3.283923   1.000000
    4        3.283923   1.000000
    5        3.661223   1.000000
    6        3.668540   1.000000
    7        3.668540   1.000000
    8        4.694869   1.000000
    9        5.048275   1.000000
   10        5.053439   1.000000
   11        5.485249   1.000000
   12        5.485249   1.000000
   13        5.643170   1.000000
   14        5.664588   1.000000
   15        5.811294   1.000000
   16        6.022486   1.000000
   17        6.052311   1.000000
   18        6.052311   1.000000
   19        6.400970   1.000000
   20        6.429342   1.000000
   21        6.429342   1.000000
   22        7.895434   0.918804
   23       10.179708  -0.000000
   24       10.179708  -0.000000
   25       16.827229   0.000000
   26       16.827229   0.000000
   27       17.207356   0.000000
   28       17.207356   0.000000
   29       19.161803   0.000000
   30       19.551403   0.000000
 
  0.3333333E+00  0.1111111E+00  0.1111111E+00  0.3292181E-01
    1        0.025812   1.000000
    2        2.732410   1.000000
    3        3.552684   1.000000
    4        3.552684   1.000000
    5        3.838088   1.000000
    6        3.862388   1.000000
    7        3.862388   1.000000
    8        4.515598   1.000000
    9        4.973558   1.000000
   10        4.973558   1.000000
   11        5.133364   1.000000
   12        5.184743   1.000000
   13        5.262082   1.000000
   14        5.577210   1.000000
   15        5.809728   1.000000
   16        5.875901   1.000000
   17        5.875901   1.000000
   18        5.920933   1.000000
   19        6.308391   1.000000
   20        6.407553   1.000000
   21        6.407553   1.000000
   22        6.764623   1.000000
   23       11.210966  -0.000000
   24       11.210966  -0.000000
   25       15.339823   0.000000
   26       15.339823   0.000000
   27       17.480843   0.000000
   28       17.480843   0.000000
   29       20.335231   0.000000
   30       20.422535   0.000000
 
  0.4444444E+00  0.1111111E+00  0.1111111E+00  0.3292181E-01
    1        0.959127   1.000000
    2        1.964193   1.000000
    3        3.787852   1.000000
    4        3.787852   1.000000
    5        4.057488   1.000000
    6        4.090069   1.000000
    7        4.090069   1.000000
    8        4.293145   1.000000
    9        4.547614   1.000000
   10        4.547614   1.000000
   11        5.054559   1.000000
   12        5.091946   1.000000
   13        5.364369   1.000000
   14        5.579766   1.000000
   15        5.720720   1.000000
   16        5.720720   1.000000
   17        5.730691   1.000000
   18        6.051950   1.000000
   19        6.111025   1.000000
   20        6.186721   1.000000
   21        6.398131   1.000000
   22        6.398131   1.000000
   23       12.344468  -0.000000
   24       12.344468  -0.000000
   25       13.897540   0.000000
   26       13.897540   0.000000
   27       18.184162   0.000000
   28       18.184162   0.000000
   29       19.236966   0.000000
   30       19.236966   0.000000
 
  0.2222222E+00  0.2222222E+00  0.1111111E+00  0.3292181E-01
    1       -0.259843   1.000000
    2        3.253231   1.000000
    3        3.253231   1.000000
    4        3.447088   1.000000
    5        3.765064   1.000000
    6        3.773913   1.000000
    7        3.773913   1.000000
    8        4.643559   1.000000
    9        5.066987   1.000000
   10        5.086106   1.000000
   11        5.216144   1.000000
   12        5.216144   1.000000
   13        5.244551   1.000000
   14        5.645603   1.000000
   15        5.851892   1.000000
   16        5.889008   1.000000
   17        5.913136   1.000000
   18        5.913136   1.000000
   19        6.379153   1.000000
   20        6.379153   1.000000
   21        6.380448   1.000000
   22        8.591570  -0.000177
   23        8.591570  -0.000177
   24       10.827521  -0.000000
   25       15.067337   0.000000
   26       17.301151   0.000000
   27       17.580474   0.000000
   28       17.580474   0.000000
   29       19.572738   0.000000
   30       19.572738   0.000000
 
  0.3333333E+00  0.2222222E+00  0.1111111E+00  0.6584362E-01
    1        0.433173   1.000000
    2        2.977870   1.000000
    3        3.542798   1.000000
    4        3.665942   1.000000
    5        3.906662   1.000000
    6        3.939873   1.000000
    7        3.951333   1.000000
    8        4.519253   1.000000
    9        4.780377   1.000000
   10        4.907338   1.000000
   11        4.938693   1.000000
   12        5.069938   1.000000
   13        5.173548   1.000000
   14        5.633489   1.000000
   15        5.706236   1.000000
   16        5.737429   1.000000
   17        5.785706   1.000000
   18        6.004390   1.000000
   19        6.275664   1.000000
   20        6.321679   1.000000
   21        6.322579   1.000000
   22        7.320189   1.000005
   23        9.463232  -0.000000
   24       11.651155  -0.000000
   25       13.462584  -0.000000
   26       15.883656   0.000000
   27       17.812382   0.000000
   28       18.424744   0.000000
   29       20.102651   0.000000
   30       20.937736   0.000000
 
  0.4444444E+00  0.2222222E+00  0.1111111E+00  0.6584362E-01
    1        1.323430   1.000000
    2        2.266780   1.000000
    3        3.819639   1.000000
    4        3.898481   1.000000
    5        3.980572   1.000000
    6        4.075629   1.000000
    7        4.138949   1.000000
    8        4.341040   1.000000
    9        4.514347   1.000000
   10        4.614985   1.000000
   11        4.872630   1.000000
   12        4.978094   1.000000
   13        5.306511   1.000000
   14        5.489868   1.000000
   15        5.625708   1.000000
   16        5.650309   1.000000
   17        5.795845   1.000000
   18        6.076355   1.000000
   19        6.214815   1.000000
   20        6.287348   1.000000
   21        6.287843   1.000000
   22        6.565543   1.000000
   23       10.469485  -0.000000
   24       11.556461  -0.000000
   25       13.231607  -0.000000
   26       14.407505   0.000000
   27       18.581385   0.000000
   28       19.523848   0.000000
   29       19.603949   0.000000
   30       20.851053   0.000000
 
  0.3333333E+00  0.3333333E+00  0.1111111E+00  0.3292181E-01
    1        1.075349   1.000000
    2        3.298671   1.000000
    3        3.298671   1.000000
    4        3.730951   1.000000
    5        4.044957   1.000000
    6        4.110909   1.000000
    7        4.110909   1.000000
    8        4.489581   1.000000
    9        4.649256   1.000000
   10        4.649256   1.000000
   11        4.788416   1.000000
   12        5.009092   1.000000
   13        5.192072   1.000000
   14        5.585052   1.000000
   15        5.612360   1.000000
   16        5.612360   1.000000
   17        5.629899   1.000000
   18        6.186804   1.000000
   19        6.186804   1.000000
   20        6.222771   1.000000
   21        6.229853   1.000000
   22        8.024846   0.457956
   23        8.024846   0.457956
   24       11.228190  -0.000000
   25       13.011554  -0.000000
   26       16.705099   0.000000
   27       16.705099   0.000000
   28       18.384199   0.000000
   29       20.630040   0.000000
   30       21.623516   0.000000
 
  0.4444444E+00  0.3333333E+00  0.1111111E+00  0.6584362E-01
    1        1.877783   1.000000
    2        2.693330   1.000000
    3        3.572484   1.000000
    4        3.712033   1.000000
    5        4.197424   1.000000
    6        4.264099   1.000000
    7        4.279173   1.000000
    8        4.408095   1.000000
    9        4.519226   1.000000
   10        4.644669   1.000000
   11        4.713163   1.000000
   12        4.884009   1.000000
   13        5.262868   1.000000
   14        5.415152   1.000000
   15        5.484696   1.000000
   16        5.508606   1.000000
   17        5.747775   1.000000
   18        5.978579   1.000000
   19        6.131898   1.000000
   20        6.146437   1.000000
   21        6.555966   1.000000
   22        7.081989   1.000000
   23        8.883705  -0.000000
   24        9.959546  -0.000000
   25       13.952407   0.000000
   26       15.211848   0.000000
   27       17.781859   0.000000
   28       19.092941   0.000000
   29       19.217670   0.000000
   30       20.314471   0.000000
 
  0.4444444E+00  0.4444444E+00  0.1111111E+00  0.3292181E-01
    1        2.524627   1.000000
    2        3.124614   1.000000
    3        3.124614   1.000000
    4        3.463285   1.000000
    5        4.420538   1.000000
    6        4.454307   1.000000
    7        4.454307   1.000000
    8        4.464204   1.000000
    9        4.596003   1.000000
   10        4.596003   1.000000
   11        4.610187   1.000000
   12        4.774996   1.000000
   13        5.246759   1.000000
   14        5.342851   1.000000
   15        5.342851   1.000000
   16        5.359207   1.000000
   17        5.782685   1.000000
   18        5.941070   1.000000
   19        5.941070   1.000000
   20        6.009125   1.000000
   21        7.024487   1.000000
   22        7.743475   1.033218
   23        7.743475   1.033218
   24        8.669467  -0.000019
   25       14.992171   0.000000
   26       16.270946   0.000000
   27       16.270946   0.000000
   28       17.565913   0.000000
   29       20.119068   0.000000
   30       21.282470   0.000000
 
  0.2222222E+00  0.2222222E+00  0.2222222E+00  0.1097394E-01
    1        0.153646   1.000000
    2        3.393588   1.000000
    3        3.393588   1.000000
    4        3.393588   1.000000
    5        3.881232   1.000000
    6        3.881232   1.000000
    7        3.881232   1.000000
    8        4.633270   1.000000
    9        5.044746   1.000000
   10        5.044746   1.000000
   11        5.044746   1.000000
   12        5.066441   1.000000
   13        5.066441   1.000000
   14        5.700712   1.000000
   15        5.700712   1.000000
   16        5.700712   1.000000
   17        5.794728   1.000000
   18        5.794728   1.000000
   19        6.412221   1.000000
   20        6.412221   1.000000
   21        6.412221   1.000000
   22        9.103171  -0.000000
   23        9.103171  -0.000000
   24        9.103171  -0.000000
   25       15.625005   0.000000
   26       15.625005   0.000000
   27       15.625005   0.000000
   28       19.912904   0.000000
   29       19.912904   0.000000
   30       19.912904   0.000000
 
  0.3333333E+00  0.2222222E+00  0.2222222E+00  0.3292181E-01
    1        0.808011   1.000000
    2        3.111637   1.000000
    3        3.550797   1.000000
    4        3.550797   1.000000
    5        4.044944   1.000000
    6        4.044944   1.000000
    7        4.070387   1.000000
    8        4.572273   1.000000
    9        4.829569   1.000000
   10        4.829569   1.000000
   11        4.857369   1.000000
   12        5.046778   1.000000
   13        5.088846   1.000000
   14        5.493971   1.000000
   15        5.565869   1.000000
   16        5.565869   1.000000
   17        5.811713   1.000000
   18        5.975171   1.000000
   19        6.363137   1.000000
   20        6.363137   1.000000
   21        6.385583   1.000000
   22        7.654368   1.014330
   23        9.802564  -0.000000
   24        9.802564  -0.000000
   25       13.973138   0.000000
   26       13.973138   0.000000
   27       16.452348   0.000000
   28       20.388060   0.000000
   29       20.492777   0.000000
   30       20.492777   0.000000
 
  0.4444444E+00  0.2222222E+00  0.2222222E+00  0.3292181E-01
    1        1.631531   1.000000
    2        2.477198   1.000000
    3        3.664086   1.000000
    4        3.664086   1.000000
    5        4.148524   1.000000
    6        4.148524   1.000000
    7        4.277935   1.000000
    8        4.451122   1.000000
    9        4.726543   1.000000
   10        4.726543   1.000000
   11        4.834374   1.000000
   12        4.945964   1.000000
   13        5.169841   1.000000
   14        5.309024   1.000000
   15        5.471913   1.000000
   16        5.471913   1.000000
   17        6.067503   1.000000
   18        6.150633   1.000000
   19        6.294383   1.000000
   20        6.309280   1.000000
   21        6.309280   1.000000
   22        6.653809   1.000000
   23       10.497284  -0.000000
   24       10.497284  -0.000000
   25       12.801426  -0.000000
   26       12.801426  -0.000000
   27       17.533162   0.000000
   28       18.847573   0.000000
   29       21.300660   0.000000
   30       21.300660   0.000000
 
  0.3333333E+00  0.3333333E+00  0.2222222E+00  0.3292181E-01
    1        1.385194   1.000000
    2        3.251485   1.000000
    3        3.251485   1.000000
    4        3.507424   1.000000
    5        4.217627   1.000000
    6        4.274263   1.000000
    7        4.274263   1.000000