unknown system                          
   1.00000000000000     
     2.423200    0.000000    0.000000
    -1.211600    2.098553    0.000000
     0.000000    0.000000    4.434560
   Fe
     2
Direct
  0.000000  0.000000  0.000000
  0.333333  0.666667  0.500000
 
   20   20   36
  189.89      179.15      150.48      112.53      74.812      44.235      23.943      13.564      9.9674      8.8225    
  8.4428      8.8236      9.9682      13.564      23.942      44.234      74.812      112.53      150.48      179.15    
  179.16      179.15      159.48      126.42      89.151      55.837      31.378      17.046      10.982      9.1894    
  8.4437      8.4423      9.1878      10.983      17.048      31.376      55.834      89.158      126.45      159.51    
  150.50      159.48      150.48      126.42      94.496      62.731      37.130      20.460      12.263      9.5270    
  8.4829      8.1318      8.4797      9.5259      12.266      20.461      37.125      62.725      94.502      126.44    
  112.53      126.37      126.37      112.53      89.151      62.730      39.295      22.576      13.377      9.8302    
  8.5474      7.9181      7.9172      8.5463      9.8310      13.378      22.575      39.288      62.718      89.139    
  74.788      89.056      94.380      89.076      74.812      55.835      37.131      22.577      13.820      10.036    
  8.6089      7.7974      7.5390      7.7985      8.6094      10.036      13.823      22.582      37.131      55.822    
  44.232      55.763      62.606      62.612      55.774      44.234      31.378      20.461      13.377      10.035    
  8.6344      7.7472      7.3311      7.3324      7.7483      8.6324      10.034      13.384      20.477      31.390    
  23.959      31.370      37.076      39.216      37.070      31.357      23.943      17.047      12.263      9.8296    
  8.6090      7.7473      7.2657      7.1187      7.2675      7.7461      8.6029      9.8239      12.266      17.060    
  13.562      17.074      20.487      22.584      22.576      20.471      17.063      13.564      10.982      9.5262    
  8.5474      7.7977      7.3307      7.1187      7.1198      7.3328      7.7971      8.5403      9.5132      10.970    
  9.9483      11.001      12.316      13.445      13.887      13.439      12.316      11.014      9.9677      9.1890    
  8.4826      7.9186      7.5388      7.3322      7.2680      7.3329      7.5431      7.9247      8.4820      9.1761    
  8.8225      9.2130      9.5809      9.9146      10.139      10.141      9.9221      9.5936      9.2241      8.8228    
  8.4433      8.1323      7.9176      7.7981      7.7487      7.7464      7.7963      7.9244      8.1471      8.4552    
  8.4603      8.4945      8.5598      8.6500      8.7354      8.7736      8.7417      8.6561      8.5579      8.4821    
  8.4428      8.4423      8.4802      8.5459      8.6090      8.6326      8.6024      8.5399      8.4829      8.4555    
  8.8215      8.4941      8.2290      8.0476      7.9521      7.9199      7.9218      7.9530      8.0401      8.2144    
  8.4832      8.8229      9.1880      9.5258      9.8302      10.036      10.035      9.8238      9.5138      9.1766    
  9.9476      9.2125      8.5607      8.0479      7.7069      7.5257      7.4717      7.5256      7.7029      8.0411    
  8.5602      9.2252      9.9678      10.983      12.265      13.379      13.824      13.384      12.265      10.970    
  13.563      11.001      9.5815      8.6503      7.9514      7.5257      7.3355      7.3346      7.5242      7.9526    
  8.6574      9.5939      11.012      13.564      17.049      20.461      22.575      22.582      20.476      17.059    
  23.961      17.074      12.316      9.9143      8.7349      7.9199      7.4722      7.3344      7.4695      7.9204    
  8.7417      9.9214      12.314      17.061      23.943      31.376      37.124      39.288      37.130      31.390    
  44.233      31.370      20.486      13.444      10.139      8.7739      7.9221      7.5252      7.5239      7.9207    
  8.7755      10.140      13.437      20.471      31.358      44.234      55.834      62.724      62.718      55.823    
  74.788      55.762      37.076      22.584      13.888      10.141      8.7414      7.9528      7.7027      7.9531    
  8.7419      10.140      13.883      22.578      37.076      55.776      74.812      89.159      94.503      89.140    
  112.52      89.056      62.606      39.217      22.577      13.439      9.9214      8.6563      8.0404      8.0412    
  8.6574      9.9209      13.437      22.578      39.224      62.618      89.068      112.53      126.45      126.44    
  150.50      126.37      94.381      62.613      37.069      20.470      12.316      9.5942      8.5584      8.2139    
  8.5598      9.5939      12.314      20.471      37.076      62.618      94.374      126.35      150.48      159.51    
  179.16      159.48      126.37      89.075      55.773      31.357      17.063      11.014      9.2243      8.4814    
  8.4828      9.2258      11.013      17.061      31.358      55.776      89.068      126.35      159.45      179.15    
  178.76      168.66      141.68      105.91      70.345      41.566      22.592      13.020      9.7567      8.6562    
  8.2890      8.6571      9.7574      13.020      22.591      41.565      70.345      105.92      141.68      168.66    
  168.67      168.66      150.15      119.00      83.856      52.460      29.509      16.199      10.668      9.0066    
  8.2853      8.2840      9.0052      10.669      16.202      29.508      52.458      83.862      119.02      150.18    
  141.69      150.15      141.68      119.00      88.893      58.943      34.881      19.340      11.815      9.3280    
  8.3191      7.9812      8.3160      9.3270      11.818      19.340      34.876      58.937      88.898      119.02    
  105.91      118.97      118.97      105.92      83.855      58.942      36.907      21.294      12.818      9.6015    
  8.3780      7.7731      7.7723      8.3769      9.6021      12.820      21.293      36.900      58.931      83.844    
  70.323      83.787      88.812      83.804      70.345      52.459      34.881      21.294      13.219      9.7828    
  8.4350      7.6556      7.4085      7.6567      8.4355      9.7831      13.221      21.299      34.882      52.447    
  41.564      52.415      58.865      58.871      52.425      41.565      29.509      19.341      12.818      9.7826    
  8.4589      7.6066      7.2091      7.2104      7.6078      8.4571      9.7815      12.825      19.355      29.520    
  22.607      29.525      34.873      36.883      34.868      29.513      22.592      16.200      11.815      9.6009    
  8.4352      7.6067      7.1465      7.0065      7.1482      7.6057      8.4297      9.5958      11.818      16.212    
  13.019      16.245      19.403      21.352      21.345      19.389      16.235      13.020      10.668      9.3273    
  8.3780      7.6559      7.2088      7.0064      7.0074      7.2106      7.6553      8.3716      9.3155      10.657    
  9.7392      10.702      11.896      12.925      13.329      12.920      11.896      10.713      9.7570      9.0063    
  8.3187      7.7737      7.4084      7.2102      7.1488      7.2107      7.4121      7.7791      8.3182      8.9944    
  8.6561      9.0412      9.4031      9.7148      9.9189      9.9208      9.7215      9.4146      9.0513      8.6565    
  8.2849      7.9817      7.7727      7.6563      7.6081      7.6060      7.6546      7.7789      7.9951      8.2958    
  8.3050      8.3429      8.4105      8.5006      8.5843      8.6212      8.5899      8.5060      8.4087      8.3316    
  8.2890      8.2840      8.3165      8.3765      8.4352      8.4573      8.4292      8.3712      8.3191      8.2961    
  8.6552      8.3426      8.0896      7.9160      7.8238      7.7921      7.7939      7.8247      7.9092      8.0763    
  8.3326      8.6565      9.0053      9.3269      9.6014      9.7833      9.7819      9.5957      9.3161      8.9949    
  9.7385      9.0408      8.4114      7.9162      7.5861      7.4098      7.3570      7.4099      7.5826      7.9101    
  8.4109      9.0524      9.7571      10.670      11.817      12.820      13.222      12.825      11.817      10.657    
  13.019      10.702      9.4037      8.5009      7.8231      7.4098      7.2245      7.2237      7.4085      7.8243    
  8.5073      9.4150      10.712      13.020      16.202      19.340      21.293      21.299      19.354      16.212    
  22.608      16.246      11.896      9.7145      8.5838      7.7921      7.3575      7.2235      7.3549      7.7925    
  8.5899      9.7209      11.894      16.233      22.592      29.508      34.876      36.899      34.881      29.520    
  41.564      29.525      19.402      12.924      9.9193      8.6215      7.7942      7.4095      7.4082      7.7927    
  8.6229      9.9202      12.918      19.389      29.514      41.565      52.457      58.937      58.932      52.448    
  70.323      52.414      34.873      21.352      13.330      9.9209      8.5896      7.8245      7.5825      7.8248    
  8.5901      9.9200      13.325      21.346      34.873      52.427      70.345      83.862      88.898      83.845    
  105.91      83.786      58.866      36.884      21.345      12.919      9.7209      8.5062      7.9095      7.9102    
  8.5073      9.7205      12.918      21.346      36.890      58.876      83.798      105.92      119.02      119.02    
  141.69      118.97      88.813      58.872      34.867      19.388      11.896      9.4152      8.4092      8.0757    
  8.4105      9.4150      11.894      19.389      34.873      58.876      88.806      118.95      141.68      150.18    
  168.67      150.15      118.97      83.804      52.425      29.513      16.235      10.714      9.0515      8.3309    
  8.3323      9.0530      10.712      16.233      29.514      52.427      83.798      118.95      150.13      168.66    
  149.14      140.73      118.18      88.224      58.425      34.506      19.087      11.646      9.1970      8.2026    
  7.8724      8.2035      9.1976      11.646      19.086      34.505      58.425      88.225      118.18      140.73    
  140.74      140.73      125.27      99.181      69.706      43.486      24.613      14.034      9.8689      8.5027    
  7.8526      7.8515      8.5014      9.8702      14.037      24.612      43.485      69.711      99.197      125.29    
  118.20      125.28      118.18      99.182      73.918      48.859      28.960      16.450      10.682      8.7811    
  7.8689      7.5686      7.8662      8.7801      10.684      16.451      28.956      48.855      73.921      99.195    
  88.220      99.185      99.187      88.226      69.706      48.859      30.608      17.974      11.403      8.9961    
  7.9105      7.3748      7.3741      7.9096      8.9964      11.404      17.973      30.603      48.850      69.698    
  58.409      69.705      73.926      69.718      58.425      43.485      28.960      17.974      11.694      9.1240    
  7.9541      7.2646      7.0488      7.2657      7.9546      9.1239      11.695      17.978      28.960      43.477    
  34.504      43.516      48.902      48.907      43.523      34.505      24.613      16.451      11.403      9.1238    
  7.9728      7.2181      6.8717      6.8729      7.2194      7.9716      9.1229      11.408      16.462      24.621    
  19.098      24.691      29.071      30.727      29.067      24.682      19.087      14.035      10.682      8.9956    
  7.9543      7.2182      6.8164      6.6949      6.8178      7.2177      7.9505      8.9920      10.684      14.044    
  11.645      14.129      16.613      18.165      18.160      16.603      14.122      11.646      9.8693      8.7805    
  7.9105      7.2649      6.8715      6.6949      6.6956      6.8727      7.2644      7.9059      8.7717      9.8609    
  9.1837      9.9463      10.846      11.622      11.929      11.618      10.846      9.9552      9.1973      8.5024    
  7.8685      7.3753      7.0486      6.8727      6.8183      6.8727      7.0510      7.3791      7.8681      8.4934    
  8.2026      8.5737      8.9260      9.2046      9.3693      9.3705      9.2094      8.9343      8.5812      8.2029    
  7.8522      7.5691      7.3744      7.2653      7.2197      7.2180      7.2638      7.3789      7.5791      7.8604    
  7.8845      7.9374      8.0171      8.1132      8.1972      8.2328      8.2012      8.1169      8.0155      7.9288    
  7.8724      7.8514      7.8666      7.9092      7.9543      7.9719      7.9500      7.9055      7.8689      7.8607    
  8.2018      7.9371      7.7265      7.5851      7.5118      7.4875      7.4889      7.5126      7.5800      7.7166    
  7.9297      8.2029      8.5016      8.7800      8.9957      9.1240      9.1232      8.9919      8.7723      8.4938    
  9.1831      8.5733      8.0178      7.5853      7.2989      7.1465      7.1010      7.1470      7.2967      7.5809    
  8.0174      8.5820      9.1973      9.8705      10.684      11.404      11.696      11.408      10.684      9.8608    
  11.645      9.9464      8.9265      8.1134      7.5112      7.1464      6.9834      6.9829      7.1457      7.5122    
  8.1181      8.9347      9.9539      11.646      14.037      16.451      17.973      17.978      16.461      14.044    
  19.099      14.130      10.845      9.2045      8.1968      7.4875      7.1015      6.9828      7.0992      7.4874    
  8.2012      9.2091      10.844      14.120      19.087      24.612      28.956      30.602      28.960      24.622    
  34.505      24.691      16.612      11.622      9.3696      8.2330      7.4891      7.1467      7.1455      7.4877    
  8.2339      9.3704      11.617      16.602      24.683      34.505      43.484      48.855      48.851      43.477    
  58.409      43.515      29.071      18.165      11.930      9.3706      8.2009      7.5125      7.2966      7.5126    
  8.2014      9.3701      11.927      18.161      29.071      43.524      58.425      69.711      73.922      69.698    
  88.219      69.704      48.903      30.728      18.160      11.618      9.2088      8.1171      7.5803      7.5809    
  8.1181      9.2087      11.617      18.161      30.732      48.911      69.713      88.226      99.197      99.195    
  118.20      99.186      73.927      48.907      29.067      16.602      10.845      8.9349      8.0159      7.7161    
  8.0171      8.9347      10.844      16.602      29.071      48.911      73.922      99.173      118.18      125.29    
  140.74      125.28      99.188      69.717      43.523      24.682      14.122      9.9557      8.5813      7.9282    
  7.9293      8.5826      9.9543      14.120      24.682      43.525      69.713      99.172      125.26      140.73    
  110.22      103.96      87.181      64.862      42.796      25.451      14.781      10.034      8.4221      7.5766    
  7.3032      7.5773      8.4226      10.034      14.781      25.451      42.796      64.862      87.181      103.96    
  103.97      103.96      92.450      72.997      51.079      31.847      18.468      11.452      8.8859      7.7944    
  7.2541      7.2533      7.7934      8.8870      11.454      18.469      31.846      51.081      73.006      92.461    
  87.189      92.475      87.181      72.997      54.184      35.719      21.444      12.945      9.3401      8.0025    
  7.2398      6.9951      7.2377      8.0017      9.3419      12.946      21.443      35.716      54.185      73.005    
  64.859      73.048      73.050      64.863      51.079      35.718      22.586      13.911      9.7341      8.1646    
  7.2521      6.8169      6.8164      7.2513      8.1644      9.7343      13.910      22.583      35.713      51.074    
  42.787      51.159      54.300      51.167      42.796      31.846      21.444      13.912      9.8948      8.2528    
  7.2732      6.7133      6.5412      6.7142      7.2736      8.2522      9.8949      13.913      21.445      31.841    
  25.450      31.967      35.909      35.912      31.972      25.450      18.468      12.946      9.7340      8.2526    
  7.2833      6.6681      6.3923      6.3932      6.6694      7.2828      8.2519      9.7368      12.952      18.474    
  14.788      18.625      21.705      22.882      21.703      18.620      14.781      11.453      9.3402      8.1641    
  7.2733      6.6681      6.3458      6.2493      6.3468      6.6682      7.2714      8.1624      9.3419      11.458    
  10.033      11.614      13.240      14.278      14.275      13.234      11.610      10.034      8.8862      8.0020    
  7.2521      6.7135      6.3921      6.2493      6.2495      6.3925      6.7132      7.2495      7.9970      8.8811    
  8.4139      9.0289      9.6251      10.117      10.311      10.115      9.6250      9.0344      8.4223      7.7941    
  7.2396      6.8173      6.5411      6.3931      6.3472      6.3926      6.5419      6.8193      7.2392      7.7886    
  7.5766      7.9270      8.2645      8.5324      8.6804      8.6809      8.5348      8.2691      7.9313      7.5768    
  7.2538      6.9954      6.8167      6.7139      6.6696      6.6684      6.7127      6.8191      7.0014      7.2587    
  7.3104      7.3915      7.4960      7.6085      7.6993      7.7355      7.7014      7.6103      7.4948      7.3864    
  7.3032      7.2532      7.2381      7.2510      7.2733      7.2830      7.2710      7.2492      7.2398      7.2590    
  7.5760      7.3912      7.2546      7.1732      7.1397      7.1337      7.1347      7.1403      7.1703      7.2488    
  7.3870      7.5768      7.7935      8.0016      8.1639      8.2523      8.2522      8.1623      7.9975      7.7890    
  8.4134      7.9266      7.4966      7.1733      6.9680      6.8639      6.8342      6.8648      6.9674      7.1709    
  7.4963      7.9320      8.4224      8.8873      9.3417      9.7344      9.8955      9.7369      9.3415      8.8811    
  10.033      9.0290      8.2649      7.6087      7.1392      6.8638      6.7442      6.7441      6.8637      7.1399    
  7.6113      8.2695      9.0334      10.034      11.454      12.946      13.911      13.913      12.952      11.458    
  14.789      11.615      9.6248      8.5323      7.6990      7.1337      6.8345      6.7440      6.8327      7.1332    
  7.7014      8.5349      9.6235      11.609      14.781      18.469      21.442      22.582      21.444      18.474    
  25.451      18.625      13.240      10.117      8.6807      7.7357      7.1349      6.8645      6.8635      7.1334    
  7.7359      8.6812      10.115      13.234      18.620      25.450      31.845      35.716      35.714      31.842    
  42.786      31.966      21.705      14.278      10.312      8.6810      7.7011      7.1402      6.9673      7.1403    
  7.7015      8.6810      10.311      14.276      21.705      31.972      42.796      51.082      54.186      51.074    
  64.859      51.159      35.910      22.883      14.275      10.115      8.5343      7.6105      7.1705      7.1709    
  7.6113      8.5346      10.115      14.276      22.886      35.914      51.164      64.863      73.006      73.004    
  87.188      73.049      54.301      35.912      21.702      13.234      9.6248      8.2696      7.4952      7.2484    
  7.4960      8.2695      9.6236      13.234      21.705      35.915      54.298      73.041      87.181      92.460    
  103.97      92.476      73.050      51.166      31.971      18.620      11.611      9.0348      7.9314      7.3858    
  7.3867      7.9324      9.0337      11.608      18.619      31.972      51.164      73.041      92.464      103.96    
  71.892      67.746      56.645      41.995      27.807      17.146      11.116      8.6855      7.5701      6.9124    
  6.7058      6.9129      7.5705      8.6852      11.116      17.146      27.807      41.995      56.645      67.746    
  67.748      67.745      60.114      47.283      33.031      20.932      13.048      9.3275      7.8951      7.0298    
  6.6197      6.6191      7.0292      7.8958      9.3293      13.049      20.932      33.032      47.286      60.119    
  56.648      60.152      56.645      47.283      35.009      23.278      14.679      10.010      8.1532      7.1480    
  6.5647      6.3826      6.5632      7.1473      8.1544      10.012      14.679      23.277      35.009      47.286    
  41.994      47.377      47.378      41.996      33.031      23.278      15.318      10.468      8.3238      7.2425    
  6.5373      6.2142      6.2139      6.5367      7.2421      8.3236      10.468      15.317      23.276      33.029    
  27.803      33.183      35.221      33.186      27.807      20.932      14.679      10.469      8.3882      7.2946    
  6.5282      6.1109      5.9853      6.1117      6.5285      7.2939      8.3874      10.469      14.679      20.930    
  17.146      21.134      23.601      23.602      21.136      17.146      13.048      10.011      8.3238      7.2945    
  6.5268      6.0632      5.8605      5.8612      6.0643      6.5268      7.2940      8.3248      10.014      13.051    
  11.119      13.279      15.078      15.778      15.077      13.277      11.116      9.3279      8.1533      7.2422    
  6.5282      6.0632      5.8212      5.7494      5.8219      6.0636      6.5278      7.2419      8.1544      9.3305    
  8.6845      9.5585      10.437      11.006      11.005      10.435      9.5574      8.6855      7.8953      7.1476    
  6.5372      6.1111      5.8603      5.7494      5.7493      5.8603      6.1109      6.5364      7.1457      7.8930    
  7.5664      8.1101      8.5692      8.8813      8.9959      8.8801      8.5691      8.1126      7.5703      7.0296    
  6.5645      6.2145      5.9852      5.8611      5.8222      5.8603      5.9849      6.2149      6.5642      7.0271    
  6.9125      7.2336      7.5440      7.7918      7.9292      7.9292      7.7923      7.5456      7.2353      6.9125    
  6.6195      6.3829      6.2141      6.1114      6.0645      6.0638      6.1105      6.2148      6.3853      6.6216    
  6.7090      6.8219      6.9507      7.0767      7.1715      7.2073      7.1720      7.0770      6.9500      6.8196    
  6.7059      6.6191      6.5635      6.5365      6.5282      6.5270      6.5276      6.5362      6.5647      6.6218    
  6.9120      6.8217      6.7678      6.7503      6.7576      6.7699      6.7704      6.7580      6.7492      6.7654    
  6.8200      6.9125      7.0292      7.1472      7.2418      7.2940      7.2942      7.2418      7.1460      7.0274    
  7.5661      7.2333      6.9512      6.7504      6.6326      6.5789      6.5654      6.5800      6.6330      6.7496    
  6.9509      7.2357      7.5703      7.8961      8.1543      8.3237      8.3878      8.3249      8.1542      7.8930    
  8.6847      8.1101      7.5444      7.0769      6.7572      6.5789      6.5053      6.5055      6.5792      6.7577    
  7.0778      7.5459      8.1119      8.6855      9.3295      10.012      10.468      10.469      10.014      9.3303    
  11.119      9.5588      8.5690      7.7917      7.1713      6.7699      6.5656      6.5054      6.5644      6.7692    
  7.1720      7.7927      8.5682      9.5558      11.116      13.049      14.679      15.316      14.679      13.051    
  17.146      13.279      10.437      8.8811      7.9294      7.2074      6.7706      6.5798      6.5791      6.7694    
  7.2072      7.9298      8.8803      10.434      13.276      17.146      20.932      23.277      23.276      20.931    
  27.803      21.134      15.078      11.006      8.9964      7.9293      7.1718      6.7580      6.6329      6.7580    
  7.1721      7.9296      8.9963      11.006      15.078      21.136      27.807      33.032      35.009      33.029    
  41.994      33.183      23.601      15.779      11.005      8.8799      7.7919      7.0772      6.7493      6.7496    
  7.0777      7.7924      8.8803      11.006      15.780      23.603      33.185      41.996      47.286      47.286    
  56.648      47.378      35.221      23.602      15.077      10.435      8.5690      7.5459      6.9502      6.7651    
  6.9507      7.5460      8.5682      10.434      15.078      23.603      35.220      47.374      56.645      60.118    
  67.748      60.153      47.378      33.186      21.136      13.277      9.5576      8.1129      7.2354      6.8192    
  6.8198      7.2360      8.1121      9.5557      13.276      21.136      33.185      47.374      60.148      67.745    
  41.203      38.809      32.458      24.270      16.702      11.469      8.8368      7.6210      6.7857      6.3199    
  6.1773      6.3202      6.7859      7.6208      8.8364      11.469      16.702      24.270      32.458      38.809    
  38.809      38.808      34.418      27.157      19.371      13.179      9.5519      7.9402      6.9648      6.3388    
  6.0549      6.0545      6.3384      6.9653      7.9415      9.5528      13.179      19.370      27.158      34.419    
  32.458      34.466      32.458      27.157      20.401      14.282      10.186      8.1760      7.1101      6.3632    
  5.9558      5.8318      5.9549      6.3627      7.1108      8.1772      10.187      14.282      20.401      27.158    
  24.270      27.282      27.283      24.271      19.371      14.282      10.443      8.3198      7.2013      6.3843    
  5.8842      5.6633      5.6632      5.8839      6.3839      7.2009      8.3193      10.443      14.281      19.370    
  16.702      19.574      20.682      19.575      16.702      13.178      10.186      8.3199      7.2319      6.3961    
  5.8416      5.5522      5.4666      5.5527      5.8418      6.3954      7.2308      8.3194      10.187      13.178    
  11.469      13.440      14.700      14.700      13.440      11.469      9.5518      8.1764      7.2013      6.3960    
  5.8276      5.4974      5.3555      5.3560      5.4982      5.8278      6.3957      7.2013      8.1772      9.5529    
  8.8369      9.8401      10.690      11.027      10.690      9.8402      8.8366      7.9405      7.1102      6.3841    
  5.8416      5.4974      5.3198      5.2669      5.3202      5.4979      5.8420      6.3845      7.1108      7.9412    
  7.6203      8.2292      8.7101      8.9947      8.9947      8.7101      8.2296      7.6210      6.9650      6.3629    
  5.8841      5.5523      5.3554      5.2669      5.2667      5.3552      5.5523      5.8843      6.3629      6.9645    
  6.7848      7.2424      7.6393      7.9074      8.0016      7.9071      7.6393      7.2431      6.7858      6.3387    
  5.9556      5.6635      5.4665      5.3559      5.3203      5.3552      5.4658      5.6632      5.9554      6.3381    
  6.3200      6.6052      6.8761      7.0903      7.2085      7.2083      7.0898      6.8759      6.6052      6.3200    
  6.0548      5.8320      5.6633      5.5526      5.4983      5.4980      5.5520      5.6631      5.8323      6.0551    
  6.1779      6.3155      6.4559      6.5811      6.6692      6.7010      6.6689      6.5807      6.4556      6.3151    
  6.1773      6.0546      5.9551      5.8837      5.8416      5.8279      5.8418      5.8841      5.9558      6.0553    
  6.3197      6.3154      6.3281      6.3540      6.3833      6.4030      6.4032      6.3836      6.3540      6.3279    
  6.3153      6.3200      6.3385      6.3627      6.3836      6.3955      6.3959      6.3844      6.3631      6.3383    
  6.7846      6.6050      6.4562      6.3541      6.2976      6.2742      6.2691      6.2751      6.2984      6.3542    
  6.4561      6.6055      6.7858      6.9654      7.1107      7.2010      7.2311      7.2013      7.1106      6.9645    
  7.6205      7.2424      6.8763      6.5813      6.3831      6.2742      6.2299      6.2302      6.2746      6.3833    
  6.5812      6.8762      7.2426      7.6210      7.9416      8.1772      8.3195      8.3193      8.1768      7.9410    
  8.8373      8.2294      7.6392      7.0902      6.6690      6.4030      6.2692      6.2301      6.2686      6.4023    
  6.6689      7.0902      7.6387      8.2285      8.8366      9.5528      10.187      10.443      10.186      9.5529    
  11.469      9.8401      8.7098      7.9073      7.2087      6.7010      6.4033      6.2750      6.2746      6.4024    
  6.7006      7.2089      7.9074      8.7093      9.8392      11.469      13.178      14.281      14.281      13.179    
  16.701      13.439      10.690      8.9948      8.0019      7.2083      6.6688      6.3836      6.2984      6.3835    
  6.6689      7.2088      8.0024      8.9951      10.690      13.440      16.702      19.371      20.401      19.370    
  24.270      19.574      14.700      11.027      8.9948      7.9069      7.0896      6.5808      6.3541      6.3542    
  6.5812      7.0901      7.9074      8.9952      11.027      14.700      19.575      24.271      27.158      27.157    
  32.458      27.283      20.682      14.700      10.690      8.7098      7.6392      6.8762      6.4557      6.3276    
  6.4559      6.8762      7.6388      8.7094      10.690      14.700      20.682      27.282      32.458      34.419    
  38.809      34.467      27.283      19.574      13.440      9.8401      8.2297      7.2433      6.6053      6.3149    
  6.3152      6.6057      7.2428      8.2284      9.8391      13.440      19.575      27.282      34.466      38.808    
  21.223      20.100      17.185      13.603      10.556      8.6588      7.5770      6.7370      6.1670      5.8635    
  5.7721      5.8637      6.1672      6.7368      7.5768      8.6587      10.556      13.603      17.185      20.100    
  20.100      20.100      18.058      14.795      11.519      9.1600      7.8330      6.9043      6.2143      5.7996    
  5.6171      5.6169      5.7993      6.2145      6.9050      7.8337      9.1602      11.519      14.795      18.057    
  17.184      18.112      17.185      14.795      11.904      9.4965      7.9980      7.0202      6.2502      5.7429    