   2   2   0   0
  0.1127534E+02  0.2423200E-09  0.2423200E-09  0.4434560E-09  0.5000000E-15
  1.000000000000000E-004
  CAR 
 unknown system                          
     68.74070931     -5.89649505  301      5.82219204      1.00000000
     -5.896  0.0000E+00  0.0000E+00
     -5.648  0.0000E+00  0.0000E+00
     -5.399  0.0000E+00  0.0000E+00
     -5.150  0.0000E+00  0.0000E+00
     -4.901  0.0000E+00  0.0000E+00
     -4.653  0.0000E+00  0.0000E+00
     -4.404  0.0000E+00  0.0000E+00
     -4.155 -0.3576E-31 -0.8898E-32
     -3.906 -0.5418E-23 -0.1348E-23
     -3.657 -0.3541E-16 -0.8809E-17
     -3.409 -0.1034E-10 -0.2571E-11
     -3.160 -0.1310E-06 -0.3260E-07
     -2.911 -0.6641E-04 -0.1655E-04
     -2.662 -0.4375E-03 -0.1254E-03
     -2.413  0.9077E-02  0.2133E-02
     -2.165  0.6187E-01  0.1753E-01
     -1.916  0.1119E+00  0.4537E-01
     -1.667  0.6582E-01  0.6174E-01
     -1.418  0.1649E+00  0.1028E+00
     -1.169  0.2048E+00  0.1537E+00
     -0.921  0.1894E+00  0.2008E+00
     -0.672  0.1103E+00  0.2283E+00
     -0.423  0.2627E+00  0.2936E+00
     -0.174  0.3045E+00  0.3694E+00
      0.074  0.3576E+00  0.4584E+00
      0.323  0.2771E+00  0.5273E+00
      0.572  0.2761E+00  0.5960E+00
      0.821  0.4066E+00  0.6972E+00
      1.070  0.7074E+00  0.8732E+00
      1.318  0.8263E+00  0.1079E+01
      1.567  0.1056E+01  0.1342E+01
      1.816  0.2055E+01  0.1853E+01
      2.065  0.2670E+01  0.2517E+01
      2.314  0.2415E+01  0.3118E+01
      2.562  0.2969E+01  0.3857E+01
      2.811  0.2828E+01  0.4560E+01
      3.060  0.3542E+01  0.5441E+01
      3.309  0.3690E+01  0.6359E+01
      3.558  0.3598E+01  0.7254E+01
      3.806  0.2721E+01  0.7931E+01
      4.055  0.3430E+01  0.8785E+01
      4.304  0.4569E+01  0.9921E+01
      4.553  0.4296E+01  0.1099E+02
      4.802  0.3809E+01  0.1194E+02
      5.050  0.3670E+01  0.1285E+02
      5.299  0.4252E+01  0.1391E+02
      5.548  0.4110E+01  0.1493E+02
      5.797  0.3913E+01  0.1590E+02
      6.045  0.3883E+01  0.1687E+02
      6.294  0.5089E+01  0.1814E+02
      6.543  0.5412E+01  0.1948E+02
      6.792  0.4724E+01  0.2066E+02
      7.041  0.2222E+01  0.2121E+02
      7.289  0.4835E+00  0.2133E+02
      7.538  0.4926E+00  0.2145E+02
      7.787  0.7000E+00  0.2163E+02
      8.036  0.1081E+01  0.2190E+02
      8.285  0.6554E+00  0.2206E+02
      8.533  0.3459E+00  0.2215E+02
      8.782  0.5078E+00  0.2227E+02
      9.031  0.5722E+00  0.2242E+02
      9.280  0.3287E+00  0.2250E+02
      9.529  0.5870E+00  0.2264E+02
      9.777  0.6849E+00  0.2281E+02
     10.026  0.5529E+00  0.2295E+02
     10.275  0.5067E+00  0.2308E+02
     10.524  0.3969E+00  0.2318E+02
     10.772  0.1729E+00  0.2322E+02
     11.021  0.5473E+00  0.2335E+02
     11.270  0.2733E+00  0.2342E+02
     11.519  0.4470E+00  0.2353E+02
     11.768  0.2297E+00  0.2359E+02
     12.016  0.4653E+00  0.2371E+02
     12.265  0.6902E+00  0.2388E+02
     12.514  0.6833E+00  0.2405E+02
     12.763  0.1913E+00  0.2410E+02
     13.012  0.1962E+00  0.2415E+02
     13.260  0.1387E+00  0.2418E+02
     13.509  0.1319E+00  0.2421E+02
     13.758  0.2769E+00  0.2428E+02
     14.007  0.2519E+00  0.2434E+02
     14.256  0.2000E+00  0.2439E+02
     14.504  0.4644E+00  0.2451E+02
     14.753  0.9105E+00  0.2474E+02
     15.002  0.1064E+01  0.2500E+02
     15.251  0.9239E+00  0.2523E+02
     15.500  0.5842E+00  0.2538E+02
     15.748  0.5130E+00  0.2550E+02
     15.997  0.6965E+00  0.2568E+02
     16.246  0.8671E+00  0.2589E+02
     16.495  0.5762E+00  0.2604E+02
     16.743  0.1086E+01  0.2631E+02
     16.992  0.7642E+00  0.2650E+02
     17.241  0.7058E+00  0.2667E+02
     17.490  0.3048E+00  0.2675E+02
     17.739  0.6309E+00  0.2690E+02
     17.987  0.7920E+00  0.2710E+02
     18.236  0.8899E+00  0.2732E+02
     18.485  0.4364E+00  0.2743E+02
     18.734  0.4701E+00  0.2755E+02
     18.983  0.6754E+00  0.2772E+02
     19.231  0.6142E+00  0.2787E+02
     19.480  0.5136E+00  0.2800E+02
     19.729  0.8869E+00  0.2822E+02
     19.978  0.6838E+00  0.2839E+02
     20.227  0.7216E+00  0.2857E+02
     20.475  0.7086E+00  0.2874E+02
     20.724  0.4909E+00  0.2887E+02
     20.973  0.1056E+01  0.2913E+02
     21.222  0.8751E+00  0.2935E+02
     21.470  0.1047E+01  0.2961E+02
     21.719  0.7422E+00  0.2979E+02
     21.968  0.1003E+01  0.3004E+02
     22.217  0.9672E+00  0.3028E+02
     22.466  0.8023E+00  0.3048E+02
     22.714  0.9483E+00  0.3072E+02
     22.963  0.1005E+01  0.3097E+02
     23.212  0.7216E+00  0.3115E+02
     23.461  0.1064E+01  0.3141E+02
     23.710  0.9958E+00  0.3166E+02
     23.958  0.1231E+01  0.3197E+02
     24.207  0.1338E+01  0.3230E+02
     24.456  0.1071E+01  0.3256E+02
     24.705  0.5154E+00  0.3269E+02
     24.954  0.9765E+00  0.3294E+02
     25.202  0.6063E+00  0.3309E+02
     25.451  0.9648E+00  0.3333E+02
     25.700  0.7610E+00  0.3352E+02
     25.949  0.8776E+00  0.3373E+02
     26.198  0.7261E+00  0.3392E+02
     26.446  0.9897E+00  0.3416E+02
     26.695  0.9779E+00  0.3440E+02
     26.944  0.5181E+00  0.3453E+02
     27.193  0.4452E+00  0.3464E+02
     27.441  0.5698E+00  0.3479E+02
     27.690  0.5827E+00  0.3493E+02
     27.939  0.7082E+00  0.3511E+02
     28.188  0.9138E+00  0.3533E+02
     28.437  0.9442E+00  0.3557E+02
     28.685  0.6287E+00  0.3573E+02
     28.934  0.1015E+01  0.3598E+02
     29.183  0.8679E+00  0.3619E+02
     29.432  0.1162E+01  0.3648E+02
     29.681  0.1008E+01  0.3673E+02
     29.929  0.6931E+00  0.3691E+02
     30.178  0.7808E+00  0.3710E+02
     30.427  0.6934E+00  0.3727E+02
     30.676  0.6888E+00  0.3744E+02
     30.925  0.1199E+01  0.3774E+02
     31.173  0.1164E+01  0.3803E+02
     31.422  0.6153E+00  0.3819E+02
     31.671  0.8018E+00  0.3839E+02
     31.920  0.1177E+01  0.3868E+02
     32.168  0.1084E+01  0.3895E+02
     32.417  0.9889E+00  0.3919E+02
     32.666  0.1528E+01  0.3957E+02
     32.915  0.1261E+01  0.3989E+02
     33.164  0.8735E+00  0.4010E+02
     33.412  0.1298E+01  0.4043E+02
     33.661  0.1042E+01  0.4069E+02
     33.910  0.7749E+00  0.4088E+02
     34.159  0.1010E+01  0.4113E+02
     34.408  0.1061E+01  0.4139E+02
     34.656  0.6218E+00  0.4155E+02
     34.905  0.5749E+00  0.4169E+02
     35.154  0.6881E+00  0.4186E+02
     35.403  0.5249E+00  0.4199E+02
     35.652  0.7018E+00  0.4217E+02
     35.900  0.8590E+00  0.4238E+02
     36.149  0.1234E+01  0.4269E+02
     36.398  0.1022E+01  0.4294E+02
     36.647  0.8283E+00  0.4315E+02
     36.896  0.8520E+00  0.4336E+02
     37.144  0.9552E+00  0.4360E+02
     37.393  0.6618E+00  0.4376E+02
     37.642  0.7079E+00  0.4394E+02
     37.891  0.1366E+01  0.4428E+02
     38.139  0.1189E+01  0.4458E+02
     38.388  0.1227E+01  0.4488E+02
     38.637  0.1285E+01  0.4520E+02
     38.886  0.8870E+00  0.4542E+02
     39.135  0.1021E+01  0.4568E+02
     39.383  0.1229E+01  0.4598E+02
     39.632  0.1021E+01  0.4624E+02
     39.881  0.1322E+01  0.4656E+02
     40.130  0.1059E+01  0.4683E+02
     40.379  0.8816E+00  0.4705E+02
     40.627  0.1130E+01  0.4733E+02
     40.876  0.1286E+01  0.4765E+02
     41.125  0.1053E+01  0.4791E+02
     41.374  0.1038E+01  0.4817E+02
     41.623  0.5753E+00  0.4831E+02
     41.871  0.1052E+01  0.4857E+02
     42.120  0.9325E+00  0.4881E+02
     42.369  0.1117E+01  0.4908E+02
     42.618  0.1493E+01  0.4945E+02
     42.866  0.1040E+01  0.4971E+02
     43.115  0.1137E+01  0.5000E+02
     43.364  0.1156E+01  0.5028E+02
     43.613  0.1064E+01  0.5055E+02
     43.862  0.8058E+00  0.5075E+02
     44.110  0.8101E+00  0.5095E+02
     44.359  0.1088E+01  0.5122E+02
     44.608  0.7978E+00  0.5142E+02
     44.857  0.1308E+01  0.5175E+02
     45.106  0.1030E+01  0.5200E+02
     45.354  0.9992E+00  0.5225E+02
     45.603  0.5458E+00  0.5239E+02
     45.852  0.1433E+01  0.5274E+02
     46.101  0.1296E+01  0.5306E+02
     46.350  0.1235E+01  0.5337E+02
     46.598  0.1834E+01  0.5383E+02
     46.847  0.1279E+01  0.5415E+02
     47.096  0.1268E+01  0.5446E+02
     47.345  0.1184E+01  0.5476E+02
     47.594  0.9197E+00  0.5499E+02
     47.842  0.1154E+01  0.5527E+02
     48.091  0.1107E+01  0.5555E+02
     48.340  0.1339E+01  0.5588E+02
     48.589  0.8976E+00  0.5610E+02
     48.837  0.9119E+00  0.5633E+02
     49.086  0.9479E+00  0.5657E+02
     49.335  0.1181E+01  0.5686E+02
     49.584  0.1082E+01  0.5713E+02
     49.833  0.1332E+01  0.5746E+02
     50.081  0.1411E+01  0.5781E+02
     50.330  0.1717E+01  0.5824E+02
     50.579  0.1108E+01  0.5852E+02
     50.828  0.1597E+01  0.5891E+02
     51.077  0.1276E+01  0.5923E+02
     51.325  0.1429E+01  0.5959E+02
     51.574  0.9787E+00  0.5983E+02
     51.823  0.1049E+01  0.6009E+02
     52.072  0.1268E+01  0.6041E+02
     52.321  0.1346E+01  0.6074E+02
     52.569  0.1505E+01  0.6111E+02
     52.818  0.1615E+01  0.6152E+02
     53.067  0.9350E+00  0.6175E+02
     53.316  0.1316E+01  0.6208E+02
     53.564  0.1338E+01  0.6241E+02
     53.813  0.1208E+01  0.6271E+02
     54.062  0.1691E+01  0.6313E+02
     54.311  0.1702E+01  0.6355E+02
     54.560  0.1641E+01  0.6396E+02
     54.808  0.1259E+01  0.6428E+02
     55.057  0.1354E+01  0.6461E+02
     55.306  0.1286E+01  0.6493E+02
     55.555  0.1424E+01  0.6529E+02
     55.804  0.1469E+01  0.6565E+02
     56.052  0.1388E+01  0.6600E+02
     56.301  0.1582E+01  0.6639E+02
     56.550  0.1617E+01  0.6679E+02
     56.799  0.1578E+01  0.6719E+02
     57.048  0.1510E+01  0.6756E+02
     57.296  0.1513E+01  0.6794E+02
     57.545  0.1622E+01  0.6834E+02
     57.794  0.1463E+01  0.6871E+02
     58.043  0.1761E+01  0.6914E+02
     58.292  0.1267E+01  0.6946E+02
     58.540  0.1927E+01  0.6994E+02
     58.789  0.1560E+01  0.7033E+02
     59.038  0.1242E+01  0.7063E+02
     59.287  0.1592E+01  0.7103E+02
     59.535  0.1281E+01  0.7135E+02
     59.784  0.1246E+01  0.7166E+02
     60.033  0.1825E+01  0.7211E+02
     60.282  0.1902E+01  0.7259E+02
     60.531  0.1744E+01  0.7302E+02
     60.779  0.1718E+01  0.7345E+02
     61.028  0.1634E+01  0.7385E+02
     61.277  0.2023E+01  0.7436E+02
     61.526  0.1776E+01  0.7480E+02
     61.775  0.1540E+01  0.7518E+02
     62.023  0.1697E+01  0.7560E+02
     62.272  0.2132E+01  0.7614E+02
     62.521  0.1585E+01  0.7653E+02
     62.770  0.2674E+01  0.7719E+02
     63.019  0.2200E+01  0.7774E+02
     63.267  0.1787E+01  0.7819E+02
     63.516  0.1387E+01  0.7853E+02
     63.765  0.1684E+01  0.7895E+02
     64.014  0.1429E+01  0.7931E+02
     64.262  0.9426E+00  0.7954E+02
     64.511  0.6599E+00  0.7970E+02
     64.760  0.7434E+00  0.7989E+02
     65.009  0.2556E+00  0.7995E+02
     65.258  0.8294E-01  0.7997E+02
     65.506  0.1075E+00  0.8000E+02
     65.755 -0.1392E-02  0.8000E+02
     66.004 -0.6649E-03  0.8000E+02
     66.253 -0.1490E-05  0.8000E+02
     66.502 -0.1237E-09  0.8000E+02
     66.750 -0.4265E-15  0.8000E+02
     66.999  0.0000E+00  0.8000E+02
     67.248  0.0000E+00  0.8000E+02
     67.497  0.0000E+00  0.8000E+02
     67.746  0.0000E+00  0.8000E+02
     67.994  0.0000E+00  0.8000E+02
     68.243  0.0000E+00  0.8000E+02
     68.492  0.0000E+00  0.8000E+02
     68.741  0.0000E+00  0.8000E+02
