 vasp.6.2.0 18Jan21 (build Mar 17 2021 09:06:54) complex                        
  
 executed on             LinuxIFC date 2021.09.09  12:11:14
 serial version


--------------------------------------------------------------------------------------------------------


 INCAR:
   ENCUT = 280.000000
   SIGMA = 0.200000
   EDIFF = 1.00e-06
   GGA = PE
   PREC = normal
   IBRION = 1
   ICHARG = 1
   ISIF = 2
   ISMEAR = 1
   KPAR = 1
   NBANDS = 40
   NSW = 0
   NCORE = 1
   LCHARG = .TRUE.

 POTCAR:    PAW_PBE Fe 06Sep2000                  
 POTCAR:    PAW_PBE Fe 06Sep2000                  
   SHA256 =  cd5a22d9368cc8b5cc476bea79732366149640da08ac9009b0e1b7fc627eea28 Fe/POTCAR             
   COPYR  = (c) Copyright 06Sep2000 Georg Kresse                                                    
   COPYR  = This file is part of the software VASP. Any use, copying, and all other rights are regul
   COPYR  = If you do not have a valid VASP license, you may not use, copy or distribute this file. 
   VRHFIN =Fe:  d7 s1                                                                               
   LEXCH  = PE                                                                                      
   EATOM  =   594.3153 eV,   43.6809 Ry                                                             
                                                                                                    
   TITEL  = PAW_PBE Fe 06Sep2000                                                                    
   LULTRA =        F    use ultrasoft PP ?                                                          
   IUNSCR =        1    unscreen: 0-lin 1-nonlin 2-no                                               
   RPACOR =    2.000    partial core radius                                                         
   POMASS =   55.847; ZVAL   =    8.000    mass and valenz                                          
   RCORE  =    2.300    outmost cutoff radius                                                       
   RWIGS  =    2.460; RWIGS  =    1.302    wigner-seitz radius (au A)                               
   ENMAX  =  267.882; ENMIN  =  200.911 eV                                                          
   RCLOC  =    1.701    cutoff for local pot                                                        
   LCOR   =        T    correct aug charges                                                         
   LPAW   =        T    paw PP                                                                      
   EAUG   =  511.368                                                                                
   DEXC   =    0.000                                                                                
   RMAX   =    2.356    core radius for proj-oper                                                   
   RAUG   =    1.300    factor for augmentation sphere                                              
   RDEP   =    2.442    radius for radial grids                                                     
   RDEPT  =    1.890    core radius for aug-charge                                                  
                                                                                                    
   Atomic configuration                                                                             
    9 entries                                                                                       
     n  l   j            E        occ.                                                              
     1  0  0.50     -6993.8440   2.0000                                                             
     2  0  0.50      -814.6047   2.0000                                                             
     2  1  1.50      -693.3689   6.0000                                                             
     3  0  0.50       -89.4732   2.0000                                                             
     3  1  1.50       -55.6373   6.0000                                                             
     3  2  2.50        -3.8151   7.0000                                                             
     4  0  0.50        -4.2551   1.0000                                                             
     4  1  1.50        -3.4015   0.0000                                                             
     4  3  2.50        -1.3606   0.0000                                                             
   Description                                                                                      
     l       E           TYP  RCUT    TYP  RCUT                                                     
     2     -3.8151135     23  2.300                                                                 
     2     -5.1756961     23  2.300                                                                 
     0     -4.2550963     23  2.300                                                                 
     0      7.2035603     23  2.300                                                                 
     1     -2.7211652     23  2.300                                                                 
     1     18.4316424     23  2.300                                                                 
  local pseudopotential read in
  partial core-charges read in
  partial kinetic energy density read in
  atomic valenz-charges read in
  non local Contribution for L=           2  read in
    real space projection operators read in
  non local Contribution for L=           2  read in
    real space projection operators read in
  non local Contribution for L=           0  read in
    real space projection operators read in
  non local Contribution for L=           0  read in
    real space projection operators read in
  non local Contribution for L=           1  read in
    real space projection operators read in
  non local Contribution for L=           1  read in
    real space projection operators read in
    PAW grid and wavefunctions read in
 
   number of l-projection  operators is LMAX  =           6
   number of lm-projection operators is LMMAX =          18
 
  PAW_PBE Fe 06Sep2000                  :
 energy of atom  1       EATOM= -594.3153
 kinetic energy error for atom=    0.0278 (will be added to EATOM!!)
 
 
 POSCAR: Fe
  positions in cartesian coordinates
  No initial velocities read in
 exchange correlation table for  LEXCH =        8
   RHO(1)=    0.500       N(1)  =     2000
   RHO(2)=  100.500       N(2)  =     4000
 


--------------------------------------------------------------------------------------------------------


 ion  position               nearest neighbor table
   1  0.000  0.000  0.000-   2 2.62   2 2.62   2 2.62   2 2.62   2 2.62   2 2.62
   2  0.333  0.667  0.500-   1 2.62   1 2.62   1 2.62   1 2.62   1 2.62   1 2.62
 
  LATTYP: Found a hexagonal cell.
 ALAT       =     2.4232000000
 C/A-ratio  =     1.8300429185
  
  Lattice vectors:
  
 A1 = (   2.4232000000,   0.0000000000,   0.0000000000)
 A2 = (  -1.2116000000,   2.0985527585,   0.0000000000)
 A3 = (   0.0000000000,   0.0000000000,   4.4345600000)


Analysis of symmetry for initial positions (statically):
=====================================================================
 Subroutine PRICEL returns:
 Original cell was already a primitive cell.
 

 Routine SETGRP: Setting up the symmetry group for a 
 hexagonal supercell.


 Subroutine GETGRP returns: Found 24 space group operations
 (whereof 12 operations were pure point group operations)
 out of a pool of 24 trial point group operations.


The static configuration has the point symmetry D_3h.
 The point group associated with its full space group is D_6h.


Analysis of symmetry for dynamics (positions and initial velocities):
=====================================================================
 Subroutine PRICEL returns:
 Original cell was already a primitive cell.
 

 Routine SETGRP: Setting up the symmetry group for a 
 hexagonal supercell.


 Subroutine GETGRP returns: Found 24 space group operations
 (whereof 12 operations were pure point group operations)
 out of a pool of 24 trial point group operations.


The dynamic configuration has the point symmetry D_3h.
 The point group associated with its full space group is D_6h.


 Subroutine INISYM returns: Found 24 space group operations
 (whereof 12 operations are pure point group operations),
 and found     1 'primitive' translations


----------------------------------------------------------------------------------------

                                     Primitive cell                                     

  volume of cell :      22.5507

  direct lattice vectors                    reciprocal lattice vectors
     2.423200000  0.000000000  0.000000000     0.412677451  0.238259438  0.000000000
    -1.211600000  2.098552758  0.000000000     0.000000000  0.476518875  0.000000000
     0.000000000  0.000000000  4.434560000     0.000000000  0.000000000  0.225501515

  length of vectors
     2.423200000  2.423200000  4.434560000     0.476518875  0.476518875  0.225501515

  position of ions in fractional coordinates (direct lattice)
     0.000000000  0.000000000  0.000000000
     0.333333333  0.666666667  0.500000000

  ion indices of the primitive-cell ions
   primitive index   ion index
                 1           1
                 2           2

----------------------------------------------------------------------------------------

 
 
 KPOINTS: KPOINTS created by Atomic Simulation Env

Automatic generation of k-mesh.
 Grid dimensions read from file:
 generate k-points for:   11   11   11

 Generating k-lattice:

  Cartesian coordinates                     Fractional coordinates (reciprocal lattice)
     0.037516132  0.021659949  0.000000000     0.090909091  0.000000000  0.000000000
     0.000000000  0.043319898  0.000000000     0.000000000  0.090909091  0.000000000
     0.000000000  0.000000000  0.020500138     0.000000000  0.000000000  0.090909091

  Length of vectors
     0.043319898  0.043319898  0.020500138

  Shift w.r.t. Gamma in fractional coordinates (k-lattice)
     0.000000000  0.000000000  0.000000000

 
 Subroutine IBZKPT returns following result:
 ===========================================
 
 Found     96 irreducible k-points:
 
 Following reciprocal coordinates:
            Coordinates               Weight
  0.000000  0.000000  0.000000      1.000000
  0.090909  0.000000  0.000000      6.000000
  0.181818  0.000000  0.000000      6.000000
  0.272727  0.000000  0.000000      6.000000
  0.363636 -0.000000  0.000000      6.000000
  0.454545  0.000000  0.000000      6.000000
  0.090909  0.090909  0.000000      6.000000
  0.181818  0.090909  0.000000     12.000000
  0.272727  0.090909  0.000000     12.000000
  0.363636  0.090909  0.000000     12.000000
  0.454545  0.090909  0.000000      6.000000
  0.181818  0.181818  0.000000      6.000000
  0.272727  0.181818  0.000000     12.000000
  0.363636  0.181818  0.000000     12.000000
  0.272727  0.272727  0.000000      6.000000
  0.363636  0.272727  0.000000      6.000000
  0.000000  0.000000  0.090909      2.000000
  0.090909  0.000000  0.090909     12.000000
  0.181818  0.000000  0.090909     12.000000
  0.272727  0.000000  0.090909     12.000000
  0.363636 -0.000000  0.090909     12.000000
  0.454545  0.000000  0.090909     12.000000
  0.090909  0.090909  0.090909     12.000000
  0.181818  0.090909  0.090909     24.000000
  0.272727  0.090909  0.090909     24.000000
  0.363636  0.090909  0.090909     24.000000
  0.454545  0.090909  0.090909     12.000000
  0.181818  0.181818  0.090909     12.000000
  0.272727  0.181818  0.090909     24.000000
  0.363636  0.181818  0.090909     24.000000
  0.272727  0.272727  0.090909     12.000000
  0.363636  0.272727  0.090909     12.000000
  0.000000  0.000000  0.181818      2.000000
  0.090909  0.000000  0.181818     12.000000
  0.181818  0.000000  0.181818     12.000000
  0.272727  0.000000  0.181818     12.000000
  0.363636 -0.000000  0.181818     12.000000
  0.454545  0.000000  0.181818     12.000000
  0.090909  0.090909  0.181818     12.000000
  0.181818  0.090909  0.181818     24.000000
  0.272727  0.090909  0.181818     24.000000
  0.363636  0.090909  0.181818     24.000000
  0.454545  0.090909  0.181818     12.000000
  0.181818  0.181818  0.181818     12.000000
  0.272727  0.181818  0.181818     24.000000
  0.363636  0.181818  0.181818     24.000000
  0.272727  0.272727  0.181818     12.000000
  0.363636  0.272727  0.181818     12.000000
  0.000000  0.000000  0.272727      2.000000
  0.090909  0.000000  0.272727     12.000000
  0.181818  0.000000  0.272727     12.000000
  0.272727  0.000000  0.272727     12.000000
  0.363636 -0.000000  0.272727     12.000000
  0.454545  0.000000  0.272727     12.000000
  0.090909  0.090909  0.272727     12.000000
  0.181818  0.090909  0.272727     24.000000
  0.272727  0.090909  0.272727     24.000000
  0.363636  0.090909  0.272727     24.000000
  0.454545  0.090909  0.272727     12.000000
  0.181818  0.181818  0.272727     12.000000
  0.272727  0.181818  0.272727     24.000000
  0.363636  0.181818  0.272727     24.000000
  0.272727  0.272727  0.272727     12.000000
  0.363636  0.272727  0.272727     12.000000
  0.000000  0.000000  0.363636      2.000000
  0.090909  0.000000  0.363636     12.000000
  0.181818  0.000000  0.363636     12.000000
  0.272727  0.000000  0.363636     12.000000
  0.363636 -0.000000  0.363636     12.000000
  0.454545  0.000000  0.363636     12.000000
  0.090909  0.090909  0.363636     12.000000
  0.181818  0.090909  0.363636     24.000000
  0.272727  0.090909  0.363636     24.000000
  0.363636  0.090909  0.363636     24.000000
  0.454545  0.090909  0.363636     12.000000
  0.181818  0.181818  0.363636     12.000000
  0.272727  0.181818  0.363636     24.000000
  0.363636  0.181818  0.363636     24.000000
  0.272727  0.272727  0.363636     12.000000
  0.363636  0.272727  0.363636     12.000000
  0.000000  0.000000  0.454545      2.000000
  0.090909  0.000000  0.454545     12.000000
  0.181818  0.000000  0.454545     12.000000
  0.272727  0.000000  0.454545     12.000000
  0.363636 -0.000000  0.454545     12.000000
  0.454545  0.000000  0.454545     12.000000
  0.090909  0.090909  0.454545     12.000000
  0.181818  0.090909  0.454545     24.000000
  0.272727  0.090909  0.454545     24.000000
  0.363636  0.090909  0.454545     24.000000
  0.454545  0.090909  0.454545     12.000000
  0.181818  0.181818  0.454545     12.000000
  0.272727  0.181818  0.454545     24.000000
  0.363636  0.181818  0.454545     24.000000
  0.272727  0.272727  0.454545     12.000000
  0.363636  0.272727  0.454545     12.000000
 
 Following cartesian coordinates:
            Coordinates               Weight
  0.000000  0.000000  0.000000      1.000000
  0.037516  0.021660  0.000000      6.000000
  0.075032  0.043320  0.000000      6.000000
  0.112548  0.064980  0.000000      6.000000
  0.150065  0.086640  0.000000      6.000000
  0.187581  0.108300  0.000000      6.000000
  0.037516  0.064980  0.000000      6.000000
  0.075032  0.086640  0.000000     12.000000
  0.112548  0.108300  0.000000     12.000000
  0.150065  0.129960  0.000000     12.000000
  0.187581  0.151620  0.000000      6.000000
  0.075032  0.129960  0.000000      6.000000
  0.112548  0.151620  0.000000     12.000000
  0.150065  0.173280  0.000000     12.000000
  0.112548  0.194940  0.000000      6.000000
  0.150065  0.216599  0.000000      6.000000
  0.000000  0.000000  0.020500      2.000000
  0.037516  0.021660  0.020500     12.000000
  0.075032  0.043320  0.020500     12.000000
  0.112548  0.064980  0.020500     12.000000
  0.150065  0.086640  0.020500     12.000000
  0.187581  0.108300  0.020500     12.000000
  0.037516  0.064980  0.020500     12.000000
  0.075032  0.086640  0.020500     24.000000
  0.112548  0.108300  0.020500     24.000000
  0.150065  0.129960  0.020500     24.000000
  0.187581  0.151620  0.020500     12.000000
  0.075032  0.129960  0.020500     12.000000
  0.112548  0.151620  0.020500     24.000000
  0.150065  0.173280  0.020500     24.000000
  0.112548  0.194940  0.020500     12.000000
  0.150065  0.216599  0.020500     12.000000
  0.000000  0.000000  0.041000      2.000000
  0.037516  0.021660  0.041000     12.000000
  0.075032  0.043320  0.041000     12.000000
  0.112548  0.064980  0.041000     12.000000
  0.150065  0.086640  0.041000     12.000000
  0.187581  0.108300  0.041000     12.000000
  0.037516  0.064980  0.041000     12.000000
  0.075032  0.086640  0.041000     24.000000
  0.112548  0.108300  0.041000     24.000000
  0.150065  0.129960  0.041000     24.000000
  0.187581  0.151620  0.041000     12.000000
  0.075032  0.129960  0.041000     12.000000
  0.112548  0.151620  0.041000     24.000000
  0.150065  0.173280  0.041000     24.000000
  0.112548  0.194940  0.041000     12.000000
  0.150065  0.216599  0.041000     12.000000
  0.000000  0.000000  0.061500      2.000000
  0.037516  0.021660  0.061500     12.000000
  0.075032  0.043320  0.061500     12.000000
  0.112548  0.064980  0.061500     12.000000
  0.150065  0.086640  0.061500     12.000000
  0.187581  0.108300  0.061500     12.000000
  0.037516  0.064980  0.061500     12.000000
  0.075032  0.086640  0.061500     24.000000
  0.112548  0.108300  0.061500     24.000000
  0.150065  0.129960  0.061500     24.000000
  0.187581  0.151620  0.061500     12.000000
  0.075032  0.129960  0.061500     12.000000
  0.112548  0.151620  0.061500     24.000000
  0.150065  0.173280  0.061500     24.000000
  0.112548  0.194940  0.061500     12.000000
  0.150065  0.216599  0.061500     12.000000
  0.000000  0.000000  0.082001      2.000000
  0.037516  0.021660  0.082001     12.000000
  0.075032  0.043320  0.082001     12.000000
  0.112548  0.064980  0.082001     12.000000
  0.150065  0.086640  0.082001     12.000000
  0.187581  0.108300  0.082001     12.000000
  0.037516  0.064980  0.082001     12.000000
  0.075032  0.086640  0.082001     24.000000
  0.112548  0.108300  0.082001     24.000000
  0.150065  0.129960  0.082001     24.000000
  0.187581  0.151620  0.082001     12.000000
  0.075032  0.129960  0.082001     12.000000
  0.112548  0.151620  0.082001     24.000000
  0.150065  0.173280  0.082001     24.000000
  0.112548  0.194940  0.082001     12.000000
  0.150065  0.216599  0.082001     12.000000
  0.000000  0.000000  0.102501      2.000000
  0.037516  0.021660  0.102501     12.000000
  0.075032  0.043320  0.102501     12.000000
  0.112548  0.064980  0.102501     12.000000
  0.150065  0.086640  0.102501     12.000000
  0.187581  0.108300  0.102501     12.000000
  0.037516  0.064980  0.102501     12.000000
  0.075032  0.086640  0.102501     24.000000
  0.112548  0.108300  0.102501     24.000000
  0.150065  0.129960  0.102501     24.000000
  0.187581  0.151620  0.102501     12.000000
  0.075032  0.129960  0.102501     12.000000
  0.112548  0.151620  0.102501     24.000000
  0.150065  0.173280  0.102501     24.000000
  0.112548  0.194940  0.102501     12.000000
  0.150065  0.216599  0.102501     12.000000
 


--------------------------------------------------------------------------------------------------------




 Dimension of arrays:
   k-points           NKPTS =     96   k-points in BZ     NKDIM =     96   number of bands    NBANDS=     40
   number of dos      NEDOS =    301   number of ions     NIONS =      2
   non local maximal  LDIM  =      6   non local SUM 2l+1 LMDIM =     18
   total plane-waves  NPLWV =   1800
   max r-space proj   IRMAX =      1   max aug-charges    IRDMAX=   3043
   dimension x,y,z NGX =    10 NGY =   10 NGZ =   18
   dimension x,y,z NGXF=    20 NGYF=   20 NGZF=   36
   support grid    NGXF=    20 NGYF=   20 NGZF=   36
   ions per type =               2
   NGX,Y,Z   is equivalent  to a cutoff of   6.86,  6.86,  6.75 a.u.
   NGXF,Y,Z  is equivalent  to a cutoff of  13.72, 13.72, 13.50 a.u.

 SYSTEM =  unknown system                          
 POSCAR =  Fe                                      

 Startparameter for this run:
   NWRITE =      2    write-flag & timer
   PREC   = normal    normal or accurate (medium, high low for compatibility)
   ISTART =      0    job   : 0-new  1-cont  2-samecut
   ICHARG =      1    charge: 1-file 2-atom 10-const
   ISPIN  =      1    spin polarized calculation?
   LNONCOLLINEAR =      F non collinear calculations
   LSORBIT =      F    spin-orbit coupling
   INIWAV =      1    electr: 0-lowe 1-rand  2-diag
   LASPH  =      F    aspherical Exc in radial PAW
   METAGGA=      F    non-selfconsistent MetaGGA calc.

 Electronic Relaxation 1
   ENCUT  =  280.0 eV  20.58 Ry    4.54 a.u.   3.31  3.31  6.05*2*pi/ulx,y,z
   ENINI  =  280.0     initial cutoff
   ENAUG  =  511.4 eV  augmentation charge cutoff
   NELM   =     60;   NELMIN=  2; NELMDL= -5     # of ELM steps 
   EDIFF  = 0.1E-05   stopping-criterion for ELM
   LREAL  =      F    real-space projection
   NLSPLINE    = F    spline interpolate recip. space projectors
   LCOMPAT=      F    compatible to vasp.4.4
   GGA_COMPAT  = T    GGA compatible to vasp.4.4-vasp.4.6
   LMAXPAW     = -100 max onsite density
   LMAXMIX     =    2 max onsite mixed and CHGCAR
   VOSKOWN=      0    Vosko Wilk Nusair interpolation
   ROPT   =    0.00000
 Ionic relaxation
   EDIFFG = 0.1E-04   stopping-criterion for IOM
   NSW    =      0    number of steps for IOM
   NBLOCK =      1;   KBLOCK =      1    inner block; outer block 
   IBRION =     -1    ionic relax: 0-MD 1-quasi-New 2-CG
   NFREE  =      0    steps in history (QN), initial steepest desc. (CG)
   ISIF   =      2    stress and relaxation
   IWAVPR =      0    prediction:  0-non 1-charg 2-wave 3-comb
   ISYM   =      2    0-nonsym 1-usesym 2-fastsym
   LCORR  =      T    Harris-Foulkes like correction to forces

   POTIM  = 0.5000    time-step for ionic-motion
   TEIN   =    0.0    initial temperature
   TEBEG  =    0.0;   TEEND  =   0.0 temperature during run
   SMASS  =  -3.00    Nose mass-parameter (am)
   estimated Nose-frequenzy (Omega)   =  0.10E-29 period in steps = 0.13E+47 mass=  -0.134E-27a.u.
   SCALEE = 1.0000    scale energy and forces
   NPACO  =    256;   APACO  = 16.0  distance and # of slots for P.C.
   PSTRESS=    0.0 pullay stress

  Mass of Ions in am
   POMASS =  55.85
  Ionic Valenz
   ZVAL   =   8.00
  Atomic Wigner-Seitz radii
   RWIGS  =  -1.00
  virtual crystal weights 
   VCA    =   1.00
   NELECT =      16.0000    total number of electrons
   NUPDOWN=      -1.0000    fix difference up-down

 DOS related values:
   EMIN   =  10.00;   EMAX   =-10.00  energy-range for DOS
   EFERMI =   0.00
   ISMEAR =     1;   SIGMA  =   0.20  broadening in eV -4-tet -1-fermi 0-gaus

 Electronic relaxation 2 (details)
   IALGO  =     38    algorithm
   LDIAG  =      T    sub-space diagonalisation (order eigenvalues)
   LSUBROT=      F    optimize rotation matrix (better conditioning)
   TURBO    =      0    0=normal 1=particle mesh
   IRESTART =      0    0=no restart 2=restart with 2 vectors
   NREBOOT  =      0    no. of reboots
   NMIN     =      0    reboot dimension
   EREF     =   0.00    reference energy to select bands
   IMIX   =      4    mixing-type and parameters
     AMIX     =   0.40;   BMIX     =  1.00
     AMIX_MAG =   1.60;   BMIX_MAG =  1.00
     AMIN     =   0.10
     WC   =   100.;   INIMIX=   1;  MIXPRE=   1;  MAXMIX= -45

 Intra band minimization:
   WEIMIN = 0.0000     energy-eigenvalue tresh-hold
   EBREAK =  0.62E-08  absolut break condition
   DEPER  =   0.30     relativ break condition  

   TIME   =   0.40     timestep for ELM

  volume/ion in A,a.u.               =      11.28        76.09
  Fermi-wavevector in a.u.,A,eV,Ry     =   1.460141  2.759267 29.007799  2.132013
  Thomas-Fermi vector in A             =   2.576626
 
 Write flags
   LWAVE        =      T    write WAVECAR
   LDOWNSAMPLE  =      F    k-point downsampling of WAVECAR
   LCHARG       =      T    write CHGCAR
   LVTOT        =      F    write LOCPOT, total local potential
   LVHAR        =      F    write LOCPOT, Hartree potential only
   LELF         =      F    write electronic localiz. function (ELF)
   LORBIT       =      0    0 simple, 1 ext, 2 COOP (PROOUT), +10 PAW based schemes


 Dipole corrections
   LMONO  =      F    monopole corrections only (constant potential shift)
   LDIPOL =      F    correct potential (dipole corrections)
   IDIPOL =      0    1-x, 2-y, 3-z, 4-all directions 
   EPSILON=  1.0000000 bulk dielectric constant

 Exchange correlation treatment:
   GGA     =    PE    GGA type
   LEXCH   =     8    internal setting for exchange type
   VOSKOWN=      0    Vosko Wilk Nusair interpolation
   LHFCALC =     F    Hartree Fock is set to
   LHFONE  =     F    Hartree Fock one center treatment
   AEXX    =    0.0000 exact exchange contribution

 Linear response parameters
   LEPSILON=     F    determine dielectric tensor
   LRPA    =     F    only Hartree local field effects (RPA)
   LNABLA  =     F    use nabla operator in PAW spheres
   LVEL    =     F    velocity operator in full k-point grid
   LINTERFAST=   F  fast interpolation
   KINTER  =     0    interpolate to denser k-point grid
   CSHIFT  =0.1000    complex shift for real part using Kramers Kronig
   OMEGAMAX=  -1.0    maximum frequency
   DEG_THRESHOLD= 0.2000000E-02 threshold for treating states as degnerate
   RTIME   =   -0.100 relaxation time in fs
  (WPLASMAI=    0.000 imaginary part of plasma frequency in eV, 0.658/RTIME)
   DFIELD  = 0.0000000 0.0000000 0.0000000 field for delta impulse in time
 
 Orbital magnetization related:
   ORBITALMAG=     F  switch on orbital magnetization
   LCHIMAG   =     F  perturbation theory with respect to B field
   DQ        =  0.001000  dq finite difference perturbation B field
   LLRAUG    =     F  two centre corrections for induced B field



--------------------------------------------------------------------------------------------------------


 Static calculation
 charge density and potential will be updated during run
 non-spin polarized calculation
 Variant of blocked Davidson
 Davidson routine will perform the subspace rotation
 perform sub-space diagonalisation
    after iterative eigenvector-optimisation
 modified Broyden-mixing scheme, WC =      100.0
 initial mixing is a Kerker type mixing with AMIX =  0.4000 and BMIX =      1.0000
 Hartree-type preconditioning will be used
 using additional bands           32
 reciprocal scheme for non local part
 use partial core corrections
 calculate Harris-corrections to forces 
   (improved forces if not selfconsistent)
 use gradient corrections 
 use of overlap-Matrix (Vanderbilt PP)
 Methfessel and Paxton  Order N= 1 SIGMA  =   0.20


--------------------------------------------------------------------------------------------------------


  energy-cutoff  :      280.00
  volume of cell :       22.55
      direct lattice vectors                 reciprocal lattice vectors
     2.423200000  0.000000000  0.000000000     0.412677451  0.238259438  0.000000000
    -1.211600000  2.098552758  0.000000000     0.000000000  0.476518875  0.000000000
     0.000000000  0.000000000  4.434560000     0.000000000  0.000000000  0.225501515

  length of vectors
     2.423200000  2.423200000  4.434560000     0.476518875  0.476518875  0.225501515


 
 k-points in units of 2pi/SCALE and weight: KPOINTS created by Atomic Simulation Env
   0.00000000  0.00000000  0.00000000       0.001
   0.03751613  0.02165995  0.00000000       0.005
   0.07503226  0.04331990  0.00000000       0.005
   0.11254840  0.06497985  0.00000000       0.005
   0.15006453  0.08663980  0.00000000       0.005
   0.18758066  0.10829974  0.00000000       0.005
   0.03751613  0.06497985  0.00000000       0.005
   0.07503226  0.08663980  0.00000000       0.009
   0.11254840  0.10829974  0.00000000       0.009
   0.15006453  0.12995969  0.00000000       0.009
   0.18758066  0.15161964  0.00000000       0.005
   0.07503226  0.12995969  0.00000000       0.005
   0.11254840  0.15161964  0.00000000       0.009
   0.15006453  0.17327959  0.00000000       0.009
   0.11254840  0.19493954  0.00000000       0.005
   0.15006453  0.21659949  0.00000000       0.005
   0.00000000  0.00000000  0.02050014       0.002
   0.03751613  0.02165995  0.02050014       0.009
   0.07503226  0.04331990  0.02050014       0.009
   0.11254840  0.06497985  0.02050014       0.009
   0.15006453  0.08663980  0.02050014       0.009
   0.18758066  0.10829974  0.02050014       0.009
   0.03751613  0.06497985  0.02050014       0.009
   0.07503226  0.08663980  0.02050014       0.018
   0.11254840  0.10829974  0.02050014       0.018
   0.15006453  0.12995969  0.02050014       0.018
   0.18758066  0.15161964  0.02050014       0.009
   0.07503226  0.12995969  0.02050014       0.009
   0.11254840  0.15161964  0.02050014       0.018
   0.15006453  0.17327959  0.02050014       0.018
   0.11254840  0.19493954  0.02050014       0.009
   0.15006453  0.21659949  0.02050014       0.009
   0.00000000  0.00000000  0.04100028       0.002
   0.03751613  0.02165995  0.04100028       0.009
   0.07503226  0.04331990  0.04100028       0.009
   0.11254840  0.06497985  0.04100028       0.009
   0.15006453  0.08663980  0.04100028       0.009
   0.18758066  0.10829974  0.04100028       0.009
   0.03751613  0.06497985  0.04100028       0.009
   0.07503226  0.08663980  0.04100028       0.018
   0.11254840  0.10829974  0.04100028       0.018
   0.15006453  0.12995969  0.04100028       0.018
   0.18758066  0.15161964  0.04100028       0.009
   0.07503226  0.12995969  0.04100028       0.009
   0.11254840  0.15161964  0.04100028       0.018
   0.15006453  0.17327959  0.04100028       0.018
   0.11254840  0.19493954  0.04100028       0.009
   0.15006453  0.21659949  0.04100028       0.009
   0.00000000  0.00000000  0.06150041       0.002
   0.03751613  0.02165995  0.06150041       0.009
   0.07503226  0.04331990  0.06150041       0.009
   0.11254840  0.06497985  0.06150041       0.009
   0.15006453  0.08663980  0.06150041       0.009
   0.18758066  0.10829974  0.06150041       0.009
   0.03751613  0.06497985  0.06150041       0.009
   0.07503226  0.08663980  0.06150041       0.018
   0.11254840  0.10829974  0.06150041       0.018
   0.15006453  0.12995969  0.06150041       0.018
   0.18758066  0.15161964  0.06150041       0.009
   0.07503226  0.12995969  0.06150041       0.009
   0.11254840  0.15161964  0.06150041       0.018
   0.15006453  0.17327959  0.06150041       0.018
   0.11254840  0.19493954  0.06150041       0.009
   0.15006453  0.21659949  0.06150041       0.009
   0.00000000  0.00000000  0.08200055       0.002
   0.03751613  0.02165995  0.08200055       0.009
   0.07503226  0.04331990  0.08200055       0.009
   0.11254840  0.06497985  0.08200055       0.009
   0.15006453  0.08663980  0.08200055       0.009
   0.18758066  0.10829974  0.08200055       0.009
   0.03751613  0.06497985  0.08200055       0.009
   0.07503226  0.08663980  0.08200055       0.018
   0.11254840  0.10829974  0.08200055       0.018
   0.15006453  0.12995969  0.08200055       0.018
   0.18758066  0.15161964  0.08200055       0.009
   0.07503226  0.12995969  0.08200055       0.009
   0.11254840  0.15161964  0.08200055       0.018
   0.15006453  0.17327959  0.08200055       0.018
   0.11254840  0.19493954  0.08200055       0.009
   0.15006453  0.21659949  0.08200055       0.009
   0.00000000  0.00000000  0.10250069       0.002
   0.03751613  0.02165995  0.10250069       0.009
   0.07503226  0.04331990  0.10250069       0.009
   0.11254840  0.06497985  0.10250069       0.009
   0.15006453  0.08663980  0.10250069       0.009
   0.18758066  0.10829974  0.10250069       0.009
   0.03751613  0.06497985  0.10250069       0.009
   0.07503226  0.08663980  0.10250069       0.018
   0.11254840  0.10829974  0.10250069       0.018
   0.15006453  0.12995969  0.10250069       0.018
   0.18758066  0.15161964  0.10250069       0.009
   0.07503226  0.12995969  0.10250069       0.009
   0.11254840  0.15161964  0.10250069       0.018
   0.15006453  0.17327959  0.10250069       0.018
   0.11254840  0.19493954  0.10250069       0.009
   0.15006453  0.21659949  0.10250069       0.009
 
 k-points in reciprocal lattice and weights: KPOINTS created by Atomic Simulation Env
   0.00000000  0.00000000  0.00000000       0.001
   0.09090909  0.00000000  0.00000000       0.005
   0.18181818  0.00000000  0.00000000       0.005
   0.27272727  0.00000000  0.00000000       0.005
   0.36363636 -0.00000000  0.00000000       0.005
   0.45454545  0.00000000  0.00000000       0.005
   0.09090909  0.09090909  0.00000000       0.005
   0.18181818  0.09090909  0.00000000       0.009
   0.27272727  0.09090909  0.00000000       0.009
   0.36363636  0.09090909  0.00000000       0.009
   0.45454545  0.09090909  0.00000000       0.005
   0.18181818  0.18181818  0.00000000       0.005
   0.27272727  0.18181818  0.00000000       0.009
   0.36363636  0.18181818  0.00000000       0.009
   0.27272727  0.27272727  0.00000000       0.005
   0.36363636  0.27272727  0.00000000       0.005
   0.00000000  0.00000000  0.09090909       0.002
   0.09090909  0.00000000  0.09090909       0.009
   0.18181818  0.00000000  0.09090909       0.009
   0.27272727  0.00000000  0.09090909       0.009
   0.36363636 -0.00000000  0.09090909       0.009
   0.45454545  0.00000000  0.09090909       0.009
   0.09090909  0.09090909  0.09090909       0.009
   0.18181818  0.09090909  0.09090909       0.018
   0.27272727  0.09090909  0.09090909       0.018
   0.36363636  0.09090909  0.09090909       0.018
   0.45454545  0.09090909  0.09090909       0.009
   0.18181818  0.18181818  0.09090909       0.009
   0.27272727  0.18181818  0.09090909       0.018
   0.36363636  0.18181818  0.09090909       0.018
   0.27272727  0.27272727  0.09090909       0.009
   0.36363636  0.27272727  0.09090909       0.009
   0.00000000  0.00000000  0.18181818       0.002
   0.09090909  0.00000000  0.18181818       0.009
   0.18181818  0.00000000  0.18181818       0.009
   0.27272727  0.00000000  0.18181818       0.009
   0.36363636 -0.00000000  0.18181818       0.009
   0.45454545  0.00000000  0.18181818       0.009
   0.09090909  0.09090909  0.18181818       0.009
   0.18181818  0.09090909  0.18181818       0.018
   0.27272727  0.09090909  0.18181818       0.018
   0.36363636  0.09090909  0.18181818       0.018
   0.45454545  0.09090909  0.18181818       0.009
   0.18181818  0.18181818  0.18181818       0.009
   0.27272727  0.18181818  0.18181818       0.018
   0.36363636  0.18181818  0.18181818       0.018
   0.27272727  0.27272727  0.18181818       0.009
   0.36363636  0.27272727  0.18181818       0.009
   0.00000000  0.00000000  0.27272727       0.002
   0.09090909  0.00000000  0.27272727       0.009
   0.18181818  0.00000000  0.27272727       0.009
   0.27272727  0.00000000  0.27272727       0.009
   0.36363636 -0.00000000  0.27272727       0.009
   0.45454545  0.00000000  0.27272727       0.009
   0.09090909  0.09090909  0.27272727       0.009
   0.18181818  0.09090909  0.27272727       0.018
   0.27272727  0.09090909  0.27272727       0.018
   0.36363636  0.09090909  0.27272727       0.018
   0.45454545  0.09090909  0.27272727       0.009
   0.18181818  0.18181818  0.27272727       0.009
   0.27272727  0.18181818  0.27272727       0.018
   0.36363636  0.18181818  0.27272727       0.018
   0.27272727  0.27272727  0.27272727       0.009
   0.36363636  0.27272727  0.27272727       0.009
   0.00000000  0.00000000  0.36363636       0.002
   0.09090909  0.00000000  0.36363636       0.009
   0.18181818  0.00000000  0.36363636       0.009
   0.27272727  0.00000000  0.36363636       0.009
   0.36363636 -0.00000000  0.36363636       0.009
   0.45454545  0.00000000  0.36363636       0.009
   0.09090909  0.09090909  0.36363636       0.009
   0.18181818  0.09090909  0.36363636       0.018
   0.27272727  0.09090909  0.36363636       0.018
   0.36363636  0.09090909  0.36363636       0.018
   0.45454545  0.09090909  0.36363636       0.009
   0.18181818  0.18181818  0.36363636       0.009
   0.27272727  0.18181818  0.36363636       0.018
   0.36363636  0.18181818  0.36363636       0.018
   0.27272727  0.27272727  0.36363636       0.009
   0.36363636  0.27272727  0.36363636       0.009
   0.00000000  0.00000000  0.45454545       0.002
   0.09090909  0.00000000  0.45454545       0.009
   0.18181818  0.00000000  0.45454545       0.009
   0.27272727  0.00000000  0.45454545       0.009
   0.36363636 -0.00000000  0.45454545       0.009
   0.45454545  0.00000000  0.45454545       0.009
   0.09090909  0.09090909  0.45454545       0.009
   0.18181818  0.09090909  0.45454545       0.018
   0.27272727  0.09090909  0.45454545       0.018
   0.36363636  0.09090909  0.45454545       0.018
   0.45454545  0.09090909  0.45454545       0.009
   0.18181818  0.18181818  0.45454545       0.009
   0.27272727  0.18181818  0.45454545       0.018
   0.36363636  0.18181818  0.45454545       0.018
   0.27272727  0.27272727  0.45454545       0.009
   0.36363636  0.27272727  0.45454545       0.009
 
 position of ions in fractional coordinates (direct lattice) 
   0.00000000  0.00000000  0.00000000
   0.33333333  0.66666667  0.50000000
 
 position of ions in cartesian coordinates  (Angst):
   0.00000000  0.00000000  0.00000000
   0.00000000  1.39903517  2.21728000
 


--------------------------------------------------------------------------------------------------------


 k-point   1 :   0.0000 0.0000 0.0000  plane waves:     247
 k-point   2 :   0.0909 0.0000 0.0000  plane waves:     239
 k-point   3 :   0.1818 0.0000 0.0000  plane waves:     248
 k-point   4 :   0.2727 0.0000 0.0000  plane waves:     234
 k-point   5 :   0.3636-0.0000 0.0000  plane waves:     236
 k-point   6 :   0.4545 0.0000 0.0000  plane waves:     240
 k-point   7 :   0.0909 0.0909 0.0000  plane waves:     241
 k-point   8 :   0.1818 0.0909 0.0000  plane waves:     241
 k-point   9 :   0.2727 0.0909 0.0000  plane waves:     242
 k-point  10 :   0.3636 0.0909 0.0000  plane waves:     237
 k-point  11 :   0.4545 0.0909 0.0000  plane waves:     230
 k-point  12 :   0.1818 0.1818 0.0000  plane waves:     241
 k-point  13 :   0.2727 0.1818 0.0000  plane waves:     237
 k-point  14 :   0.3636 0.1818 0.0000  plane waves:     238
 k-point  15 :   0.2727 0.2727 0.0000  plane waves:     239
 k-point  16 :   0.3636 0.2727 0.0000  plane waves:     242
 k-point  17 :   0.0000 0.0000 0.0909  plane waves:     246
 k-point  18 :   0.0909 0.0000 0.0909  plane waves:     242
 k-point  19 :   0.1818 0.0000 0.0909  plane waves:     241
 k-point  20 :   0.2727 0.0000 0.0909  plane waves:     237
 k-point  21 :   0.3636-0.0000 0.0909  plane waves:     236
 k-point  22 :   0.4545 0.0000 0.0909  plane waves:     240
 k-point  23 :   0.0909 0.0909 0.0909  plane waves:     239
 k-point  24 :   0.1818 0.0909 0.0909  plane waves:     238
 k-point  25 :   0.2727 0.0909 0.0909  plane waves:     239
 k-point  26 :   0.3636 0.0909 0.0909  plane waves:     239
 k-point  27 :   0.4545 0.0909 0.0909  plane waves:     238
 k-point  28 :   0.1818 0.1818 0.0909  plane waves:     238
 k-point  29 :   0.2727 0.1818 0.0909  plane waves:     239
 k-point  30 :   0.3636 0.1818 0.0909  plane waves:     241
 k-point  31 :   0.2727 0.2727 0.0909  plane waves:     238
 k-point  32 :   0.3636 0.2727 0.0909  plane waves:     238
 k-point  33 :   0.0000 0.0000 0.1818  plane waves:     246
 k-point  34 :   0.0909 0.0000 0.1818  plane waves:     241
 k-point  35 :   0.1818 0.0000 0.1818  plane waves:     239
 k-point  36 :   0.2727 0.0000 0.1818  plane waves:     236
 k-point  37 :   0.3636-0.0000 0.1818  plane waves:     241
 k-point  38 :   0.4545 0.0000 0.1818  plane waves:     238
 k-point  39 :   0.0909 0.0909 0.1818  plane waves:     239
 k-point  40 :   0.1818 0.0909 0.1818  plane waves:     238
 k-point  41 :   0.2727 0.0909 0.1818  plane waves:     240
 k-point  42 :   0.3636 0.0909 0.1818  plane waves:     239
 k-point  43 :   0.4545 0.0909 0.1818  plane waves:     240
 k-point  44 :   0.1818 0.1818 0.1818  plane waves:     238
 k-point  45 :   0.2727 0.1818 0.1818  plane waves:     239
 k-point  46 :   0.3636 0.1818 0.1818  plane waves:     240
 k-point  47 :   0.2727 0.2727 0.1818  plane waves:     245
 k-point  48 :   0.3636 0.2727 0.1818  plane waves:     236
 k-point  49 :   0.0000 0.0000 0.2727  plane waves:     252
 k-point  50 :   0.0909 0.0000 0.2727  plane waves:     242
 k-point  51 :   0.1818 0.0000 0.2727  plane waves:     244
 k-point  52 :   0.2727 0.0000 0.2727  plane waves:     240
 k-point  53 :   0.3636-0.0000 0.2727  plane waves:     243
 k-point  54 :   0.4545 0.0000 0.2727  plane waves:     240
 k-point  55 :   0.0909 0.0909 0.2727  plane waves:     241
 k-point  56 :   0.1818 0.0909 0.2727  plane waves:     242
 k-point  57 :   0.2727 0.0909 0.2727  plane waves:     240
 k-point  58 :   0.3636 0.0909 0.2727  plane waves:     237
 k-point  59 :   0.4545 0.0909 0.2727  plane waves:     243
 k-point  60 :   0.1818 0.1818 0.2727  plane waves:     238
 k-point  61 :   0.2727 0.1818 0.2727  plane waves:     241
 k-point  62 :   0.3636 0.1818 0.2727  plane waves:     238
 k-point  63 :   0.2727 0.2727 0.2727  plane waves:     239
 k-point  64 :   0.3636 0.2727 0.2727  plane waves:     234
 k-point  65 :   0.0000 0.0000 0.3636  plane waves:     240
 k-point  66 :   0.0909 0.0000 0.3636  plane waves:     248
 k-point  67 :   0.1818 0.0000 0.3636  plane waves:     245
 k-point  68 :   0.2727 0.0000 0.3636  plane waves:     239
 k-point  69 :   0.3636-0.0000 0.3636  plane waves:     239
 k-point  70 :   0.4545 0.0000 0.3636  plane waves:     244
 k-point  71 :   0.0909 0.0909 0.3636  plane waves:     245
 k-point  72 :   0.1818 0.0909 0.3636  plane waves:     244
 k-point  73 :   0.2727 0.0909 0.3636  plane waves:     241
 k-point  74 :   0.3636 0.0909 0.3636  plane waves:     238
 k-point  75 :   0.4545 0.0909 0.3636  plane waves:     242
 k-point  76 :   0.1818 0.1818 0.3636  plane waves:     240
 k-point  77 :   0.2727 0.1818 0.3636  plane waves:     237
 k-point  78 :   0.3636 0.1818 0.3636  plane waves:     239
 k-point  79 :   0.2727 0.2727 0.3636  plane waves:     237
 k-point  80 :   0.3636 0.2727 0.3636  plane waves:     238
 k-point  81 :   0.0000 0.0000 0.4545  plane waves:     240
 k-point  82 :   0.0909 0.0000 0.4545  plane waves:     249
 k-point  83 :   0.1818 0.0000 0.4545  plane waves:     243
 k-point  84 :   0.2727 0.0000 0.4545  plane waves:     236
 k-point  85 :   0.3636-0.0000 0.4545  plane waves:     242
 k-point  86 :   0.4545 0.0000 0.4545  plane waves:     244
 k-point  87 :   0.0909 0.0909 0.4545  plane waves:     250
 k-point  88 :   0.1818 0.0909 0.4545  plane waves:     242
 k-point  89 :   0.2727 0.0909 0.4545  plane waves:     239
 k-point  90 :   0.3636 0.0909 0.4545  plane waves:     242
 k-point  91 :   0.4545 0.0909 0.4545  plane waves:     238
 k-point  92 :   0.1818 0.1818 0.4545  plane waves:     242
 k-point  93 :   0.2727 0.1818 0.4545  plane waves:     238
 k-point  94 :   0.3636 0.1818 0.4545  plane waves:     235
 k-point  95 :   0.2727 0.2727 0.4545  plane waves:     236
 k-point  96 :   0.3636 0.2727 0.4545  plane waves:     238

 maximum number of plane-waves:       252
 maximum index in each direction: 
   IXMAX=    3   IYMAX=    3   IZMAX=    6
   IXMIN=   -3   IYMIN=   -3   IZMIN=   -6


 total amount of memory used by VASP MPI-rank0    52028. kBytes
=======================================================================

   base      :      30000. kBytes
   nonl-proj :       3491. kBytes
   grid      :        812. kBytes
   one-center:         31. kBytes
   wavefun   :      17694. kBytes
 
     INWAV:  cpu time    0.0000: real time    0.0000
 Broyden mixing: mesh for mixing (old mesh)
   NGX =  7   NGY =  7   NGZ = 13
  (NGX  = 20   NGY  = 20   NGZ  = 36)
  gives a total of    637 points

 initial charge density was supplied:
 charge density of overlapping atoms calculated
 number of electron      16.0000000 magnetization 
 keeping initial charge density in first step


--------------------------------------------------------------------------------------------------------


 Maximum index for augmentation-charges         2777 (set IRDMAX)


--------------------------------------------------------------------------------------------------------


 First call to EWALD:  gamma=   0.627
 Maximum number of real-space cells 4x 4x 2
 Maximum number of reciprocal cells 2x 2x 4

    FEWALD:  cpu time    0.0009: real time    0.0009


--------------------------------------- Iteration      1(   1)  ---------------------------------------


    POTLOK:  cpu time    0.0036: real time    0.0036
    SETDIJ:  cpu time    0.0021: real time    0.0021
     EDDAV:  cpu time    0.8360: real time    0.8547
       DOS:  cpu time    0.0055: real time    0.0055
    --------------------------------------------
      LOOP:  cpu time    0.8472: real time    0.8659

 eigenvalue-minimisations  :  9096
 total energy-change (2. order) : 0.6085753E+02  (-0.2861948E+03)
 number of electron      16.0000000 magnetization 
 augmentation part       16.0000000 magnetization 

 Free energy of the ion-electron system (eV)
  ---------------------------------------------------
  alpha Z        PSCENC =       122.59278882
  Ewald energy   TEWEN  =     -1184.59383722
  -Hartree energ DENC   =      -223.84373380
  -exchange      EXHF   =         0.00000000
  -V(xc)+E(xc)   XCENC  =         7.88621981
  PAW double counting   =      1109.69170683    -1125.09647265
  entropy T*S    EENTRO =         0.00235779
  eigenvalues    EBANDS =       165.64359305
  atomic energy  EATOM  =      1188.57490811
  Solvation  Ediel_sol  =         0.00000000
  ---------------------------------------------------
  free energy    TOTEN  =        60.85753073 eV

  energy without entropy =       60.85517294  energy(sigma->0) =       60.85674480


--------------------------------------------------------------------------------------------------------




--------------------------------------- Iteration      1(   2)  ---------------------------------------


     EDDAV:  cpu time    0.7001: real time    0.7002
       DOS:  cpu time    0.0061: real time    0.0061
    --------------------------------------------
      LOOP:  cpu time    0.7063: real time    0.7063

 eigenvalue-minimisations  :  7912
 total energy-change (2. order) :-0.7523125E+02  (-0.6386713E+02)
 number of electron      16.0000000 magnetization 
 augmentation part       16.0000000 magnetization 

 Free energy of the ion-electron system (eV)
  ---------------------------------------------------
  alpha Z        PSCENC =       122.59278882
  Ewald energy   TEWEN  =     -1184.59383722
  -Hartree energ DENC   =      -223.84373380
  -exchange      EXHF   =         0.00000000
  -V(xc)+E(xc)   XCENC  =         7.88621981
  PAW double counting   =      1109.69170683    -1125.09647265
  entropy T*S    EENTRO =         0.00084729
  eigenvalues    EBANDS =        90.41385574
  atomic energy  EATOM  =      1188.57490811
  Solvation  Ediel_sol  =         0.00000000
  ---------------------------------------------------
  free energy    TOTEN  =       -14.37371708 eV

  energy without entropy =      -14.37456437  energy(sigma->0) =      -14.37399951


--------------------------------------------------------------------------------------------------------




--------------------------------------- Iteration      1(   3)  ---------------------------------------


     EDDAV:  cpu time    0.7927: real time    0.7928
       DOS:  cpu time    0.0067: real time    0.0067
    --------------------------------------------
      LOOP:  cpu time    0.7994: real time    0.7994

 eigenvalue-minimisations  :  9464
 total energy-change (2. order) :-0.4604568E+01  (-0.4330218E+01)
 number of electron      16.0000000 magnetization 
 augmentation part       16.0000000 magnetization 

 Free energy of the ion-electron system (eV)
  ---------------------------------------------------
  alpha Z        PSCENC =       122.59278882
  Ewald energy   TEWEN  =     -1184.59383722
  -Hartree energ DENC   =      -223.84373380
  -exchange      EXHF   =         0.00000000
  -V(xc)+E(xc)   XCENC  =         7.88621981
  PAW double counting   =      1109.69170683    -1125.09647265
  entropy T*S    EENTRO =         0.00071286
  eigenvalues    EBANDS =        85.80942233
  atomic energy  EATOM  =      1188.57490811
  Solvation  Ediel_sol  =         0.00000000
  ---------------------------------------------------
  free energy    TOTEN  =       -18.97828492 eV

  energy without entropy =      -18.97899778  energy(sigma->0) =      -18.97852254


--------------------------------------------------------------------------------------------------------




--------------------------------------- Iteration      1(   4)  ---------------------------------------


     EDDAV:  cpu time    0.7699: real time    0.7699
       DOS:  cpu time    0.0067: real time    0.0067
    --------------------------------------------
      LOOP:  cpu time    0.7766: real time    0.7766

 eigenvalue-minimisations  :  9192
 total energy-change (2. order) :-0.2551583E-01  (-0.2549603E-01)
 number of electron      16.0000000 magnetization 
 augmentation part       16.0000000 magnetization 

 Free energy of the ion-electron system (eV)
  ---------------------------------------------------
  alpha Z        PSCENC =       122.59278882
  Ewald energy   TEWEN  =     -1184.59383722
  -Hartree energ DENC   =      -223.84373380
  -exchange      EXHF   =         0.00000000
  -V(xc)+E(xc)   XCENC  =         7.88621981
  PAW double counting   =      1109.69170683    -1125.09647265
  entropy T*S    EENTRO =         0.00069786
  eigenvalues    EBANDS =        85.78392149
  atomic energy  EATOM  =      1188.57490811
  Solvation  Ediel_sol  =         0.00000000
  ---------------------------------------------------
  free energy    TOTEN  =       -19.00380076 eV

  energy without entropy =      -19.00449862  energy(sigma->0) =      -19.00403338


--------------------------------------------------------------------------------------------------------




--------------------------------------- Iteration      1(   5)  ---------------------------------------


     EDDAV:  cpu time    0.7783: real time    0.7783
       DOS:  cpu time    0.0065: real time    0.0065
    CHARGE:  cpu time    0.0204: real time    0.0204
    MIXING:  cpu time    0.0002: real time    0.0002
    --------------------------------------------
      LOOP:  cpu time    0.8054: real time    0.8054

 eigenvalue-minimisations  :  9320
 total energy-change (2. order) :-0.5404496E-04  (-0.5404276E-04)
 number of electron      16.0000068 magnetization 
 augmentation part        7.0282154 magnetization 

 Broyden mixing:
  rms(total) = 0.15615E+01    rms(broyden)= 0.15615E+01
  rms(prec ) = 0.27891E+01
  weight for this iteration     100.00

 Free energy of the ion-electron system (eV)
  ---------------------------------------------------
  alpha Z        PSCENC =       122.59278882
  Ewald energy   TEWEN  =     -1184.59383722
  -Hartree energ DENC   =      -223.84373380
  -exchange      EXHF   =         0.00000000
  -V(xc)+E(xc)   XCENC  =         7.88621981
  PAW double counting   =      1109.69170683    -1125.09647265
  entropy T*S    EENTRO =         0.00069779
  eigenvalues    EBANDS =        85.78386752
  atomic energy  EATOM  =      1188.57490811
  Solvation  Ediel_sol  =         0.00000000
  ---------------------------------------------------
  free energy    TOTEN  =       -19.00385480 eV

  energy without entropy =      -19.00455259  energy(sigma->0) =      -19.00408740


--------------------------------------------------------------------------------------------------------




--------------------------------------- Iteration      1(   6)  ---------------------------------------


    POTLOK:  cpu time    0.0034: real time    0.0034
    SETDIJ:  cpu time    0.0021: real time    0.0021
     EDDAV:  cpu time    0.9108: real time    0.9108
       DOS:  cpu time    0.0065: real time    0.0065
    CHARGE:  cpu time    0.0195: real time    0.0195
    MIXING:  cpu time    0.0002: real time    0.0002
    --------------------------------------------
      LOOP:  cpu time    0.9425: real time    0.9425

 eigenvalue-minimisations  : 11104
 total energy-change (2. order) : 0.2827083E+01  (-0.2352353E+00)
 number of electron      16.0000097 magnetization 
 augmentation part        8.6458596 magnetization 

 Broyden mixing:
  rms(total) = 0.40046E+00    rms(broyden)= 0.40041E+00
  rms(prec ) = 0.68148E+00
  weight for this iteration     100.00

 eigenvalues of (default mixing * dielectric matrix)
  average eigenvalue GAMMA=   0.8451
  0.8451

 Free energy of the ion-electron system (eV)
  ---------------------------------------------------
  alpha Z        PSCENC =       122.59278882
  Ewald energy   TEWEN  =     -1184.59383722
  -Hartree energ DENC   =      -186.80042546
  -exchange      EXHF   =         0.00000000
  -V(xc)+E(xc)   XCENC  =         6.08850702
  PAW double counting   =      1204.43223711    -1214.67278872
  entropy T*S    EENTRO =         0.00236571
  eigenvalues    EBANDS =        48.19947268
  atomic energy  EATOM  =      1188.57490811
  Solvation  Ediel_sol  =         0.00000000
  ---------------------------------------------------
  free energy    TOTEN  =       -16.17677196 eV

  energy without entropy =      -16.17913767  energy(sigma->0) =      -16.17756053


--------------------------------------------------------------------------------------------------------




--------------------------------------- Iteration      1(   7)  ---------------------------------------


    POTLOK:  cpu time    0.0034: real time    0.0034
    SETDIJ:  cpu time    0.0021: real time    0.0021
     EDDAV:  cpu time    0.8435: real time    0.8435
       DOS:  cpu time    0.0069: real time    0.0069
    CHARGE:  cpu time    0.0197: real time    0.0197
    MIXING:  cpu time    0.0002: real time    0.0002
    --------------------------------------------
      LOOP:  cpu time    0.8758: real time    0.8758

 eigenvalue-minimisations  : 10216
 total energy-change (2. order) : 0.3302239E+00  (-0.2100177E-01)
 number of electron      16.0000090 magnetization 
 augmentation part        8.1976833 magnetization 

 Broyden mixing:
  rms(total) = 0.10057E+00    rms(broyden)= 0.10056E+00
  rms(prec ) = 0.20490E+00
  weight for this iteration     100.00

 eigenvalues of (default mixing * dielectric matrix)
  average eigenvalue GAMMA=   0.9219
  1.1429  0.7010

 Free energy of the ion-electron system (eV)
  ---------------------------------------------------
  alpha Z        PSCENC =       122.59278882
  Ewald energy   TEWEN  =     -1184.59383722
  -Hartree energ DENC   =      -193.76013748
  -exchange      EXHF   =         0.00000000
  -V(xc)+E(xc)   XCENC  =         6.45865538
  PAW double counting   =      1270.34025166    -1284.35383215
  entropy T*S    EENTRO =         0.00294805
  eigenvalues    EBANDS =        58.89170676
  atomic energy  EATOM  =      1188.57490811
  Solvation  Ediel_sol  =         0.00000000
  ---------------------------------------------------
  free energy    TOTEN  =       -15.84654807 eV

  energy without entropy =      -15.84949612  energy(sigma->0) =      -15.84753076


--------------------------------------------------------------------------------------------------------




--------------------------------------- Iteration      1(   8)  ---------------------------------------


    POTLOK:  cpu time    0.0034: real time    0.0034
    SETDIJ:  cpu time    0.0021: real time    0.0021
     EDDAV:  cpu time    0.8419: real time    0.8419
       DOS:  cpu time    0.0067: real time    0.0067
    CHARGE:  cpu time    0.0203: real time    0.0203
    MIXING:  cpu time    0.0002: real time    0.0002
    --------------------------------------------
      LOOP:  cpu time    0.8746: real time    0.8746

 eigenvalue-minimisations  : 10216
 total energy-change (2. order) : 0.2419278E-01  (-0.5494839E-03)
 number of electron      16.0000091 magnetization 
 augmentation part        8.2355586 magnetization 

 Broyden mixing:
  rms(total) = 0.45412E-01    rms(broyden)= 0.45411E-01
  rms(prec ) = 0.91379E-01
  weight for this iteration     100.00

 eigenvalues of (default mixing * dielectric matrix)
  average eigenvalue GAMMA=   1.4085
  0.7340  1.0444  2.4472

 Free energy of the ion-electron system (eV)
  ---------------------------------------------------
  alpha Z        PSCENC =       122.59278882
  Ewald energy   TEWEN  =     -1184.59383722
  -Hartree energ DENC   =      -191.65092375
  -exchange      EXHF   =         0.00000000
  -V(xc)+E(xc)   XCENC  =         6.37603823
  PAW double counting   =      1316.16008239    -1331.32088556
  entropy T*S    EENTRO =         0.00304674
  eigenvalues    EBANDS =        58.03642694
  atomic energy  EATOM  =      1188.57490811
  Solvation  Ediel_sol  =         0.00000000
  ---------------------------------------------------
  free energy    TOTEN  =       -15.82235530 eV

  energy without entropy =      -15.82540203  energy(sigma->0) =      -15.82337088


--------------------------------------------------------------------------------------------------------




--------------------------------------- Iteration      1(   9)  ---------------------------------------


    POTLOK:  cpu time    0.0034: real time    0.0034
    SETDIJ:  cpu time    0.0021: real time    0.0021
     EDDAV:  cpu time    0.9292: real time    0.9292
       DOS:  cpu time    0.0069: real time    0.0069
    CHARGE:  cpu time    0.0192: real time    0.0192
    MIXING:  cpu time    0.0003: real time    0.0003
    --------------------------------------------
      LOOP:  cpu time    0.9609: real time    0.9610

 eigenvalue-minimisations  : 11352
 total energy-change (2. order) : 0.1003641E-01  (-0.8567793E-04)
 number of electron      16.0000091 magnetization 
 augmentation part        8.2537800 magnetization 

 Broyden mixing:
  rms(total) = 0.67037E-02    rms(broyden)= 0.67014E-02
  rms(prec ) = 0.71358E-02
  weight for this iteration     100.00

 eigenvalues of (default mixing * dielectric matrix)
  average eigenvalue GAMMA=   1.4294
  2.5217  0.7325  0.9926  1.4707

 Free energy of the ion-electron system (eV)
  ---------------------------------------------------
  alpha Z        PSCENC =       122.59278882
  Ewald energy   TEWEN  =     -1184.59383722
  -Hartree energ DENC   =      -189.58622573
  -exchange      EXHF   =         0.00000000
  -V(xc)+E(xc)   XCENC  =         6.30396244
  PAW double counting   =      1378.20524999    -1394.96911324
  entropy T*S    EENTRO =         0.00304941
  eigenvalues    EBANDS =        57.65689852
  atomic energy  EATOM  =      1188.57490811
  Solvation  Ediel_sol  =         0.00000000
  ---------------------------------------------------
  free energy    TOTEN  =       -15.81231889 eV

  energy without entropy =      -15.81536830  energy(sigma->0) =      -15.81333536


--------------------------------------------------------------------------------------------------------




--------------------------------------- Iteration      1(  10)  ---------------------------------------


    POTLOK:  cpu time    0.0034: real time    0.0034
    SETDIJ:  cpu time    0.0021: real time    0.0021
     EDDAV:  cpu time    0.7785: real time    0.7785
       DOS:  cpu time    0.0069: real time    0.0069
    CHARGE:  cpu time    0.0198: real time    0.0198
    MIXING:  cpu time    0.0003: real time    0.0003
    --------------------------------------------
      LOOP:  cpu time    0.8110: real time    0.8110

 eigenvalue-minimisations  :  9344
 total energy-change (2. order) :-0.2236698E-04  (-0.4414058E-05)
 number of electron      16.0000091 magnetization 
 augmentation part        8.2546281 magnetization 

 Broyden mixing:
  rms(total) = 0.31737E-02    rms(broyden)= 0.31731E-02
  rms(prec ) = 0.35050E-02
  weight for this iteration     100.00

 eigenvalues of (default mixing * dielectric matrix)
  average eigenvalue GAMMA=   1.6088
  2.5622  2.5622  0.7329  1.0128  1.1741

 Free energy of the ion-electron system (eV)
  ---------------------------------------------------
  alpha Z        PSCENC =       122.59278882
  Ewald energy   TEWEN  =     -1184.59383722
  -Hartree energ DENC   =      -189.53319955
  -exchange      EXHF   =         0.00000000
  -V(xc)+E(xc)   XCENC  =         6.30317895
  PAW double counting   =      1381.61340876    -1398.40549369
  entropy T*S    EENTRO =         0.00304454
  eigenvalues    EBANDS =        57.63286001
  atomic energy  EATOM  =      1188.57490811
  Solvation  Ediel_sol  =         0.00000000
  ---------------------------------------------------
  free energy    TOTEN  =       -15.81234126 eV

  energy without entropy =      -15.81538580  energy(sigma->0) =      -15.81335611


--------------------------------------------------------------------------------------------------------




--------------------------------------- Iteration      1(  11)  ---------------------------------------


    POTLOK:  cpu time    0.0034: real time    0.0034
    SETDIJ:  cpu time    0.0021: real time    0.0021
     EDDAV:  cpu time    0.7920: real time    0.7920
       DOS:  cpu time    0.0068: real time    0.0068
    CHARGE:  cpu time    0.0196: real time    0.0196
    MIXING:  cpu time    0.0003: real time    0.0003
    --------------------------------------------
      LOOP:  cpu time    0.8242: real time    0.8242

 eigenvalue-minimisations  :  9432
 total energy-change (2. order) : 0.3307990E-05  (-0.7566956E-07)
 number of electron      16.0000091 magnetization 
 augmentation part        8.2544746 magnetization 

 Broyden mixing:
  rms(total) = 0.16121E-03    rms(broyden)= 0.16098E-03
  rms(prec ) = 0.18632E-03
  weight for this iteration     100.00

 eigenvalues of (default mixing * dielectric matrix)
  average eigenvalue GAMMA=   1.5155
  2.5672  2.5672  0.7328  0.9961  0.9961  1.2338

 Free energy of the ion-electron system (eV)
  ---------------------------------------------------
  alpha Z        PSCENC =       122.59278882
  Ewald energy   TEWEN  =     -1184.59383722
  -Hartree energ DENC   =      -189.58432330
  -exchange      EXHF   =         0.00000000
  -V(xc)+E(xc)   XCENC  =         6.30578889
  PAW double counting   =      1381.67180882    -1398.41411799
  entropy T*S    EENTRO =         0.00304530
  eigenvalues    EBANDS =        57.63160061
  atomic energy  EATOM  =      1188.57490811
  Solvation  Ediel_sol  =         0.00000000
  ---------------------------------------------------
  free energy    TOTEN  =       -15.81233795 eV

  energy without entropy =      -15.81538325  energy(sigma->0) =      -15.81335305


--------------------------------------------------------------------------------------------------------




--------------------------------------- Iteration      1(  12)  ---------------------------------------


    POTLOK:  cpu time    0.0034: real time    0.0034
    SETDIJ:  cpu time    0.0020: real time    0.0020
     EDDAV:  cpu time    0.5772: real time    0.5772
       DOS:  cpu time    0.0065: real time    0.0065
    --------------------------------------------
      LOOP:  cpu time    0.5892: real time    0.5892

 eigenvalue-minimisations  :  5936
 total energy-change (2. order) : 0.1647873E-06  (-0.1732341E-08)
 number of electron      16.0000091 magnetization 
 augmentation part        8.2544746 magnetization 

 Free energy of the ion-electron system (eV)
  ---------------------------------------------------
  alpha Z        PSCENC =       122.59278882
  Ewald energy   TEWEN  =     -1184.59383722
  -Hartree energ DENC   =      -189.58523022
  -exchange      EXHF   =         0.00000000
  -V(xc)+E(xc)   XCENC  =         6.30588514
  PAW double counting   =      1381.82582560    -1398.56682677
  entropy T*S    EENTRO =         0.00304546
  eigenvalues    EBANDS =        57.63110329
  atomic energy  EATOM  =      1188.57490811
  Solvation  Ediel_sol  =         0.00000000
  ---------------------------------------------------
  free energy    TOTEN  =       -15.81233778 eV

  energy without entropy =      -15.81538325  energy(sigma->0) =      -15.81335294


--------------------------------------------------------------------------------------------------------




 average (electrostatic) potential at core
  the test charge radii are     1.0103
  (the norm of the test charge is              1.0000)
       1 -43.6130       2 -43.6128
 
 
 
 E-fermi :   5.8222     XC(G=0): -13.1997     alpha+bet :-13.7472

 Fermi energy:         5.8221920379

 k-point     1 :       0.0000    0.0000    0.0000
  band No.  band energies     occupation 
      1      -2.5039      2.00000
      2       1.2423      2.00000
      3       3.7041      2.00000
      4       4.4638      2.00000
      5       4.4640      2.00000
      6       4.6842      2.00000
      7       4.6844      2.00000
      8       4.8724      2.00000
      9       5.6850      1.90987
     10       5.6850      1.90972
     11       6.4614     -0.00006
     12       6.4614     -0.00006
     13      11.6993      0.00000
     14      26.9493      0.00000
     15      28.8647      0.00000
     16      31.3763      0.00000
     17      32.8085      0.00000
     18      33.2909      0.00000
     19      33.2909      0.00000
     20      34.1245      0.00000
     21      34.1247      0.00000
     22      36.9953      0.00000
     23      36.9954      0.00000
     24      37.8991      0.00000
     25      39.7299      0.00000
     26      39.9188      0.00000
     27      39.9188      0.00000
     28      43.0795      0.00000
     29      43.0799      0.00000
     30      44.6093      0.00000
     31      44.6095      0.00000
     32      46.5511      0.00000
     33      53.7972      0.00000
     34      58.1543      0.00000
     35      58.5413      0.00000
     36      58.5423      0.00000
     37      58.9921      0.00000
     38      58.9921      0.00000
     39      59.2629      0.00000
     40      59.7203      0.00000

 k-point     2 :       0.0909    0.0000    0.0000
  band No.  band energies     occupation 
      1      -2.1903      2.00000
      2       1.4851      2.00000
      3       3.7672      2.00000
      4       4.2464      2.00000
      5       4.3669      2.00000
      6       4.5776      2.00000
      7       4.6381      2.00000
      8       4.8484      2.00000
      9       5.5335      2.06016
     10       5.5939      2.06854
     11       6.4814     -0.00003
     12       7.3566     -0.00000
     13      11.7325      0.00000
     14      27.3310      0.00000
     15      27.3557      0.00000
     16      29.6780      0.00000
     17      30.6546      0.00000
     18      32.6974      0.00000
     19      32.9714      0.00000
     20      33.0825      0.00000
     21      36.2186      0.00000
     22      36.2390      0.00000
     23      37.0038      0.00000
     24      37.5323      0.00000
     25      40.4783      0.00000
     26      40.6894      0.00000
     27      41.2598      0.00000
     28      41.7430      0.00000
     29      44.6344      0.00000
     30      45.8299      0.00000
     31      47.1687      0.00000
     32      48.8001      0.00000
     33      53.6833      0.00000
     34      55.4596      0.00000
     35      56.7759      0.00000
     36      57.0406      0.00000
     37      57.5701      0.00000
     38      58.8492      0.00000
     39      60.4570      0.00000
     40      61.4920      0.00000

 k-point     3 :       0.1818    0.0000    0.0000
  band No.  band energies     occupation 
      1      -1.2969      2.00000
      2       2.0698      2.00000
      3       3.4058      2.00000
      4       3.7433      2.00000
      5       4.1440      2.00000
      6       4.6105      2.00000
      7       5.1194      2.00001
      8       5.1709      2.00004
      9       5.3012      2.00143
     10       5.3763      2.00711
     11       6.5061     -0.00001
     12       8.9481     -0.00000
     13      11.8575      0.00000
     14      23.4039      0.00000
     15      27.9670      0.00000
     16      28.2779      0.00000
     17      28.3752      0.00000
     18      28.8678      0.00000
     19      32.1150      0.00000
     20      33.6887      0.00000
     21      33.7261      0.00000
     22      35.1468      0.00000
     23      37.2881      0.00000
     24      37.6851      0.00000
     25      41.0710      0.00000
     26      42.4928      0.00000
     27      43.9679      0.00000
     28      45.8587      0.00000
     29      46.7031      0.00000
     30      49.6613      0.00000
     31      49.9639      0.00000
     32      52.0362      0.00000
     33      52.5694      0.00000
     34      52.8677      0.00000
     35      55.0288      0.00000
     36      56.0031      0.00000
     37      57.4044      0.00000
     38      58.5342      0.00000
     39      60.9545      0.00000
     40      63.0547      0.00000

 k-point     4 :       0.2727    0.0000    0.0000
  band No.  band energies     occupation 
      1      -0.0051      2.00000
      2       2.3978      2.00000
      3       2.7663      2.00000
      4       3.7537      2.00000
      5       3.9575      2.00000
      6       4.7146      2.00000
      7       5.1255      2.00001
      8       5.2543      2.00045
      9       5.8035      1.15708
     10       5.9340      0.19836
     11       6.5125     -0.00001
     12      10.8149     -0.00000
     13      12.1618      0.00000
     14      19.4296      0.00000
     15      24.8879      0.00000
     16      25.7013      0.00000
     17      26.3686      0.00000
     18      29.3156      0.00000
     19      30.7040      0.00000
     20      32.8135      0.00000
     21      33.9995      0.00000
     22      34.3501      0.00000
     23      34.8257      0.00000
     24      38.0972      0.00000
     25      44.7612      0.00000
     26      45.8153      0.00000
     27      47.3805      0.00000
     28      47.5151      0.00000
     29      47.7076      0.00000
     30      50.2462      0.00000
     31      51.0652      0.00000
     32      52.0796      0.00000
     33      53.9939      0.00000
     34      55.3500      0.00000
     35      55.9850      0.00000
     36      57.7489      0.00000
     37      58.4216      0.00000
     38      59.5844      0.00000
     39      62.0165      0.00000
     40      62.1223      0.00000

 k-point     5 :       0.3636   -0.0000    0.0000
  band No.  band energies     occupation 
      1       1.2055      2.00000
      2       2.1780      2.00000
      3       2.3607      2.00000
      4       3.8161      2.00000
      5       4.3050      2.00000
      6       4.4243      2.00000
      7       4.9156      2.00000
      8       6.3591     -0.00098
      9       6.4897     -0.00002
     10       6.4970     -0.00002
     11       6.5643     -0.00000
     12      12.4068      0.00000
     13      12.8701      0.00000
     14      16.3552      0.00000
     15      21.5824      0.00000
     16      23.2625      0.00000
     17      23.9827      0.00000
     18      28.8357      0.00000
     19      29.9362      0.00000
     20      32.8917      0.00000
     21      33.8441      0.00000
     22      34.4472      0.00000
     23      34.6393      0.00000
     24      38.0928      0.00000
     25      44.0561      0.00000
     26      46.0826      0.00000
     27      47.9495      0.00000
     28      50.7014      0.00000
     29      51.2268      0.00000
     30      51.2290      0.00000
     31      52.5972      0.00000
     32      54.4193      0.00000
     33      54.8256      0.00000
     34      57.3075      0.00000
     35      58.3751      0.00000
     36      59.0050      0.00000
     37      60.4907      0.00000
     38      61.7496      0.00000
     39      62.7104      0.00000
     40      64.0505      0.00000

 k-point     6 :       0.4545    0.0000    0.0000
  band No.  band energies     occupation 
      1       1.7400      2.00000
      2       1.9325      2.00000
      3       2.1704      2.00000
      4       4.0631      2.00000
      5       4.3320      2.00000
      6       4.6439      2.00000
      7       4.7974      2.00000
      8       6.4827     -0.00003
      9       6.9121     -0.00000
     10       6.9854     -0.00000
     11       7.9099     -0.00000
     12      11.0429     -0.00000
     13      14.8700      0.00000
     14      16.0433      0.00000
     15      18.9715      0.00000
     16      20.4711      0.00000
     17      23.0324      0.00000
     18      28.3026      0.00000
     19      29.6709      0.00000
     20      31.8308      0.00000
     21      33.6019      0.00000
     22      35.6158      0.00000
     23      37.1126      0.00000
     24      37.1478      0.00000
     25      40.7160      0.00000
     26      45.9753      0.00000
     27      48.5689      0.00000
     28      51.8802      0.00000
     29      53.9057      0.00000
     30      54.1420      0.00000
     31      54.5051      0.00000
     32      56.3940      0.00000
     33      57.9194      0.00000
     34      58.5315      0.00000
     35      58.9988      0.00000
     36      59.3637      0.00000
     37      62.7359      0.00000
     38      62.7494      0.00000
     39      63.0703      0.00000
     40      63.6521      0.00000

 k-point     7 :       0.0909    0.0909    0.0000
  band No.  band energies     occupation 
      1      -1.5846      2.00000
      2       1.9155      2.00000
      3       3.6241      2.00000
      4       3.7559      2.00000
      5       4.3250      2.00000
      6       4.3726      2.00000
      7       4.9903      2.00000
      8       5.1963      2.00009
      9       5.1982      2.00009
     10       5.5391      2.06240
     11       6.4724     -0.00004
     12       8.4978     -0.00000
     13      11.8148      0.00000
     14      25.2339      0.00000
     15      26.2347      0.00000
     16      28.0772      0.00000
     17      30.3332      0.00000
     18      31.6555      0.00000
     19      31.8719      0.00000
     20      32.3368      0.00000
     21      32.7499      0.00000
     22      37.8690      0.00000
     23      38.3734      0.00000
     24      38.5484      0.00000
     25      40.1302      0.00000
     26      40.3057      0.00000
     27      40.7920      0.00000
     28      46.6964      0.00000
     29      47.6752      0.00000
     30      47.9750      0.00000
     31      48.0971      0.00000
     32      52.0063      0.00000
     33      53.0730      0.00000
     34      53.2317      0.00000
     35      54.5739      0.00000
     36      55.7266      0.00000
     37      57.5952      0.00000
     38      59.4426      0.00000
     39      60.9240      0.00000
     40      62.1329      0.00000

 k-point     8 :       0.1818    0.0909    0.0000
  band No.  band energies     occupation 
      1      -0.4709      2.00000
      2       2.4896      2.00000
      3       2.9950      2.00000
      4       3.5494      2.00000
      5       4.0574      2.00000
      6       4.6894      2.00000
      7       4.7839      2.00000
      8       5.3119      2.00184
      9       5.6195      2.05296
     10       5.8422      0.83169
     11       6.4458     -0.00010
     12      10.1547     -0.00000
     13      12.0648      0.00000
     14      21.4824      0.00000
     15      23.9988      0.00000
     16      26.7905      0.00000
     17      28.7064      0.00000
     18      28.9976      0.00000
     19      30.9253      0.00000
     20      31.6424      0.00000
     21      32.9076      0.00000
     22      36.4175      0.00000
     23      37.7844      0.00000
     24      38.6634      0.00000
     25      41.7325      0.00000
     26      42.8888      0.00000
     27      44.8379      0.00000
     28      47.7748      0.00000
     29      49.2737      0.00000
     30      50.6717      0.00000
     31      50.7367      0.00000
     32      52.3755      0.00000
     33      53.5536      0.00000
     34      53.9976      0.00000
     35      54.9790      0.00000
     36      55.5907      0.00000
     37      58.7969      0.00000
     38      59.8086      0.00000
     39      61.6578      0.00000
     40      62.6708      0.00000

 k-point     9 :       0.2727    0.0909    0.0000
  band No.  band energies     occupation 
      1       0.8630      2.00000
      2       2.4825      2.00000
      3       2.5462      2.00000
      4       3.6125      2.00000
      5       4.1244      2.00000
      6       4.4082      2.00000
      7       5.0020      2.00000
      8       5.3960      2.01025
      9       6.2981     -0.00390
     10       6.4140     -0.00023
     11       6.6778     -0.00000
     12      12.0967      0.00000
     13      12.5562      0.00000
     14      17.7715      0.00000
     15      22.3888      0.00000
     16      23.3290      0.00000
     17      25.5068      0.00000
     18      27.7855      0.00000
     19      30.8130      0.00000
     20      32.3244      0.00000
     21      32.4582      0.00000
     22      35.8289      0.00000
     23      36.9638      0.00000
     24      39.6881      0.00000
     25      43.5093      0.00000
     26      45.7923      0.00000
     27      46.8299      0.00000
     28      46.8412      0.00000
     29      49.3167      0.00000
     30      51.2027      0.00000
     31      51.7682      0.00000
     32      54.2309      0.00000
     33      55.4870      0.00000
     34      56.3503      0.00000
     35      58.1280      0.00000
     36      59.7648      0.00000
     37      60.6638      0.00000
     38      60.9957      0.00000
     39      61.2863      0.00000
     40      62.7648      0.00000

 k-point    10 :       0.3636    0.0909    0.0000
  band No.  band energies     occupation 
      1       1.7598      2.00000
      2       2.1954      2.00000
      3       2.2966      2.00000
      4       3.9468      2.00000
      5       4.1404      2.00000
      6       4.5122      2.00000
      7       4.7535      2.00000
      8       6.2596     -0.00834
      9       6.3858     -0.00050
     10       6.7498     -0.00000
     11       7.7502     -0.00000
     12      12.3001      0.00000
     13      14.1977      0.00000
     14      15.9133      0.00000
     15      20.3178      0.00000
     16      21.0376      0.00000
     17      22.3630      0.00000
     18      26.9806      0.00000
     19      29.9435      0.00000
     20      31.8855      0.00000
     21      34.3718      0.00000
     22      36.2155      0.00000
     23      37.0441      0.00000
     24      38.8306      0.00000
     25      42.7109      0.00000
     26      45.8681      0.00000
     27      46.9797      0.00000
     28      49.1354      0.00000
     29      50.5229      0.00000
     30      52.8689      0.00000
     31      54.5743      0.00000
     32      56.4936      0.00000
     33      57.5860      0.00000
     34      58.3714      0.00000
     35      59.4327      0.00000
     36      60.4886      0.00000
     37      61.2891      0.00000
     38      62.3125      0.00000
     39      62.8707      0.00000
     40      63.9047      0.00000

 k-point    11 :       0.4545    0.0909    0.0000
  band No.  band energies     occupation 
      1       1.9866      2.00000
      2       2.0428      2.00000
      3       2.2196      2.00000
      4       4.0435      2.00000
      5       4.3602      2.00000
      6       4.5717      2.00000
      7       4.6610      2.00000
      8       6.3738     -0.00068
      9       6.7673     -0.00000
     10       6.7923     -0.00000
     11       8.9011     -0.00000
     12      10.8072     -0.00000
     13      15.6634      0.00000
     14      16.4923      0.00000
     15      18.5656      0.00000
     16      19.7699      0.00000
     17      21.3340      0.00000
     18      26.6993      0.00000
     19      29.5821      0.00000
[...]
     18      24.1907      0.00000
     19      29.3135      0.00000
     20      30.2810      0.00000
     21      33.0790      0.00000
     22      33.3755      0.00000
     23      38.3288      0.00000
     24      39.4065      0.00000
     25      44.7179      0.00000
     26      46.3977      0.00000
     27      48.5701      0.00000
     28      49.8252      0.00000
     29      51.1128      0.00000
     30      52.6962      0.00000
     31      55.9015      0.00000
     32      56.5104      0.00000
     33      57.3825      0.00000
     34      57.8663      0.00000
     35      59.4892      0.00000
     36      60.2139      0.00000
     37      60.9239      0.00000
     38      61.5125      0.00000
     39      63.1575      0.00000
     40      63.5372      0.00000

 k-point    91 :       0.4545    0.0909    0.4545
  band No.  band energies     occupation 
      1       1.7088      2.00000
      2       1.8162      2.00000
      3       2.8735      2.00000
      4       2.9119      2.00000
      5       4.9831      2.00000
      6       5.3012      2.00143
      7       5.8488      0.77675
      8       6.1205     -0.05605
      9       6.5639     -0.00000
     10       6.6281     -0.00000
     11       8.8660     -0.00000
     12       9.2794     -0.00000
     13      14.5492      0.00000
     14      14.5799      0.00000
     15      22.7438      0.00000
     16      23.2695      0.00000
     17      23.7151      0.00000
     18      23.9546      0.00000
     19      28.7625      0.00000
     20      29.1396      0.00000
     21      32.5556      0.00000
     22      32.6203      0.00000
     23      38.3451      0.00000
     24      39.4224      0.00000
     25      44.7876      0.00000
     26      46.4153      0.00000
     27      50.2053      0.00000
     28      52.1155      0.00000
     29      53.9102      0.00000
     30      54.2291      0.00000
     31      54.5947      0.00000
     32      54.6810      0.00000
     33      57.1831      0.00000
     34      57.5488      0.00000
     35      61.1636      0.00000
     36      61.2465      0.00000
     37      61.7062      0.00000
     38      62.1640      0.00000
     39      62.8854      0.00000
     40      64.3737      0.00000

 k-point    92 :       0.1818    0.1818    0.4545
  band No.  band energies     occupation 
      1       1.5554      2.00000
      2       1.8271      2.00000
      3       3.3652      2.00000
      4       3.4201      2.00000
      5       3.7938      2.00000
      6       3.8262      2.00000
      7       5.3020      2.00146
      8       5.4870      2.03920
      9       6.3632     -0.00088
     10       6.5357     -0.00001
     11       6.9630     -0.00000
     12       7.3581     -0.00000
     13      19.9089      0.00000
     14      20.8088      0.00000
     15      21.4050      0.00000
     16      21.8175      0.00000
     17      22.4563      0.00000
     18      23.0630      0.00000
     19      33.3645      0.00000
     20      34.4359      0.00000
     21      35.1435      0.00000
     22      36.2046      0.00000
     23      37.4984      0.00000
     24      37.7217      0.00000
     25      43.0133      0.00000
     26      43.3307      0.00000
     27      46.5016      0.00000
     28      48.3970      0.00000
     29      50.1716      0.00000
     30      50.1751      0.00000
     31      52.3810      0.00000
     32      53.0888      0.00000
     33      55.8091      0.00000
     34      55.9503      0.00000
     35      57.5741      0.00000
     36      58.0335      0.00000
     37      60.5333      0.00000
     38      60.9721      0.00000
     39      63.0268      0.00000
     40      63.0863      0.00000

 k-point    93 :       0.2727    0.1818    0.4545
  band No.  band energies     occupation 
      1       2.0482      2.00000
      2       2.1455      2.00000
      3       3.1846      2.00000
      4       3.3280      2.00000
      5       4.1230      2.00000
      6       4.2260      2.00000
      7       5.1661      2.00004
      8       5.3547      2.00465
      9       6.4504     -0.00008
     10       6.6904     -0.00000
     11       8.3542     -0.00000
     12       8.7876     -0.00000
     13      17.6704      0.00000
     14      18.1696      0.00000
     15      20.2714      0.00000
     16      20.9061      0.00000
     17      22.2482      0.00000
     18      23.7198      0.00000
     19      30.9071      0.00000
     20      32.4633      0.00000
     21      33.3886      0.00000
     22      34.8807      0.00000
     23      38.5648      0.00000
     24      38.9995      0.00000
     25      44.7207      0.00000
     26      45.2571      0.00000
     27      47.7333      0.00000
     28      49.7074      0.00000
     29      51.2410      0.00000
     30      52.7557      0.00000
     31      54.4242      0.00000
     32      55.3647      0.00000
     33      57.7601      0.00000
     34      58.0095      0.00000
     35      58.4893      0.00000
     36      59.0471      0.00000
     37      59.7699      0.00000
     38      60.1443      0.00000
     39      62.8814      0.00000
     40      63.3250      0.00000

 k-point    94 :       0.3636    0.1818    0.4545
  band No.  band energies     occupation 
      1       2.1355      2.00000
      2       2.2506      2.00000
      3       3.1137      2.00000
      4       3.2389      2.00000
      5       4.2762      2.00000
      6       4.5205      2.00000
      7       5.4154      2.01430
      8       5.5025      2.04627
      9       6.4396     -0.00011
     10       6.5878     -0.00000
     11       9.9993     -0.00000
     12      10.3870     -0.00000
     13      15.0577      0.00000
     14      15.4056      0.00000
     15      19.7218      0.00000
     16      20.3827      0.00000
     17      23.7836      0.00000
     18      24.7663      0.00000
     19      29.0794      0.00000
     20      30.0515      0.00000
     21      32.6531      0.00000
     22      34.0887      0.00000
     23      38.9456      0.00000
     24      39.3148      0.00000
     25      47.8803      0.00000
     26      48.7816      0.00000
     27      49.0387      0.00000
     28      50.1329      0.00000
     29      51.7468      0.00000
     30      53.3432      0.00000
     31      53.6582      0.00000
     32      54.3940      0.00000
     33      56.4218      0.00000
     34      57.2332      0.00000
     35      58.7500      0.00000
     36      60.2213      0.00000
     37      61.9376      0.00000
     38      62.3913      0.00000
     39      62.7909      0.00000
     40      63.1420      0.00000

 k-point    95 :       0.2727    0.2727    0.4545
  band No.  band energies     occupation 
      1       2.5071      2.00000
      2       2.5460      2.00000
      3       3.3069      2.00000
      4       3.4821      2.00000
      5       3.8581      2.00000
      6       4.0108      2.00000
      7       5.0160      2.00000
      8       5.1825      2.00006
      9       6.4501     -0.00008
     10       6.6136     -0.00000
     11      10.3615     -0.00000
     12      10.8283     -0.00000
     13      16.3018      0.00000
     14      16.6557      0.00000
     15      17.7827      0.00000
     16      18.1245      0.00000
     17      23.9021      0.00000
     18      25.3323      0.00000
     19      29.2954      0.00000
     20      30.4945      0.00000
     21      32.2212      0.00000
     22      33.1637      0.00000
     23      41.6986      0.00000
     24      42.0816      0.00000
     25      45.0837      0.00000
     26      45.2044      0.00000
     27      50.0397      0.00000
     28      51.9240      0.00000
     29      52.2784      0.00000
     30      52.7604      0.00000
     31      54.8421      0.00000
     32      54.9944      0.00000
     33      56.1782      0.00000
     34      56.3104      0.00000
     35      56.8923      0.00000
     36      57.4871      0.00000
     37      62.0159      0.00000
     38      62.5414      0.00000
     39      63.4542      0.00000
     40      63.4896      0.00000

 k-point    96 :       0.3636    0.2727    0.4545
  band No.  band energies     occupation 
      1       2.6985      2.00000
      2       2.8006      2.00000
      3       3.2937      2.00000
      4       3.3925      2.00000
      5       3.8075      2.00000
      6       3.9315      2.00000
      7       5.0418      2.00000
      8       5.1668      2.00004
      9       6.4397     -0.00011
     10       6.4959     -0.00002
     11      12.1396      0.00000
     12      12.2609      0.00000
     13      14.6191      0.00000
     14      14.8776      0.00000
     15      17.1390      0.00000
     16      17.5691      0.00000
     17      25.6404      0.00000
     18      26.1088      0.00000
     19      28.2295      0.00000
     20      28.6789      0.00000
     21      31.8609      0.00000
     22      32.6238      0.00000
     23      42.6583      0.00000
     24      43.2524      0.00000
     25      47.2773      0.00000
     26      47.7474      0.00000
     27      49.1227      0.00000
     28      49.5592      0.00000
     29      51.9326      0.00000
     30      52.3037      0.00000
     31      54.4481      0.00000
     32      54.7031      0.00000
     33      55.3096      0.00000
     34      55.9796      0.00000
     35      58.3809      0.00000
     36      58.8301      0.00000
     37      60.1271      0.00000
     38      60.8298      0.00000
     39      64.6339      0.00000
     40      64.6445      0.00000


--------------------------------------------------------------------------------------------------------


 soft charge-density along one line, spin component           1
         0         1         2         3         4         5         6         7         8         9
x     7.7455    0.0000    0.1163   -0.2015   -0.0612   -0.1059    0.0137   -0.0000    0.0020   -0.0034
x     0.0000    0.0000
y     7.7455    0.0000    0.1163    0.2015   -0.0612    0.1059    0.0137    0.0000    0.0020    0.0034
y     0.0000    0.0000
z     7.7455    0.0000    0.0000    0.0000    0.7744    0.0000    0.0000    0.0000   -0.1878   -0.0000
z     0.0000    0.0000    0.0013   -0.0000    0.0000   -0.0000    0.0125    0.0000    0.0000    0.0000
 total charge-density along one line
x    16.0000    0.0000    1.5345   -2.6578    0.3399    0.5887    0.0547   -0.0000   -0.0001    0.0001
x     0.0007    0.0012   -0.0013    0.0000    0.0002   -0.0002   -0.0001   -0.0001    0.0002   -0.0000
x    -0.0001    0.0000
y    16.0000    0.0000    1.5345    2.6578    0.3399   -0.5887    0.0547    0.0000   -0.0001   -0.0001
y     0.0007   -0.0012   -0.0013   -0.0000    0.0002    0.0002   -0.0001    0.0001    0.0002    0.0000
y    -0.0001   -0.0000
z    16.0000    0.0000   -0.0000    0.0000    6.6758   -0.0000   -0.0000    0.0000    1.7462   -0.0000
z    -0.0000   -0.0000    0.1283   -0.0000   -0.0000    0.0000   -0.0088   -0.0000   -0.0000   -0.0000
z     0.0070   -0.0000    0.0000    0.0000   -0.0026   -0.0000    0.0000    0.0000    0.0011    0.0000
z     0.0000   -0.0000   -0.0005   -0.0000    0.0000    0.0000    0.0004   -0.0000
 
 pseudopotential strength for first ion, spin component:           1
 -5.068  -0.000  -0.000   0.000  -0.000  -5.615  -0.000  -0.000
 -0.000  -5.059   0.000  -0.000  -0.000  -0.000  -5.605   0.000
 -0.000   0.000  -5.067  -0.000  -0.000  -0.000   0.000  -5.613
  0.000  -0.000  -0.000  -5.059  -0.000   0.000  -0.000  -0.000
 -0.000  -0.000  -0.000  -0.000  -5.068  -0.000  -0.000  -0.000
 -5.615  -0.000  -0.000   0.000  -0.000  -6.119  -0.000  -0.000
 -0.000  -5.605   0.000  -0.000  -0.000  -0.000  -6.110   0.000
 -0.000   0.000  -5.613  -0.000  -0.000  -0.000   0.000  -6.118
  0.000  -0.000  -0.000  -5.605  -0.000   0.000  -0.000  -0.000
 -0.000  -0.000  -0.000  -0.000  -5.615  -0.000  -0.000  -0.000
  0.000  -0.000   0.001   0.000  -0.000   0.000  -0.000   0.001
  0.000  -0.000   0.002   0.000  -0.000   0.000  -0.000   0.001
 -0.000   0.000  -0.000   0.000  -0.000  -0.000   0.000  -0.000
  0.000  -0.000   0.000  -0.000   0.000   0.000  -0.000   0.000
 -0.000   0.000   0.000   0.000  -0.000  -0.000   0.000   0.000
 -0.000   0.000   0.000   0.000  -0.001  -0.000   0.000   0.000
  0.000  -0.000   0.000  -0.000   0.000   0.000  -0.000   0.000
 -0.001   0.000   0.000   0.000  -0.000  -0.001   0.000   0.000
 total augmentation occupancy for first ion, spin component:           1
  1.485  -0.000   0.000   0.000   0.000  -0.682   0.000  -0.000   0.000   0.000   0.000  -0.000   0.000  -0.000   0.026  -0.000
 -0.000   2.118  -0.000  -0.000   0.000  -0.000  -1.011   0.000   0.000   0.000   0.000   0.000   0.000   0.000   0.000   0.000
  0.000   0.000   1.262   0.000  -0.000  -0.000   0.000  -0.461  -0.000   0.000   0.083  -0.015   0.000   0.000   0.000   0.000
  0.000  -0.000  -0.000   2.118  -0.000   0.000   0.000   0.000  -1.011   0.000   0.000  -0.000  -0.000   0.000  -0.000   0.000
 -0.000   0.000  -0.000  -0.000   1.485   0.000   0.000   0.000   0.000  -0.682   0.000   0.000   0.026   0.000  -0.000  -0.001
 -0.682  -0.000  -0.000   0.000  -0.000   1.240   0.000   0.000  -0.000   0.000  -0.000   0.000  -0.000  -0.000  -0.037   0.000
 -0.000  -1.011  -0.000   0.000   0.000   0.000   1.236   0.000  -0.000   0.000   0.000   0.000  -0.000   0.000   0.000   0.000
 -0.000   0.000  -0.461  -0.000   0.000   0.000  -0.000   0.999  -0.000  -0.000  -0.191   0.018   0.000   0.000  -0.000  -0.000
  0.000   0.000   0.000  -1.011   0.000   0.000  -0.000  -0.000   1.236   0.000  -0.000   0.000  -0.000   0.000   0.000   0.000
 -0.000   0.000   0.000   0.000  -0.682   0.000   0.000  -0.000   0.000   1.240   0.000  -0.000  -0.037   0.000   0.000   0.003
  0.000  -0.000   0.083  -0.000   0.000  -0.000  -0.000  -0.191  -0.000   0.000   2.375  -0.257   0.000   0.000  -0.000   0.000
 -0.000   0.000  -0.015  -0.000   0.000   0.000   0.000   0.018   0.000  -0.000  -0.257   0.032   0.000   0.000  -0.000   0.000
  0.000   0.000   0.000  -0.000   0.026  -0.000  -0.000   0.000   0.000  -0.037   0.000  -0.000   0.304   0.000  -0.000  -0.024
 -0.000   0.000   0.000   0.000   0.000   0.000  -0.000   0.000   0.000   0.000   0.000   0.000   0.000   0.266  -0.000  -0.000
  0.026  -0.000   0.000   0.000  -0.000  -0.037   0.000  -0.000   0.000   0.000  -0.000   0.000  -0.000  -0.000   0.304   0.000
 -0.000   0.000  -0.000   0.000  -0.001   0.000   0.000   0.000   0.000   0.003  -0.000  -0.000  -0.024   0.000   0.000   0.002
 -0.000   0.000   0.000   0.000  -0.000   0.000   0.000   0.000  -0.000   0.000   0.000   0.000   0.000  -0.024  -0.000  -0.000
 -0.001  -0.000   0.000   0.000   0.000   0.003   0.000   0.000   0.000  -0.000   0.000   0.000   0.000   0.000  -0.024  -0.000


------------------------ aborting loop because EDIFF is reached ----------------------------------------


    CHARGE:  cpu time    0.0196: real time    0.0196
    FORLOC:  cpu time    0.0002: real time    0.0002
    FORNL :  cpu time    0.1056: real time    0.1056
    STRESS:  cpu time    0.1558: real time    0.1558
    FORCOR:  cpu time    0.0034: real time    0.0034
    FORHAR:  cpu time    0.0007: real time    0.0007
    MIXING:  cpu time    0.0002: real time    0.0002

  FORCE on cell =-STRESS in cart. coord.  units (eV):
  Direction    XX          YY          ZZ          XY          YZ          ZX
  --------------------------------------------------------------------------------------
  Alpha Z   122.59279   122.59279   122.59279
  Ewald    -372.17625  -372.17625  -440.24225     0.00000     0.00000     0.00000
  Hartree    72.48597    72.48598    44.61338    -0.00000    -0.00000    -0.00000
  E(xc)     -77.71652   -77.71666   -77.40599     0.00038     0.00000    -0.00000
  Local      84.94271    84.94296   178.27087    -0.00093     0.00000     0.00000
  n-local   -54.68772   -53.56206   -56.68653    -3.69306     1.31054     0.79239
  augment    76.01978    76.01882    76.34268     0.00143    -0.00000    -0.00000
  Kinetic   150.43857   143.96996   145.44422     1.90624    -0.70565     0.40085
  Fock        0.00000     0.00000     0.00000     0.00000     0.00000     0.00000
  -------------------------------------------------------------------------------------
  Total      -0.77256    -0.77256    -7.07084     0.00000     0.00000     0.00000
  in kB     -54.88844   -54.88844  -502.36816     0.00000     0.00000     0.00000
  external pressure =     -204.05 kB  Pullay stress =        0.00 kB


 VOLUME and BASIS-vectors are now :
 -----------------------------------------------------------------------------
  energy-cutoff  :      280.00
  volume of cell :       22.55
      direct lattice vectors                 reciprocal lattice vectors
     2.423200000  0.000000000  0.000000000     0.412677451  0.238259438  0.000000000
    -1.211600000  2.098552758  0.000000000     0.000000000  0.476518875  0.000000000
     0.000000000  0.000000000  4.434560000     0.000000000  0.000000000  0.225501515

  length of vectors
     2.423200000  2.423200000  4.434560000     0.476518875  0.476518875  0.225501515


 FORCES acting on ions
    electron-ion (+dipol)            ewald-force                    non-local-force                 convergence-correction
 -----------------------------------------------------------------------------------------------
   0.202E-05 -.157E-05 -.505E-15   0.451E-12 -.219E-12 -.229E-13   0.109E-16 0.151E-17 0.405E-19   -.191E-08 0.102E-08 -.351E-14
   0.117E-04 0.513E-05 0.274E-12   -.454E-12 0.217E-12 0.229E-13   -.119E-16 0.296E-17 -.130E-19   0.189E-08 -.996E-09 0.777E-13
 -----------------------------------------------------------------------------------------------
   0.137E-04 0.356E-05 0.274E-12   -.265E-14 -.195E-14 -.137E-16   -.107E-17 0.447E-17 0.275E-19   -.177E-10 0.278E-10 0.742E-13
 
 
 POSITION                                       TOTAL-FORCE (eV/Angst)
 -----------------------------------------------------------------------------------
      0.00000      0.00000      0.00000        -0.000000      0.000000      0.000000
      0.00000      1.39904      2.21728         0.000000     -0.000000     -0.000000
 -----------------------------------------------------------------------------------
    total drift:                                0.000014      0.000004      0.000000


--------------------------------------------------------------------------------------------------------



  FREE ENERGIE OF THE ION-ELECTRON SYSTEM (eV)
  ---------------------------------------------------
  free  energy   TOTEN  =       -15.81233778 eV

  energy  without entropy=      -15.81538325  energy(sigma->0) =      -15.81335294
 


--------------------------------------------------------------------------------------------------------


    POTLOK:  cpu time    0.0055: real time    0.0055


--------------------------------------------------------------------------------------------------------


 writing wavefunctions
     LOOP+:  cpu time   10.1459: real time   10.1649
    4ORBIT:  cpu time    0.0000: real time    0.0000

 total amount of memory used by VASP MPI-rank0    52028. kBytes
=======================================================================

   base      :      30000. kBytes
   nonl-proj :       3491. kBytes
   grid      :        812. kBytes
   one-center:         31. kBytes
   wavefun   :      17694. kBytes
 
  
  
 General timing and accounting informations for this job:
 ========================================================
  
                  Total CPU time used (sec):       10.341
                            User time (sec):       10.301
                          System time (sec):        0.040
                         Elapsed time (sec):       10.349
  
                   Maximum memory used (kb):       57432.
                   Average memory used (kb):          N/A
  
                          Minor page faults:         7885
                          Major page faults:            0
                 Voluntary context switches:           26
