 vasp.6.2.0 18Jan21 (build Mar 17 2021 09:06:54) complex                        
  
 POSCAR found type information on POSCAR Fe
 POSCAR found :  1 types and       2 ions
 LDA part: xc-table for Pade appr. of Perdew
 POSCAR, INCAR and KPOINTS ok, starting setup
 FFT: planning ...
 WAVECAR not read
 WARNING: chargedensity file is incomplete
 entering main loop
       N       E                     dE             d eps       ncg     rms          rms(c)
DAV:   1     0.608575307330E+02    0.60858E+02   -0.28619E+03  9096   0.312E+02
DAV:   2    -0.143737170784E+02   -0.75231E+02   -0.63867E+02  7912   0.934E+01
DAV:   3    -0.189782849239E+02   -0.46046E+01   -0.43302E+01  9464   0.242E+01
DAV:   4    -0.190038007577E+02   -0.25516E-01   -0.25496E-01  9192   0.188E+00
DAV:   5    -0.190038548026E+02   -0.54045E-04   -0.54043E-04  9320   0.811E-02    0.156E+01
DAV:   6    -0.161767719625E+02    0.28271E+01   -0.23524E+00 11104   0.268E+01    0.400E+00
DAV:   7    -0.158465480735E+02    0.33022E+00   -0.21002E-01 10216   0.723E+00    0.101E+00
DAV:   8    -0.158223552974E+02    0.24193E-01   -0.54948E-03 10216   0.494E-01    0.454E-01
DAV:   9    -0.158123188902E+02    0.10036E-01   -0.85678E-04 11352   0.169E-01    0.670E-02
DAV:  10    -0.158123412572E+02   -0.22367E-04   -0.44141E-05  9344   0.261E-02    0.317E-02
DAV:  11    -0.158123379492E+02    0.33080E-05   -0.75670E-07  9432   0.577E-03    0.161E-03
DAV:  12    -0.158123377844E+02    0.16479E-06   -0.17323E-08  5936   0.648E-04
   1 F= -.15812338E+02 E0= -.15813353E+02  d E =0.304546E-02
 writing wavefunctions
