unknown system                          
   1.00000000000000     
     2.330000    0.000000    0.000000
    -1.165000    2.017839    0.000000
     0.000000    0.000000    4.223000
   Fe
     2
Direct
  0.000000  0.000000  0.000000
  0.333333  0.666667  0.500000
 
   20   20   36
 0.16678765274E+03 0.15803794023E+03 0.13451016238E+03 0.10291035712E+03 0.70756745908E+02
 0.43765534262E+02 0.24873956421E+02 0.14345724291E+02 0.10203660107E+02 0.90685744047E+01
 0.87187986435E+01 0.90687475695E+01 0.10203810035E+02 0.14345700403E+02 0.24873827490E+02
 0.43765481351E+02 0.70756831460E+02 0.10291047163E+03 0.13451019282E+03 0.15803791060E+03
 0.15804391262E+03 0.15803784364E+03 0.14193480265E+03 0.11455809022E+03 0.83103683022E+02
 0.54160037234E+02 0.31959899909E+02 0.18026082924E+02 0.11435058649E+02 0.93855970258E+01
 0.87194977858E+01 0.87190743523E+01 0.93851675092E+01 0.11435492801E+02 0.18026248398E+02
 0.31958354383E+02 0.54158713624E+02 0.83107564726E+02 0.11456938840E+03 0.14194823526E+03
 0.13451909012E+03 0.14191734386E+03 0.13451018806E+03 0.11455818582E+03 0.87671786757E+02
 0.60256516039E+02 0.37316531539E+02 0.21482066264E+02 0.12928932599E+02 0.97243839838E+01
 0.87515233476E+01 0.84228376890E+01 0.87505424614E+01 0.97242404401E+01 0.12929778940E+02
 0.21481341237E+02 0.37312971308E+02 0.60253757786E+02 0.87675301354E+02 0.11456807512E+03
 0.10290651618E+03 0.11449999269E+03 0.11450133778E+03 0.10291054053E+03 0.83103647722E+02
 0.60256434915E+02 0.39311846628E+02 0.23575699993E+02 0.14172432126E+02 0.10096758051E+02
 0.88000015344E+01 0.82129473962E+01 0.82125575124E+01 0.87995992613E+01 0.10097437330E+02
 0.14173645853E+02 0.23575287488E+02 0.39308236300E+02 0.60250397946E+02 0.83097607257E+02
 0.70744301419E+02 0.83014523241E+02 0.87554570798E+02 0.83024433551E+02 0.70756752660E+02
 0.54159875748E+02 0.37316575046E+02 0.23575759577E+02 0.14656415477E+02 0.10354445471E+02
 0.88431336231E+01 0.80914103004E+01 0.78328407185E+01 0.80915169783E+01 0.88432231362E+01
 0.10355289341E+02 0.14659127325E+02 0.23579242938E+02 0.37316604046E+02 0.54152711605E+02
 0.43764230485E+02 0.54087582716E+02 0.60130774913E+02 0.60134108919E+02 0.54093532683E+02
 0.43765446862E+02 0.31959907450E+02 0.21482192240E+02 0.14172380692E+02 0.10354406782E+02
 0.88603910592E+01 0.80395524928E+01 0.76187094627E+01 0.76191049995E+01 0.80396291162E+01
 0.88591490133E+01 0.10354038475E+02 0.14176350437E+02 0.21489907392E+02 0.31965607267E+02
 0.24882724792E+02 0.31938540920E+02 0.37248413894E+02 0.39220538550E+02 0.37244821606E+02
 0.31931354765E+02 0.24873891175E+02 0.18026168485E+02 0.12928909988E+02 0.10096668754E+02
 0.88431948940E+01 0.80395773377E+01 0.75510250413E+01 0.73927757152E+01 0.75517929222E+01
 0.80386747801E+01 0.88395903978E+01 0.10093185350E+02 0.12929778940E+02 0.18032546946E+02
 0.14345279566E+02 0.18040845891E+02 0.21487553899E+02 0.23563271598E+02 0.23559336407E+02
 0.21479022666E+02 0.18034561054E+02 0.14345708519E+02 0.11435110483E+02 0.97243063940E+01
 0.88000403374E+01 0.80914723155E+01 0.76186348049E+01 0.73927547562E+01 0.73934930816E+01
 0.76199350288E+01 0.80910961416E+01 0.87960646479E+01 0.97173459869E+01 0.11429069945E+02
 0.10194053676E+02 0.11456417322E+02 0.12973339168E+02 0.14225408995E+02 0.14708882806E+02
 0.14222726477E+02 0.12973317756E+02 0.11462751603E+02 0.10203728259E+02 0.93855853963E+01
 0.87514835594E+01 0.82130113726E+01 0.78327843981E+01 0.76190556416E+01 0.75518840983E+01
 0.76199603287E+01 0.78356143999E+01 0.82165129625E+01 0.87514015184E+01 0.93791654903E+01
 0.90683252188E+01 0.94121392921E+01 0.97796226905E+01 0.10177131755E+02 0.10449307765E+02
 0.10450570676E+02 0.10181406910E+02 0.97865177148E+01 0.94180852348E+01 0.90686339145E+01
 0.87194247282E+01 0.84228606586E+01 0.82125890219E+01 0.80914708015E+01 0.80397031586E+01
 0.80387239775E+01 0.80909879497E+01 0.82164804956E+01 0.84305753295E+01 0.87254987219E+01
 0.87276959458E+01 0.87603418624E+01 0.88202914137E+01 0.88948091380E+01 0.89593572581E+01
 0.89865726386E+01 0.89629226544E+01 0.88983300236E+01 0.88195323318E+01 0.87540269606E+01
 0.87187786295E+01 0.87190372742E+01 0.87506245024E+01 0.87995846040E+01 0.88431948940E+01
 0.88591750900E+01 0.88395008847E+01 0.87960111876E+01 0.87515233476E+01 0.87255347015E+01
 0.90681972542E+01 0.87603107256E+01 0.85020793233E+01 0.83239100273E+01 0.82280724413E+01
 0.81927220162E+01 0.81936282123E+01 0.82284102483E+01 0.83199514927E+01 0.84944596318E+01
 0.87544390078E+01 0.90686791147E+01 0.93852082458E+01 0.97242627078E+01 0.10097342435E+02
 0.10355280498E+02 0.10354068321E+02 0.10093179752E+02 0.97174458444E+01 0.93792178564E+01
 0.10193951295E+02 0.94121002883E+01 0.88204148987E+01 0.83239269854E+01 0.79793563446E+01
 0.77904449530E+01 0.77323377341E+01 0.77896700319E+01 0.79766008885E+01 0.83203286432E+01
 0.88203438411E+01 0.94185075855E+01 0.10203775807E+02 0.11435531319E+02 0.12929721497E+02
 0.14173631558E+02 0.14659236706E+02 0.14176387576E+02 0.12929744109E+02 0.11429056630E+02
 0.14345320503E+02 0.11456446079E+02 0.97797179440E+01 0.88948214580E+01 0.82279646482E+01
 0.77904480920E+01 0.75840935905E+01 0.75834170282E+01 0.77892662440E+01 0.82283836108E+01
 0.88986989148E+01 0.97864991520E+01 0.11462347815E+02 0.14345725567E+02 0.18026275743E+02
 0.21481345162E+02 0.23575355790E+02 0.23579251655E+02 0.21489785342E+02 0.18032488731E+02
 0.24882853723E+02 0.18040908902E+02 0.12973293145E+02 0.10177092521E+02 0.89592787361E+01
 0.81927438350E+01 0.77324211760E+01 0.75833947609E+01 0.77315262247E+01 0.81935461034E+01
 0.89629226544E+01 0.10180689518E+02 0.12972458699E+02 0.18034435259E+02 0.24873891175E+02
 0.31958361542E+02 0.37312942308E+02 0.39308186220E+02 0.37316531539E+02 0.31965606887E+02
 0.43764300333E+02 0.31938526933E+02 0.21487427198E+02 0.14225360280E+02 0.10449356692E+02
 0.89866164075E+01 0.81936827220E+01 0.77896179514E+01 0.77892110244E+01 0.81935787943E+01
 0.89878414639E+01 0.10449759098E+02 0.14221492548E+02 0.21479835758E+02 0.31932885223E+02
 0.43765463800E+02 0.54158641819E+02 0.60253713394E+02 0.60250434678E+02 0.54152801287E+02
 0.70744254608E+02 0.54087468531E+02 0.37248353578E+02 0.23563306058E+02 0.14708997211E+02
 0.10450590621E+02 0.89628727336E+01 0.82283684361E+01 0.79765738565E+01 0.82284495918E+01
 0.89629512556E+01 0.10449730115E+02 0.14706147865E+02 0.23559757244E+02 0.37248415604E+02
 0.54094783549E+02 0.70756791401E+02 0.83107603172E+02 0.87675380755E+02 0.83097681003E+02
 0.10290643211E+03 0.83014437893E+02 0.60130830778E+02 0.39220658341E+02 0.23559381043E+02
 0.14222669194E+02 0.10181312577E+02 0.88983426845E+01 0.83200019710E+01 0.83203621633E+01
 0.88986992557E+01 0.10180634418E+02 0.14221483980E+02 0.23559767420E+02 0.39224167035E+02
 0.60136783067E+02 0.83020508537E+02 0.10291057097E+03 0.11456942612E+03 0.11456801726E+03
 0.13451905968E+03 0.11450006600E+03 0.87554654306E+02 0.60134184669E+02 0.37244759581E+02
 0.21478914365E+02 0.12973293145E+02 0.97865930610E+01 0.88196033893E+01 0.84944232679E+01
 0.88202914137E+01 0.97864792448E+01 0.12972480111E+02 0.21479854157E+02 0.37248413894E+02
 0.60136802952E+02 0.87550938060E+02 0.11449010343E+03 0.13451018806E+03 0.14194808358E+03
 0.15804392760E+03 0.14191752531E+03 0.11450135754E+03 0.83024350273E+02 0.54093455897E+02
 0.31931305638E+02 0.18034626495E+02 0.11462837232E+02 0.94180876541E+01 0.87539462093E+01
 0.87543893933E+01 0.94185490086E+01 0.11462404688E+02 0.18034437688E+02 0.31932850084E+02
 0.54094820947E+02 0.83020510607E+02 0.11449004988E+03 0.14190404120E+03 0.15803782898E+03
 0.15788154475E+03 0.14960645947E+03 0.12733904722E+03 0.97401103127E+02 0.66923541226E+02
 0.41374993538E+02 0.23582356196E+02 0.13772564239E+02 0.99801222344E+01 0.89129769843E+01
 0.85721345916E+01 0.89131438277E+01 0.99802664601E+01 0.13772540435E+02 0.23582230487E+02
 0.41374940705E+02 0.66923622155E+02 0.97401212917E+02 0.12733907689E+03 0.14960643144E+03
 0.14961200781E+03 0.14960636513E+03 0.13436642624E+03 0.10843443973E+03 0.78617521091E+02
 0.51193933726E+02 0.30228174338E+02 0.17173307193E+02 0.11089587349E+02 0.92159697041E+01
 0.85669824335E+01 0.85665722562E+01 0.92155530691E+01 0.11090026586E+02 0.17173551817E+02
 0.30226825140E+02 0.51192733507E+02 0.78621107680E+02 0.10844491375E+03 0.13437890426E+03
 0.12734734687E+03 0.13435374624E+03 0.12733907211E+03 0.10843453304E+03 0.82944656104E+02
 0.56959087814E+02 0.35266626049E+02 0.20385969793E+02 0.12446063596E+02 0.95214718118E+01
 0.85942456325E+01 0.82754965402E+01 0.85932898056E+01 0.95213135310E+01 0.12446890328E+02
 0.20385371082E+02 0.35263358893E+02 0.56956506176E+02 0.82947881152E+02 0.10844370341E+03
 0.97397554514E+02 0.10838989967E+03 0.10839114244E+03 0.97401282166E+02 0.78617486970E+02
 0.56959008702E+02 0.37145769677E+02 0.22338418241E+02 0.13582712654E+02 0.98502878432E+01
 0.86391963690E+01 0.80706187200E+01 0.80702428573E+01 0.86387895502E+01 0.98508810703E+01
 0.13583804596E+02 0.22337999637E+02 0.37142381657E+02 0.56953377874E+02 0.78611872911E+02
 0.66912014493E+02 0.78550391433E+02 0.82857322867E+02 0.78559583211E+02 0.66923548075E+02
 0.51193776225E+02 0.35266668072E+02 0.22338476258E+02 0.14026546390E+02 0.10078379687E+02
 0.86801174377E+01 0.79525515702E+01 0.77037229444E+01 0.79526758089E+01 0.86802044467E+01
 0.10079113011E+02 0.14028984831E+02 0.22341658040E+02 0.35266696575E+02 0.51187157141E+02
 0.41373812757E+02 0.51146907807E+02 0.56874644105E+02 0.56877747582E+02 0.51152434330E+02
 0.41374908228E+02 0.30228181357E+02 0.20386092526E+02 0.13582662961E+02 0.10078342129E+02
 0.86966112894E+01 0.79023288357E+01 0.74980039139E+01 0.74984058072E+01 0.79024662433E+01
 0.86954903359E+01 0.10077985063E+02 0.13586335051E+02 0.20393285734E+02 0.30233529453E+02
 0.23590500467E+02 0.30230263252E+02 0.35241914235E+02 0.37105713200E+02 0.35238613293E+02
 0.30223621685E+02 0.23582292640E+02 0.17173390732E+02 0.12446041942E+02 0.98502010023E+01
 0.86801767217E+01 0.79023528459E+01 0.74331299347E+01 0.72816811123E+01 0.74338784787E+01
 0.79015605751E+01 0.86768667647E+01 0.98470003877E+01 0.12446890328E+02 0.17179350463E+02
 0.13772113970E+02 0.17207800667E+02 0.20430203030E+02 0.22376740469E+02 0.22373099774E+02
 0.20422318724E+02 0.17202013949E+02 0.13772549170E+02 0.11089637832E+02 0.95213960218E+01
 0.86392337696E+01 0.79526117295E+01 0.74979314918E+01 0.72816608700E+01 0.72823298569E+01
 0.74991072900E+01 0.79522493439E+01 0.86355576120E+01 0.95149532916E+01 0.11084023755E+02
 0.99711592874E+01 0.11127632441E+02 0.12522966158E+02 0.13680196678E+02 0.14128148531E+02
 0.13677687115E+02 0.12522945252E+02 0.11133550161E+02 0.99801883706E+01 0.92159578804E+01
 0.85942068199E+01 0.80706812385E+01 0.77036684296E+01 0.74983579568E+01 0.74339671277E+01
 0.74991318616E+01 0.77062234335E+01 0.80739012604E+01 0.85941269986E+01 0.92099767032E+01
 0.89127362811E+01 0.92565575145E+01 0.96039583736E+01 0.99682943738E+01 0.10216611409E+02
 0.10217752580E+02 0.99722004859E+01 0.96103207747E+01 0.92620795873E+01 0.89130346614E+01
 0.85669114885E+01 0.82755195127E+01 0.80702736919E+01 0.79526306480E+01 0.79025381129E+01
 0.79016084345E+01 0.79521440236E+01 0.80738695765E+01 0.82826907912E+01 0.85725561687E+01
 0.85804045714E+01 0.86197261457E+01 0.86863311998E+01 0.87661870973E+01 0.88339317043E+01
 0.88620599908E+01 0.88372065354E+01 0.87694073446E+01 0.86855896923E+01 0.86138462074E+01
 0.85721152811E+01 0.85665365237E+01 0.85933696269E+01 0.86387747228E+01 0.86801767217E+01
 0.86955159234E+01 0.86767797557E+01 0.86355053841E+01 0.85942456325E+01 0.85725913812E+01
 0.89126116857E+01 0.86196955936E+01 0.83762634782E+01 0.82100760662E+01 0.81219507523E+01
 0.80900891549E+01 0.80909483831E+01 0.81222966146E+01 0.82064130111E+01 0.83691806052E+01
 0.86142440878E+01 0.89130769093E+01 0.92155925818E+01 0.95213348554E+01 0.98507885804E+01
 0.10079104778E+02 0.10078014389E+02 0.98469947386E+01 0.95150504060E+01 0.92100280396E+01
 0.99710597006E+01 0.92565190988E+01 0.86864513757E+01 0.82100927984E+01 0.78808978622E+01
 0.77009306954E+01 0.76456851611E+01 0.77002816459E+01 0.78784140317E+01 0.82067783097E+01
 0.86863822462E+01 0.92624871339E+01 0.99802330096E+01 0.11090064297E+02 0.12446834496E+02
 0.13583790909E+02 0.14029091518E+02 0.13586371058E+02 0.12446856150E+02 0.11084010983E+02
 0.13772154043E+02 0.11127660243E+02 0.96040510112E+01 0.87661995155E+01 0.81218459462E+01
 0.77009336213E+01 0.75028394670E+01 0.75022293074E+01 0.76998714497E+01 0.81222517169E+01
 0.87697849591E+01 0.96103234244E+01 0.11133139965E+02 0.13772565439E+02 0.17173578649E+02
 0.20385374774E+02 0.22338066062E+02 0.22341666448E+02 0.20393166693E+02 0.17179293756E+02
 0.23590626176E+02 0.17207862126E+02 0.12522921217E+02 0.99682563913E+01 0.88338553982E+01
 0.80901101174E+01 0.76457661923E+01 0.75022076252E+01 0.76448926072E+01 0.80908047301E+01
 0.88372065354E+01 0.99715712938E+01 0.12522108059E+02 0.17201809130E+02 0.23582292640E+02
 0.30226831764E+02 0.35263330390E+02 0.37142332920E+02 0.35266626049E+02 0.30233529058E+02
 0.41373880729E+02 0.30230249710E+02 0.20430079567E+02 0.13680149181E+02 0.10216659092E+02
 0.88621023735E+01 0.80910012815E+01 0.77002310078E+01 0.76998178857E+01 0.80908366660E+01
 0.88632053823E+01 0.10217047317E+02 0.13676574305E+02 0.20423005069E+02 0.30224956774E+02
 0.41374923366E+02 0.51192663415E+02 0.56956463109E+02 0.56953413919E+02 0.51187244551E+02
 0.66911968696E+02 0.51146796486E+02 0.35241855495E+02 0.22376773953E+02 0.14128259920E+02
 0.10217771901E+02 0.88371579491E+01 0.81222561425E+01 0.78783878652E+01 0.81223160509E+01
 0.88372342552E+01 0.10217018956E+02 0.14125683173E+02 0.22373526239E+02 0.35241915843E+02
 0.51153562278E+02 0.66923583207E+02 0.78621145374E+02 0.82947958655E+02 0.78611944725E+02
 0.97397472452E+02 0.78550308233E+02 0.56874698595E+02 0.37105829940E+02 0.22373143277E+02
 0.13677631315E+02 0.99721087122E+01 0.87694199946E+01 0.82064621231E+01 0.82068106895E+01
 0.87697851909E+01 0.99715175026E+01 0.13676566002E+02 0.22373536259E+02 0.37109121595E+02
 0.56880250309E+02 0.78555952536E+02 0.97401309894E+02 0.10844495042E+03 0.10844364677E+03
 0.12734731720E+03 0.10838997134E+03 0.82857404351E+02 0.56877821409E+02 0.35238552944E+02
 0.20422213269E+02 0.12522921217E+02 0.96103943036E+01 0.86856588218E+01 0.83691446909E+01
 0.86863311998E+01 0.96103043157E+01 0.12522128965E+02 0.20423023077E+02 0.35241914235E+02
 0.56880269646E+02 0.82853985186E+02 0.10838073054E+03 0.12733907211E+03 0.13437875609E+03
 0.14961202245E+03 0.13435392346E+03 0.10839116186E+03 0.78559501885E+02 0.51152359462E+02
 0.30223573924E+02 0.17202077504E+02 0.11133633416E+02 0.92620820752E+01 0.86137673186E+01
 0.86141957510E+01 0.92625280375E+01 0.11133195417E+02 0.17201811226E+02 0.30224922555E+02
 0.51153598731E+02 0.78555954410E+02 0.10838067829E+03 0.13434139656E+03 0.14960635174E+03
 0.13397053004E+03 0.12695380587E+03 0.10803977796E+03 0.82553488213E+02 0.56604578614E+02
 0.34981627050E+02 0.20179353306E+02 0.12298271751E+02 0.94031724093E+01 0.84877738808E+01
 0.81740571227E+01 0.84879233935E+01 0.94033010177E+01 0.12298248334E+02 0.20179236898E+02
 0.34981575204E+02 0.56604647642E+02 0.82553585429E+02 0.10803980544E+03 0.12695378200E+03
 0.12695822690E+03 0.12695371806E+03 0.11400798838E+03 0.91936295044E+02 0.66529219276E+02
 0.43232201961E+02 0.25629392351E+02 0.14953040314E+02 0.10206368586E+02 0.87501056471E+01
 0.81503517644E+01 0.81499807054E+01 0.87497272491E+01 0.10206812743E+02 0.14953473696E+02
 0.25628544177E+02 0.43231322286E+02 0.66532025880E+02 0.91944584063E+02 0.11401793002E+03
 0.10804640688E+03 0.11400851327E+03 0.10803980061E+03 0.91936381769E+02 0.70204805926E+02
 0.48095425811E+02 0.29801228650E+02 0.17510488046E+02 0.11206005157E+02 0.89859586397E+01
 0.81617553748E+01 0.78721419682E+01 0.81608761438E+01 0.89857665634E+01 0.11206770166E+02
 0.17510207637E+02 0.29798730946E+02 0.48093317703E+02 0.70207270259E+02 0.91943644890E+02
 0.82550712554E+02 0.91928938944E+02 0.91929911542E+02 0.82553654621E+02 0.66529188516E+02
 0.48095352500E+02 0.31363721743E+02 0.19081098489E+02 0.12061085388E+02 0.92110990671E+01
 0.81942790845E+01 0.76794104903E+01 0.76790752130E+01 0.81938681930E+01 0.92114726582E+01
 0.12061862153E+02 0.19080672197E+02 0.31360932838E+02 0.48090806513E+02 0.66524708113E+02
 0.56595483676E+02 0.66522220453E+02 0.70199137520E+02 0.66529505675E+02 0.56604585703E+02
 0.43232055950E+02 0.29801266437E+02 0.19081151988E+02 0.12398492647E+02 0.93660309124E+01
 0.82270558517E+01 0.75692218840E+01 0.73478190722E+01 0.75693871405E+01 0.82271356463E+01
 0.93664825845E+01 0.12400223551E+02 0.19083545072E+02 0.29801293474E+02 0.43226877395E+02
 0.34980765680E+02 0.43254542428E+02 0.48123675737E+02 0.48126164836E+02 0.43258943345E+02
 0.34981547766E+02 0.25629397899E+02 0.17510601422E+02 0.12061040672E+02 0.93659966077E+01
 0.82406763000E+01 0.75224636221E+01 0.71641281775E+01 0.71645386257E+01 0.75227465546E+01
 0.82398692480E+01 0.93656730598E+01 0.12063925503E+02 0.17516401227E+02 0.25633798593E+02
 0.20185838336E+02 0.25695900149E+02 0.29895473981E+02 0.31464042966E+02 0.29892938957E+02
 0.25690698252E+02 0.20179294604E+02 0.14953118000E+02 0.11205986237E+02 0.92110193094E+01
 0.82271094489E+01 0.75224852395E+01 0.71065355161E+01 0.69736209683E+01 0.71072239710E+01
 0.75219747920E+01 0.82245731184E+01 0.92085620210E+01 0.11206770166E+02 0.14957956350E+02
 0.12297815411E+02 0.15042829367E+02 0.17662586076E+02 0.19260333866E+02 0.19257472415E+02
 0.17656411643E+02 0.15038354467E+02 0.12298258691E+02 0.10206415192E+02 0.89858880709E+01
 0.81943124815E+01 0.75692767047E+01 0.71640621798E+01 0.69736027767E+01 0.69740916535E+01
 0.71649152272E+01 0.75689542174E+01 0.81914282410E+01 0.89808154217E+01 0.10201934927E+02
 0.93959297665E+01 0.10292782617E+02 0.11376340932E+02 0.12285964103E+02 0.12640528144E+02
 0.12283918546E+02 0.11376321498E+02 0.10297584722E+02 0.94032327677E+01 0.87500933135E+01
 0.81617193788E+01 0.76794687727E+01 0.73477697334E+01 0.71644951029E+01 0.71073053289E+01
 0.71649377022E+01 0.73496117872E+01 0.76819480880E+01 0.81616459567E+01 0.87452823571E+01
 0.84875587000E+01 0.88332023898E+01 0.91504867862E+01 0.94421899930E+01 0.96345331905E+01
 0.96353585493E+01 0.94451309785E+01 0.91554436049E+01 0.88375976974E+01 0.84878262990E+01
 0.81502868814E+01 0.78721648771E+01 0.76791040791E+01 0.75693449343E+01 0.75228121710E+01
 0.75220187910E+01 0.75688571904E+01 0.76819186718E+01 0.78778907265E+01 0.81547902909E+01
 0.81806585610E+01 0.82404578342E+01 0.83272290346E+01 0.84233719865E+01 0.85010647260E+01
 0.85321483285E+01 0.85035758793E+01 0.84258051668E+01 0.83265433491E+01 0.82357377520E+01
 0.81740398104E+01 0.81499488062E+01 0.81609495659E+01 0.81938529401E+01 0.82271094489E+01
 0.82398933937E+01 0.82244933239E+01 0.81913795911E+01 0.81617553748E+01 0.81548232747E+01
 0.84874438147E+01 0.82404289901E+01 0.80421490858E+01 0.79130493672E+01 0.78495328021E+01
 0.78292348348E+01 0.78299648024E+01 0.78498919975E+01 0.79101683493E+01 0.80364948197E+01
 0.82360944365E+01 0.84878609264E+01 0.87497632473E+01 0.89857852139E+01 0.92113871376E+01
 0.93664760663E+01 0.93657008463E+01 0.92085562582E+01 0.89809046410E+01 0.87453306890E+01
 0.93958382222E+01 0.88331657114E+01 0.83273396841E+01 0.79130654213E+01 0.76317594068E+01
 0.74802851932E+01 0.74343183260E+01 0.74799540068E+01 0.76299795099E+01 0.79104984155E+01
 0.83272760978E+01 0.88379623909E+01 0.94032698319E+01 0.10206848115E+02 0.11206718986E+02
 0.12061850197E+02 0.12400322426E+02 0.12063958263E+02 0.11206737906E+02 0.10201923694E+02
 0.12297852970E+02 0.10292807695E+02 0.91505718964E+01 0.84233846349E+01 0.78494365747E+01
 0.74802875257E+01 0.73082012844E+01 0.73077634267E+01 0.74795352261E+01 0.78498032829E+01
 0.84261973292E+01 0.91554976921E+01 0.10297165942E+02 0.12298272834E+02 0.14953499018E+02
 0.17510210678E+02 0.19080733207E+02 0.19083552584E+02 0.17516290892E+02 0.14957903987E+02
 0.20185954744E+02 0.15042886350E+02 0.11376299114E+02 0.94421555810E+01 0.85009947806E+01
 0.78292533740E+01 0.74343924536E+01 0.73077434271E+01 0.74335855773E+01 0.78296738129E+01
 0.85035758793E+01 0.94447272084E+01 0.11375551685E+02 0.15037960620E+02 0.20179294604E+02
 0.25628549297E+02 0.29798703909E+02 0.31360887944E+02 0.29801228650E+02 0.25633798166E+02
 0.34980828253E+02 0.25695887880E+02 0.17662471943E+02 0.12285920117E+02 0.96345772914E+01
 0.85321867557E+01 0.78300130937E+01 0.74799075101E+01 0.74794863969E+01 0.78297035650E+01
 0.85329737432E+01 0.96349244465E+01 0.12283119750E+02 0.17656777517E+02 0.25691534811E+02
 0.34981558495E+02 0.43231257154E+02 0.48093278421E+02 0.48090840542E+02 0.43226958273E+02
 0.56595440827E+02 0.43254439355E+02 0.29895419780E+02 0.19260364549E+02 0.12640630859E+02
 0.96353760877E+01 0.85035311294E+01 0.78498553554E+01 0.76299558067E+01 0.78498628682E+01
 0.85036010748E+01 0.96348978840E+01 0.12638761608E+02 0.19257905338E+02 0.29895475306E+02
 0.43259752870E+02 0.56604611882E+02 0.66532061391E+02 0.70207342275E+02 0.66524774384E+02
 0.82550636320E+02 0.66522143435E+02 0.48123726255E+02 0.31464150918E+02 0.19257512656E+02
 0.12283867020E+02 0.94450465506E+01 0.84258177473E+01 0.79102135283E+01 0.79105275403E+01
 0.84261972612E+01 0.94446771925E+01 0.12283112210E+02 0.19257914896E+02 0.31466857097E+02
 0.48128207204E+02 0.66526653782E+02 0.82553675603E+02 0.91944617727E+02 0.91943591829E+02
 0.10804637940E+03 0.91929005849E+02 0.70199213144E+02 0.48126233123E+02 0.29892883432E+02
 0.17656314386E+02 0.11376299114E+02 0.91555118767E+01 0.83266069353E+01 0.80364602587E+01
 0.83272290346E+01 0.91554808536E+01 0.11375571119E+02 0.17656794392E+02 0.29895473981E+02
 0.48128224973E+02 0.70196574992E+02 0.91921679906E+02 0.10803980061E+03 0.11401779203E+03
 0.12695824053E+03 0.11400867827E+03 0.91929929949E+02 0.66529429989E+02 0.43258874016E+02
 0.25690654423E+02 0.15038412613E+02 0.10297661136E+02 0.88376003720E+01 0.82356642633E+01
 0.82360497919E+01 0.88380017439E+01 0.10297217278E+02 0.15037961783E+02 0.25691503251E+02
 0.43259786613E+02 0.66526655114E+02 0.91921631408E+02 0.11399869454E+03 0.12695370783E+03
 0.10193609652E+03 0.96574864623E+02 0.82102437342E+02 0.62586250682E+02 0.42800281471E+02
 0.26570670125E+02 0.15852142732E+02 0.10512704467E+02 0.86693277585E+01 0.78974049770E+01
 0.76280032742E+01 0.78975303205E+01 0.86694346736E+01 0.10512682101E+02 0.15852040659E+02
 0.26570621802E+02 0.42800335965E+02 0.62586331317E+02 0.82102461438E+02 0.96574845872E+02
 0.96577819625E+02 0.96574786908E+02 0.86662491510E+02 0.69744746607E+02 0.50306941264E+02
 0.32664849385E+02 0.19678354534E+02 0.12200947780E+02 0.91367231824E+01 0.80917689117E+01
 0.75735577481E+01 0.75732485059E+01 0.80914515421E+01 0.91371495808E+01 0.12201565705E+02
 0.19678099145E+02 0.32664365608E+02 0.50308746431E+02 0.69750210862E+02 0.86669138325E+02
 0.82106890683E+02 0.86681287228E+02 0.82102456622E+02 0.69744823166E+02 0.53095023772E+02
 0.36288261293E+02 0.22664524958E+02 0.13889006007E+02 0.97049887553E+01 0.82661467401E+01
 0.75562063410E+01 0.73118807820E+01 0.75554549154E+01 0.82659259556E+01 0.97056464582E+01
 0.13889090174E+02 0.22663000642E+02 0.36286780365E+02 0.53096524394E+02 0.69749617387E+02
 0.62584468322E+02 0.69788225257E+02 0.69788851741E+02 0.62586397601E+02 0.50306915529E+02
 0.36288196904E+02 0.23792623144E+02 0.14947347589E+02 0.10206276383E+02 0.83961699893E+01
 0.75643433125E+01 0.71318051704E+01 0.71315319322E+01 0.75639495467E+01 0.83962835547E+01
 0.10206667410E+02 0.14946935290E+02 0.23790636189E+02 0.36285076132E+02 0.50303909684E+02
 0.42794326312E+02 0.50381472519E+02 0.53200310688E+02 0.50386288589E+02 0.42800288800E+02
 0.32664721055E+02 0.22664556373E+02 0.14947394145E+02 0.10407922237E+02 0.84745071975E+01
 0.75802903878E+01 0.70280826397E+01 0.68465199115E+01 0.70282851734E+01 0.75803591171E+01
 0.84746269988E+01 0.10408787402E+02 0.14948798285E+02 0.22664581050E+02 0.32661391855E+02
 0.26570202930E+02 0.32781063071E+02 0.36469137334E+02 0.36470823203E+02 0.32784000541E+02
 0.26570600124E+02 0.19678357921E+02 0.13889104987E+02 0.10206239176E+02 0.84744778748E+01
 0.75878343441E+01 0.69833287260E+01 0.66904471465E+01 0.66908453132E+01 0.69837558481E+01
 0.75874130406E+01 0.84742081269E+01 0.10208111532E+02 0.13893076274E+02 0.19681491769E+02
 0.15856469904E+02 0.19832878258E+02 0.22920744855E+02 0.24083932787E+02 0.22919181631E+02
 0.19829525750E+02 0.15852091450E+02 0.12201016406E+02 0.97049739335E+01 0.83961011207E+01
 0.75803353785E+01 0.69833467142E+01 0.66417598475E+01 0.65341840156E+01 0.66423458923E+01
 0.69831709349E+01 0.75787787091E+01 0.83945866014E+01 0.97056464582E+01 0.12204373417E+02
 0.10512264669E+02 0.12368407848E+02 0.14191181589E+02 0.15321895179E+02 0.15320036796E+02
 0.14187202758E+02 0.12365603972E+02 0.10512694406E+02 0.91367638857E+01 0.82660842978E+01
 0.75643706839E+01 0.70281293030E+01 0.66903909497E+01 0.65341689270E+01 0.65344354065E+01
 0.66908467529E+01 0.70278677412E+01 0.75625039844E+01 0.82627761601E+01 0.91337583957E+01
 0.86643492432E+01 0.92941452621E+01 0.10010964261E+02 0.10614913776E+02 0.10852094289E+02
 0.10613483470E+02 0.10010947125E+02 0.92974735752E+01 0.86693793576E+01 0.80917559585E+01
 0.75561746838E+01 0.71318568400E+01 0.68464784294E+01 0.66908083819E+01 0.66424160330E+01
 0.66908660184E+01 0.68474441341E+01 0.71333949267E+01 0.75561111009E+01 0.80884777892E+01
 0.78972311812E+01 0.82404276524E+01 0.85564813863E+01 0.88000440073E+01 0.89417997976E+01
 0.89422364508E+01 0.88017747460E+01 0.85596395066E+01 0.82433579485E+01 0.78974493983E+01
 0.75735020906E+01 0.73119033664E+01 0.71315577008E+01 0.70282475959E+01 0.69838118947E+01
 0.69832089934E+01 0.70277835004E+01 0.71333690256E+01 0.73157471489E+01 0.75765213981E+01
 0.76324325191E+01 0.77234665396E+01 0.78392579347E+01 0.79580523194E+01 0.80493282624E+01
 0.80844366856E+01 0.80508710296E+01 0.79594961885E+01 0.78386703646E+01 0.77202646304E+01
 0.76279889507E+01 0.75732223523E+01 0.75555184984E+01 0.75639338507E+01 0.75803353785E+01
 0.75874348732E+01 0.75787099798E+01 0.75624609170E+01 0.75562063410E+01 0.75765509020E+01
 0.78971312014E+01 0.77234403930E+01 0.75951149770E+01 0.75229635381E+01 0.74975088184E+01
 0.74953780267E+01 0.74959275691E+01 0.74978627009E+01 0.75210897360E+01 0.75913226702E+01
 0.77205578070E+01 0.78974747621E+01 0.80914821830E+01 0.82659406412E+01 0.83962088550E+01
 0.84746229711E+01 0.84742334219E+01 0.83945807704E+01 0.82628532880E+01 0.80885213833E+01
 0.86642700081E+01 0.82403937944E+01 0.78393539991E+01 0.75229784656E+01 0.73165213492E+01
 0.72098894466E+01 0.71786292095E+01 0.72099244179E+01 0.73156057313E+01 0.75213635115E+01
 0.78392988701E+01 0.82436570877E+01 0.86694070375E+01 0.91371813178E+01 0.97056024390E+01
 0.10206658047E+02 0.10408874140E+02 0.10208139377E+02 0.97056172608E+01 0.91337494295E+01
 0.10512298294E+02 0.92941662501E+01 0.85565549854E+01 0.79580651457E+01 0.74974256553E+01
 0.72098909341E+01 0.70787644899E+01 0.70785387873E+01 0.72095182450E+01 0.74977303036E+01
 0.79598829603E+01 0.85597465402E+01 0.92970674023E+01 0.10512705665E+02 0.12201588620E+02
 0.13889092288E+02 0.14946987972E+02 0.14948804411E+02 0.13892979408E+02 0.12204327706E+02
 0.15856571977E+02 0.12368457951E+02 0.10010927263E+02 0.88000149611E+01 0.80492679959E+01
 0.74953929891E+01 0.71786928890E+01 0.70785213523E+01 0.71780007040E+01 0.74954907583E+01
 0.80508710296E+01 0.88016386420E+01 0.10010290939E+02 0.12365023504E+02 0.15852091450E+02
 0.19678102085E+02 0.22662975965E+02 0.23790597114E+02 0.22664524958E+02 0.19681491322E+02
 0.26570257241E+02 0.19832867906E+02 0.14191081783E+02 0.10614875180E+02 0.89418384141E+01
 0.80844691642E+01 0.74959689084E+01 0.72098842229E+01 0.72094765625E+01 0.74955171353E+01
 0.80848689707E+01 0.89421227060E+01 0.10613070586E+02 0.14187198210E+02 0.19829772593E+02
 0.26570606112E+02 0.32664308170E+02 0.36286746794E+02 0.36285106949E+02 0.32661462748E+02
 0.42794288080E+02 0.32780972652E+02 0.22920697620E+02 0.15321921608E+02 0.10852183752E+02
 0.89422512982E+01 0.80508321418E+01 0.74978318282E+01 0.73155857089E+01 0.74977825940E+01
 0.80508924083E+01 0.89420989369E+01 0.10851186329E+02 0.15320454228E+02 0.22920745777E+02
 0.32784419413E+02 0.42800305062E+02 0.50308778523E+02 0.53096587918E+02 0.50303967511E+02
 0.62584401113E+02 0.50381404965E+02 0.36469181727E+02 0.24084027264E+02 0.15320072039E+02
 0.10613438495E+02 0.88017014947E+01 0.79595085416E+01 0.75211288968E+01 0.75213877448E+01
 0.79598824871E+01 0.88015944368E+01 0.10613064207E+02 0.15320463043E+02 0.24085948397E+02
 0.36472253900E+02 0.50384439020E+02 0.62586411026E+02 0.69750239962E+02 0.69749569929E+02
 0.82106866587E+02 0.69788284737E+02 0.53200377241E+02 0.36470882991E+02 0.22919133474E+02
 0.14187118066E+02 0.10010927263E+02 0.85596996450E+01 0.78387254935E+01 0.75912903689E+01
 0.78392579347E+01 0.85597330795E+01 0.10010308075E+02 0.14187213324E+02 0.22920744855E+02
 0.36472269294E+02 0.53198730280E+02 0.69783437914E+02 0.82102456622E+02 0.86669016096E+02
 0.96577831709E+02 0.86681433314E+02 0.69788868484E+02 0.50386221620E+02 0.32783939738E+02
 0.19829487936E+02 0.12365653900E+02 0.92975395093E+01 0.82433608807E+01 0.77201995311E+01
 0.77205188544E+01 0.82436938780E+01 0.92971123484E+01 0.12365023329E+02 0.19829745130E+02
 0.32784449029E+02 0.50384439605E+02 0.69783395176E+02 0.86674752914E+02 0.96574780242E+02
 0.69421481643E+02 0.65727880360E+02 0.55767996947E+02 0.42405741225E+02 0.29061646395E+02
 0.18482095281E+02 0.11937123872E+02 0.89954683871E+01 0.78985119891E+01 0.72643510270E+01
 0.70510355999E+01 0.72644496683E+01 0.78985948917E+01 0.89954476268E+01 0.11937039573E+02
 0.18482054480E+02 0.29061688677E+02 0.42405805507E+02 0.55768016847E+02 0.65727866042E+02
 0.65729446283E+02 0.65727815236E+02 0.58891438212E+02 0.47260897281E+02 0.34035273856E+02
 0.22326246534E+02 0.14128654512E+02 0.98078998694E+01 0.81709215320E+01 0.73725722971E+01