   2   2   0   0
  0.9927355E+01  0.2330000E-09  0.2330000E-09  0.4223000E-09  0.5000000E-15
  1.000000000000000E-004
  CAR 
 unknown system                          
     73.27498980     -5.42028371  301      7.21333720      1.00000000
     -5.420  0.0000E+00  0.0000E+00
     -5.158  0.0000E+00  0.0000E+00
     -4.896  0.0000E+00  0.0000E+00
     -4.633  0.0000E+00  0.0000E+00
     -4.371  0.0000E+00  0.0000E+00
     -4.109  0.0000E+00  0.0000E+00
     -3.846  0.0000E+00  0.0000E+00
     -3.584 -0.1761E-34 -0.4619E-35
     -3.322 -0.2215E-25 -0.5810E-26
     -3.059 -0.8704E-18 -0.2283E-18
     -2.797 -0.1019E-11 -0.2672E-12
     -2.535 -0.3729E-07 -0.9783E-08
     -2.272 -0.3902E-04 -0.1025E-04
     -2.010 -0.4204E-03 -0.1205E-03
     -1.748  0.8838E-02  0.2198E-02
     -1.486  0.5118E-01  0.1562E-01
     -1.223  0.1039E+00  0.4288E-01
     -0.961  0.5560E-01  0.5747E-01
     -0.699  0.1464E+00  0.9588E-01
     -0.436  0.1729E+00  0.1412E+00
     -0.174  0.2003E+00  0.1938E+00
      0.088  0.8605E-01  0.2164E+00
      0.351  0.2135E+00  0.2724E+00
      0.613  0.3046E+00  0.3523E+00
      0.875  0.3043E+00  0.4321E+00
      1.138  0.3088E+00  0.5131E+00
      1.400  0.2531E+00  0.5795E+00
      1.662  0.3426E+00  0.6693E+00
      1.925  0.7767E+00  0.8731E+00
      2.187  0.1174E+01  0.1181E+01
      2.449  0.1731E+01  0.1635E+01
      2.712  0.2118E+01  0.2191E+01
      2.974  0.2750E+01  0.2912E+01
      3.236  0.2440E+01  0.3552E+01
      3.499  0.2579E+01  0.4229E+01
      3.761  0.2577E+01  0.4905E+01
      4.023  0.3120E+01  0.5723E+01
      4.285  0.3224E+01  0.6569E+01
      4.548  0.2810E+01  0.7306E+01
      4.810  0.2315E+01  0.7913E+01
      5.072  0.2642E+01  0.8606E+01
      5.335  0.4021E+01  0.9661E+01
      5.597  0.3520E+01  0.1058E+02
      5.859  0.3637E+01  0.1154E+02
      6.122  0.3050E+01  0.1234E+02
      6.384  0.3501E+01  0.1326E+02
      6.646  0.3410E+01  0.1415E+02
      6.909  0.3343E+01  0.1503E+02
      7.171  0.3230E+01  0.1588E+02
      7.433  0.2937E+01  0.1665E+02
      7.696  0.3830E+01  0.1765E+02
      7.958  0.4755E+01  0.1890E+02
      8.220  0.4119E+01  0.1998E+02
      8.483  0.3786E+01  0.2097E+02
      8.745  0.1061E+01  0.2125E+02
      9.007  0.3435E+00  0.2134E+02
      9.270  0.4732E+00  0.2146E+02
      9.532  0.6501E+00  0.2163E+02
      9.794  0.8579E+00  0.2186E+02
     10.056  0.6931E+00  0.2204E+02
     10.319  0.3917E+00  0.2214E+02
     10.581  0.3509E+00  0.2224E+02
     10.843  0.5236E+00  0.2237E+02
     11.106  0.3651E+00  0.2247E+02
     11.368  0.3966E+00  0.2257E+02
     11.630  0.6863E+00  0.2275E+02
     11.893  0.4412E+00  0.2287E+02
     12.155  0.5252E+00  0.2301E+02
     12.417  0.4724E+00  0.2313E+02
     12.680  0.2055E+00  0.2318E+02
     12.942  0.2892E+00  0.2326E+02
     13.204  0.3981E+00  0.2337E+02
     13.467  0.3502E+00  0.2346E+02
     13.729  0.3637E+00  0.2355E+02
     13.991  0.1914E+00  0.2360E+02
     14.254  0.3404E+00  0.2369E+02
     14.516  0.5560E+00  0.2384E+02
     14.778  0.5661E+00  0.2399E+02
     15.040  0.2514E+00  0.2405E+02
     15.303  0.2073E+00  0.2411E+02
     15.565  0.1669E+00  0.2415E+02
     15.827  0.8829E-01  0.2417E+02
     16.090  0.1678E+00  0.2422E+02
     16.352  0.4136E+00  0.2433E+02
     16.614  0.1338E+00  0.2436E+02
     16.877  0.3772E+00  0.2446E+02
     17.139  0.5832E+00  0.2461E+02
     17.401  0.9290E+00  0.2486E+02
     17.664  0.8988E+00  0.2509E+02
     17.926  0.7881E+00  0.2530E+02
     18.188  0.5131E+00  0.2543E+02
     18.451  0.4485E+00  0.2555E+02
     18.713  0.7202E+00  0.2574E+02
     18.975  0.7222E+00  0.2593E+02
     19.238  0.6150E+00  0.2609E+02
     19.500  0.1041E+01  0.2636E+02
     19.762  0.7011E+00  0.2655E+02
     20.025  0.4790E+00  0.2667E+02
     20.287  0.3942E+00  0.2678E+02
     20.549  0.8372E+00  0.2700E+02
     20.811  0.7006E+00  0.2718E+02
     21.074  0.6510E+00  0.2735E+02
     21.336  0.4836E+00  0.2748E+02
     21.598  0.5843E+00  0.2763E+02
     21.861  0.6012E+00  0.2779E+02
     22.123  0.4121E+00  0.2790E+02
     22.385  0.8587E+00  0.2812E+02
     22.648  0.6684E+00  0.2830E+02
     22.910  0.5216E+00  0.2843E+02
     23.172  0.7993E+00  0.2864E+02
     23.435  0.5293E+00  0.2878E+02
     23.697  0.5160E+00  0.2892E+02
     23.959  0.1061E+01  0.2920E+02
     24.222  0.1168E+01  0.2950E+02
     24.484  0.7603E+00  0.2970E+02
     24.746  0.6628E+00  0.2988E+02
     25.009  0.9800E+00  0.3013E+02
     25.271  0.8388E+00  0.3035E+02
     25.533  0.7233E+00  0.3054E+02
     25.796  0.9845E+00  0.3080E+02
     26.058  0.1035E+01  0.3107E+02
     26.320  0.8401E+00  0.3129E+02
     26.582  0.8389E+00  0.3151E+02
     26.845  0.7568E+00  0.3171E+02
     27.107  0.1469E+01  0.3210E+02
     27.369  0.1359E+01  0.3245E+02
     27.632  0.5806E+00  0.3261E+02
     27.894  0.4706E+00  0.3273E+02
     28.156  0.9898E+00  0.3299E+02
     28.419  0.7609E+00  0.3319E+02
     28.681  0.8489E+00  0.3341E+02
     28.943  0.8037E+00  0.3362E+02
     29.206  0.8000E+00  0.3383E+02
     29.468  0.7010E+00  0.3402E+02
     29.730  0.1314E+01  0.3436E+02
     29.993  0.5144E+00  0.3450E+02
     30.255  0.2638E+00  0.3457E+02
     30.517  0.8872E+00  0.3480E+02
     30.780  0.3895E+00  0.3490E+02
     31.042  0.6493E+00  0.3507E+02
     31.304  0.9040E+00  0.3531E+02
     31.566  0.8416E+00  0.3553E+02
     31.829  0.6266E+00  0.3569E+02
     32.091  0.7447E+00  0.3589E+02
     32.353  0.7330E+00  0.3608E+02
     32.616  0.6607E+00  0.3625E+02
     32.878  0.1252E+01  0.3658E+02
     33.140  0.5919E+00  0.3674E+02
     33.403  0.7408E+00  0.3693E+02
     33.665  0.6758E+00  0.3711E+02
     33.927  0.7090E+00  0.3729E+02
     34.190  0.6275E+00  0.3746E+02
     34.452  0.8598E+00  0.3769E+02
     34.714  0.1318E+01  0.3803E+02
     34.977  0.7164E+00  0.3822E+02
     35.239  0.6704E+00  0.3839E+02
     35.501  0.9781E+00  0.3865E+02
     35.764  0.1193E+01  0.3896E+02
     36.026  0.7905E+00  0.3917E+02
     36.288  0.9727E+00  0.3943E+02
     36.551  0.1367E+01  0.3979E+02
     36.813  0.9247E+00  0.4003E+02
     37.075  0.1218E+01  0.4035E+02
     37.337  0.1282E+01  0.4068E+02
     37.600  0.5942E+00  0.4084E+02
     37.862  0.8750E+00  0.4107E+02
     38.124  0.1040E+01  0.4134E+02
     38.387  0.4735E+00  0.4147E+02
     38.649  0.5104E+00  0.4160E+02
     38.911  0.1002E+01  0.4186E+02
     39.174  0.4564E+00  0.4198E+02
     39.436  0.5048E+00  0.4212E+02
     39.698  0.7264E+00  0.4231E+02
     39.961  0.1191E+01  0.4262E+02
     40.223  0.1041E+01  0.4289E+02
     40.485  0.8204E+00  0.4311E+02
     40.748  0.6444E+00  0.4328E+02
     41.010  0.8377E+00  0.4350E+02
     41.272  0.6008E+00  0.4365E+02
     41.535  0.9945E+00  0.4391E+02
     41.797  0.6611E+00  0.4409E+02
     42.059  0.8361E+00  0.4431E+02
     42.322  0.1183E+01  0.4462E+02
     42.584  0.1184E+01  0.4493E+02
     42.846  0.1050E+01  0.4520E+02
     43.108  0.9394E+00  0.4545E+02
     43.371  0.1273E+01  0.4578E+02
     43.633  0.9166E+00  0.4602E+02
     43.895  0.9349E+00  0.4627E+02
     44.158  0.1119E+01  0.4656E+02
     44.420  0.1342E+01  0.4691E+02
     44.682  0.9245E+00  0.4716E+02
     44.945  0.9310E+00  0.4740E+02
     45.207  0.1141E+01  0.4770E+02
     45.469  0.1229E+01  0.4802E+02
     45.732  0.8408E+00  0.4824E+02
     45.994  0.6968E+00  0.4843E+02
     46.256  0.8634E+00  0.4865E+02
     46.519  0.1035E+01  0.4892E+02
     46.781  0.1018E+01  0.4919E+02
     47.043  0.1093E+01  0.4948E+02
     47.306  0.5997E+00  0.4964E+02
     47.568  0.8633E+00  0.4986E+02
     47.830  0.1328E+01  0.5021E+02
     48.093  0.1304E+01  0.5055E+02
     48.355  0.7352E+00  0.5074E+02
     48.617  0.4460E+00  0.5086E+02
     48.879  0.1054E+01  0.5114E+02
     49.142  0.1310E+01  0.5148E+02
     49.404  0.9745E+00  0.5174E+02
     49.666  0.8655E+00  0.5196E+02
     49.929  0.8539E+00  0.5219E+02
     50.191  0.9088E+00  0.5243E+02
     50.453  0.9925E+00  0.5269E+02
     50.716  0.1007E+01  0.5295E+02
     50.978  0.1314E+01  0.5330E+02
     51.240  0.1581E+01  0.5371E+02
     51.503  0.1310E+01  0.5405E+02
     51.765  0.1099E+01  0.5434E+02
     52.027  0.9582E+00  0.5459E+02
     52.290  0.1322E+01  0.5494E+02
     52.552  0.1053E+01  0.5522E+02
     52.814  0.1124E+01  0.5551E+02
     53.077  0.1169E+01  0.5582E+02
     53.339  0.6304E+00  0.5598E+02
     53.601  0.9800E+00  0.5624E+02
     53.863  0.9708E+00  0.5650E+02
     54.126  0.1027E+01  0.5676E+02
     54.388  0.1466E+01  0.5715E+02
     54.650  0.1118E+01  0.5744E+02
     54.913  0.1428E+01  0.5782E+02
     55.175  0.1092E+01  0.5810E+02
     55.437  0.1434E+01  0.5848E+02
     55.700  0.1468E+01  0.5887E+02
     55.962  0.1315E+01  0.5921E+02
     56.224  0.1605E+01  0.5963E+02
     56.487  0.7363E+00  0.5982E+02
     56.749  0.1072E+01  0.6011E+02
     57.011  0.1378E+01  0.6047E+02
     57.274  0.1218E+01  0.6079E+02
     57.536  0.1589E+01  0.6120E+02
     57.798  0.1881E+01  0.6170E+02
     58.061  0.1628E+01  0.6212E+02
     58.323  0.1285E+01  0.6246E+02
     58.585  0.1373E+01  0.6282E+02
     58.848  0.1231E+01  0.6314E+02
     59.110  0.1971E+01  0.6366E+02
     59.372  0.1590E+01  0.6408E+02
     59.634  0.1435E+01  0.6445E+02
     59.897  0.2113E+01  0.6501E+02
     60.159  0.1608E+01  0.6543E+02
     60.421  0.2161E+01  0.6600E+02
     60.684  0.1551E+01  0.6640E+02
     60.946  0.1989E+01  0.6693E+02
     61.208  0.2065E+01  0.6747E+02
     61.471  0.1642E+01  0.6790E+02
     61.733  0.1773E+01  0.6836E+02
     61.995  0.1577E+01  0.6878E+02
     62.258  0.1182E+01  0.6909E+02
     62.520  0.1630E+01  0.6952E+02
     62.782  0.1940E+01  0.7002E+02
     63.045  0.1771E+01  0.7049E+02
     63.307  0.1352E+01  0.7084E+02
     63.569  0.1841E+01  0.7133E+02
     63.832  0.1655E+01  0.7176E+02
     64.094  0.1503E+01  0.7215E+02
     64.356  0.1514E+01  0.7255E+02
     64.619  0.1272E+01  0.7289E+02
     64.881  0.1605E+01  0.7331E+02
     65.143  0.1813E+01  0.7378E+02
     65.405  0.1765E+01  0.7425E+02
     65.668  0.2060E+01  0.7479E+02
     65.930  0.1788E+01  0.7525E+02
     66.192  0.1927E+01  0.7576E+02
     66.455  0.2048E+01  0.7630E+02
     66.717  0.1509E+01  0.7669E+02
     66.979  0.1674E+01  0.7713E+02
     67.242  0.1751E+01  0.7759E+02
     67.504  0.1430E+01  0.7797E+02
     67.766  0.1486E+01  0.7836E+02
     68.029  0.1659E+01  0.7879E+02
     68.291  0.1447E+01  0.7917E+02
     68.553  0.1321E+01  0.7952E+02
     68.816  0.9031E+00  0.7975E+02
     69.078  0.5051E+00  0.7989E+02
     69.340  0.2811E+00  0.7996E+02
     69.603  0.1110E+00  0.7999E+02
     69.865  0.4038E-01  0.8000E+02
     70.127 -0.1151E-02  0.8000E+02
     70.389 -0.1729E-03  0.8000E+02
     70.652 -0.1985E-06  0.8000E+02
     70.914 -0.5849E-11  0.8000E+02
     71.176 -0.7632E-17  0.8000E+02
     71.439  0.0000E+00  0.8000E+02
     71.701  0.0000E+00  0.8000E+02
     71.963  0.0000E+00  0.8000E+02
     72.226  0.0000E+00  0.8000E+02
     72.488  0.0000E+00  0.8000E+02
     72.750  0.0000E+00  0.8000E+02
     73.013  0.0000E+00  0.8000E+02
     73.275  0.0000E+00  0.8000E+02
