 vasp.6.2.0 18Jan21 (build Mar 17 2021 09:06:54) complex                        
  
 executed on             LinuxIFC date 2021.09.09  12:04:54
 serial version


--------------------------------------------------------------------------------------------------------


 INCAR:
   ENCUT = 280.000000
   SIGMA = 0.200000
   EDIFF = 1.00e-06
   GGA = PE
   PREC = normal
   IBRION = 1
   ICHARG = 1
   ISIF = 2
   ISMEAR = 1
   KPAR = 1
   NBANDS = 40
   NSW = 0
   NCORE = 1
   LCHARG = .TRUE.

 POTCAR:    PAW_PBE Fe 06Sep2000                  
 POTCAR:    PAW_PBE Fe 06Sep2000                  
   SHA256 =  cd5a22d9368cc8b5cc476bea79732366149640da08ac9009b0e1b7fc627eea28 Fe/POTCAR             
   COPYR  = (c) Copyright 06Sep2000 Georg Kresse                                                    
   COPYR  = This file is part of the software VASP. Any use, copying, and all other rights are regul
   COPYR  = If you do not have a valid VASP license, you may not use, copy or distribute this file. 
   VRHFIN =Fe:  d7 s1                                                                               
   LEXCH  = PE                                                                                      
   EATOM  =   594.3153 eV,   43.6809 Ry                                                             
                                                                                                    
   TITEL  = PAW_PBE Fe 06Sep2000                                                                    
   LULTRA =        F    use ultrasoft PP ?                                                          
   IUNSCR =        1    unscreen: 0-lin 1-nonlin 2-no                                               
   RPACOR =    2.000    partial core radius                                                         
   POMASS =   55.847; ZVAL   =    8.000    mass and valenz                                          
   RCORE  =    2.300    outmost cutoff radius                                                       
   RWIGS  =    2.460; RWIGS  =    1.302    wigner-seitz radius (au A)                               
   ENMAX  =  267.882; ENMIN  =  200.911 eV                                                          
   RCLOC  =    1.701    cutoff for local pot                                                        
   LCOR   =        T    correct aug charges                                                         
   LPAW   =        T    paw PP                                                                      
   EAUG   =  511.368                                                                                
   DEXC   =    0.000                                                                                
   RMAX   =    2.356    core radius for proj-oper                                                   
   RAUG   =    1.300    factor for augmentation sphere                                              
   RDEP   =    2.442    radius for radial grids                                                     
   RDEPT  =    1.890    core radius for aug-charge                                                  
                                                                                                    
   Atomic configuration                                                                             
    9 entries                                                                                       
     n  l   j            E        occ.                                                              
     1  0  0.50     -6993.8440   2.0000                                                             
     2  0  0.50      -814.6047   2.0000                                                             
     2  1  1.50      -693.3689   6.0000                                                             
     3  0  0.50       -89.4732   2.0000                                                             
     3  1  1.50       -55.6373   6.0000                                                             
     3  2  2.50        -3.8151   7.0000                                                             
     4  0  0.50        -4.2551   1.0000                                                             
     4  1  1.50        -3.4015   0.0000                                                             
     4  3  2.50        -1.3606   0.0000                                                             
   Description                                                                                      
     l       E           TYP  RCUT    TYP  RCUT                                                     
     2     -3.8151135     23  2.300                                                                 
     2     -5.1756961     23  2.300                                                                 
     0     -4.2550963     23  2.300                                                                 
     0      7.2035603     23  2.300                                                                 
     1     -2.7211652     23  2.300                                                                 
     1     18.4316424     23  2.300                                                                 
  local pseudopotential read in
  partial core-charges read in
  partial kinetic energy density read in
  atomic valenz-charges read in
  non local Contribution for L=           2  read in
    real space projection operators read in
  non local Contribution for L=           2  read in
    real space projection operators read in
  non local Contribution for L=           0  read in
    real space projection operators read in
  non local Contribution for L=           0  read in
    real space projection operators read in
  non local Contribution for L=           1  read in
    real space projection operators read in
  non local Contribution for L=           1  read in
    real space projection operators read in
    PAW grid and wavefunctions read in
 
   number of l-projection  operators is LMAX  =           6
   number of lm-projection operators is LMMAX =          18
 
  PAW_PBE Fe 06Sep2000                  :
 energy of atom  1       EATOM= -594.3153
 kinetic energy error for atom=    0.0278 (will be added to EATOM!!)
 
 
 POSCAR: Fe
  positions in cartesian coordinates
  No initial velocities read in
 exchange correlation table for  LEXCH =        8
   RHO(1)=    0.500       N(1)  =     2000
   RHO(2)=  100.500       N(2)  =     4000
 


--------------------------------------------------------------------------------------------------------


 ion  position               nearest neighbor table
   1  0.000  0.000  0.000-   2 2.50   2 2.50   2 2.50   2 2.50   2 2.50   2 2.50
   2  0.333  0.667  0.500-   1 2.50   1 2.50   1 2.50   1 2.50   1 2.50   1 2.50
 
  LATTYP: Found a hexagonal cell.
 ALAT       =     2.3300000000
 C/A-ratio  =     1.8124463519
  
  Lattice vectors:
  
 A1 = (   2.3300000000,   0.0000000000,   0.0000000000)
 A2 = (  -1.1650000000,   2.0178391908,   0.0000000000)
 A3 = (   0.0000000000,   0.0000000000,   4.2230000000)


Analysis of symmetry for initial positions (statically):
=====================================================================
 Subroutine PRICEL returns:
 Original cell was already a primitive cell.
 

 Routine SETGRP: Setting up the symmetry group for a 
 hexagonal supercell.


 Subroutine GETGRP returns: Found 24 space group operations
 (whereof 12 operations were pure point group operations)
 out of a pool of 24 trial point group operations.


The static configuration has the point symmetry D_3h.
 The point group associated with its full space group is D_6h.


Analysis of symmetry for dynamics (positions and initial velocities):
=====================================================================
 Subroutine PRICEL returns:
 Original cell was already a primitive cell.
 

 Routine SETGRP: Setting up the symmetry group for a 
 hexagonal supercell.


 Subroutine GETGRP returns: Found 24 space group operations
 (whereof 12 operations were pure point group operations)
 out of a pool of 24 trial point group operations.


The dynamic configuration has the point symmetry D_3h.
 The point group associated with its full space group is D_6h.


 Subroutine INISYM returns: Found 24 space group operations
 (whereof 12 operations are pure point group operations),
 and found     1 'primitive' translations


----------------------------------------------------------------------------------------

                                     Primitive cell                                     

  volume of cell :      19.8547

  direct lattice vectors                    reciprocal lattice vectors
     2.330000000  0.000000000  0.000000000     0.429184549  0.247789815  0.000000000
    -1.165000000  2.017839191  0.000000000     0.000000000  0.495579630  0.000000000
     0.000000000  0.000000000  4.223000000     0.000000000  0.000000000  0.236798484

  length of vectors
     2.330000000  2.330000000  4.223000000     0.495579630  0.495579630  0.236798484

  position of ions in fractional coordinates (direct lattice)
     0.000000000  0.000000000  0.000000000
     0.333333333  0.666666667  0.500000000

  ion indices of the primitive-cell ions
   primitive index   ion index
                 1           1
                 2           2

----------------------------------------------------------------------------------------

 
 
 KPOINTS: KPOINTS created by Atomic Simulation Env

Automatic generation of k-mesh.
 Grid dimensions read from file:
 generate k-points for:   11   11   11

 Generating k-lattice:

  Cartesian coordinates                     Fractional coordinates (reciprocal lattice)
     0.039016777  0.022526347  0.000000000     0.090909091 -0.000000000  0.000000000
     0.000000000  0.045052694  0.000000000     0.000000000  0.090909091  0.000000000
     0.000000000  0.000000000  0.021527135     0.000000000  0.000000000  0.090909091

  Length of vectors
     0.045052694  0.045052694  0.021527135

  Shift w.r.t. Gamma in fractional coordinates (k-lattice)
     0.000000000  0.000000000  0.000000000

 
 Subroutine IBZKPT returns following result:
 ===========================================
 
 Found     96 irreducible k-points:
 
 Following reciprocal coordinates:
            Coordinates               Weight
  0.000000  0.000000  0.000000      1.000000
  0.090909  0.000000  0.000000      6.000000
  0.181818  0.000000  0.000000      6.000000
  0.272727  0.000000  0.000000      6.000000
  0.363636  0.000000  0.000000      6.000000
  0.454545  0.000000  0.000000      6.000000
  0.090909  0.090909  0.000000      6.000000
  0.181818  0.090909  0.000000     12.000000
  0.272727  0.090909  0.000000     12.000000
  0.363636  0.090909  0.000000     12.000000
  0.454545  0.090909  0.000000      6.000000
  0.181818  0.181818  0.000000      6.000000
  0.272727  0.181818  0.000000     12.000000
  0.363636  0.181818  0.000000     12.000000
  0.272727  0.272727  0.000000      6.000000
  0.363636  0.272727  0.000000      6.000000
  0.000000  0.000000  0.090909      2.000000
  0.090909  0.000000  0.090909     12.000000
  0.181818  0.000000  0.090909     12.000000
  0.272727  0.000000  0.090909     12.000000
  0.363636  0.000000  0.090909     12.000000
  0.454545  0.000000  0.090909     12.000000
  0.090909  0.090909  0.090909     12.000000
  0.181818  0.090909  0.090909     24.000000
  0.272727  0.090909  0.090909     24.000000
  0.363636  0.090909  0.090909     24.000000
  0.454545  0.090909  0.090909     12.000000
  0.181818  0.181818  0.090909     12.000000
  0.272727  0.181818  0.090909     24.000000
  0.363636  0.181818  0.090909     24.000000
  0.272727  0.272727  0.090909     12.000000
  0.363636  0.272727  0.090909     12.000000
  0.000000  0.000000  0.181818      2.000000
  0.090909  0.000000  0.181818     12.000000
  0.181818  0.000000  0.181818     12.000000
  0.272727  0.000000  0.181818     12.000000
  0.363636  0.000000  0.181818     12.000000
  0.454545  0.000000  0.181818     12.000000
  0.090909  0.090909  0.181818     12.000000
  0.181818  0.090909  0.181818     24.000000
  0.272727  0.090909  0.181818     24.000000
  0.363636  0.090909  0.181818     24.000000
  0.454545  0.090909  0.181818     12.000000
  0.181818  0.181818  0.181818     12.000000
  0.272727  0.181818  0.181818     24.000000
  0.363636  0.181818  0.181818     24.000000
  0.272727  0.272727  0.181818     12.000000
  0.363636  0.272727  0.181818     12.000000
  0.000000  0.000000  0.272727      2.000000
  0.090909  0.000000  0.272727     12.000000
  0.181818  0.000000  0.272727     12.000000
  0.272727  0.000000  0.272727     12.000000
  0.363636  0.000000  0.272727     12.000000
  0.454545  0.000000  0.272727     12.000000
  0.090909  0.090909  0.272727     12.000000
  0.181818  0.090909  0.272727     24.000000
  0.272727  0.090909  0.272727     24.000000
  0.363636  0.090909  0.272727     24.000000
  0.454545  0.090909  0.272727     12.000000
  0.181818  0.181818  0.272727     12.000000
  0.272727  0.181818  0.272727     24.000000
  0.363636  0.181818  0.272727     24.000000
  0.272727  0.272727  0.272727     12.000000
  0.363636  0.272727  0.272727     12.000000
  0.000000  0.000000  0.363636      2.000000
  0.090909  0.000000  0.363636     12.000000
  0.181818  0.000000  0.363636     12.000000
  0.272727  0.000000  0.363636     12.000000
  0.363636  0.000000  0.363636     12.000000
  0.454545  0.000000  0.363636     12.000000
  0.090909  0.090909  0.363636     12.000000
  0.181818  0.090909  0.363636     24.000000
  0.272727  0.090909  0.363636     24.000000
  0.363636  0.090909  0.363636     24.000000
  0.454545  0.090909  0.363636     12.000000
  0.181818  0.181818  0.363636     12.000000
  0.272727  0.181818  0.363636     24.000000
  0.363636  0.181818  0.363636     24.000000
  0.272727  0.272727  0.363636     12.000000
  0.363636  0.272727  0.363636     12.000000
  0.000000  0.000000  0.454545      2.000000
  0.090909  0.000000  0.454545     12.000000
  0.181818  0.000000  0.454545     12.000000
  0.272727  0.000000  0.454545     12.000000
  0.363636  0.000000  0.454545     12.000000
  0.454545  0.000000  0.454545     12.000000
  0.090909  0.090909  0.454545     12.000000
  0.181818  0.090909  0.454545     24.000000
  0.272727  0.090909  0.454545     24.000000
  0.363636  0.090909  0.454545     24.000000
  0.454545  0.090909  0.454545     12.000000
  0.181818  0.181818  0.454545     12.000000
  0.272727  0.181818  0.454545     24.000000
  0.363636  0.181818  0.454545     24.000000
  0.272727  0.272727  0.454545     12.000000
  0.363636  0.272727  0.454545     12.000000
 
 Following cartesian coordinates:
            Coordinates               Weight
  0.000000  0.000000  0.000000      1.000000
  0.039017  0.022526  0.000000      6.000000
  0.078034  0.045053  0.000000      6.000000
  0.117050  0.067579  0.000000      6.000000
  0.156067  0.090105  0.000000      6.000000
  0.195084  0.112632  0.000000      6.000000
  0.039017  0.067579  0.000000      6.000000
  0.078034  0.090105  0.000000     12.000000
  0.117050  0.112632  0.000000     12.000000
  0.156067  0.135158  0.000000     12.000000
  0.195084  0.157684  0.000000      6.000000
  0.078034  0.135158  0.000000      6.000000
  0.117050  0.157684  0.000000     12.000000
  0.156067  0.180211  0.000000     12.000000
  0.117050  0.202737  0.000000      6.000000
  0.156067  0.225263  0.000000      6.000000
  0.000000  0.000000  0.021527      2.000000
  0.039017  0.022526  0.021527     12.000000
  0.078034  0.045053  0.021527     12.000000
  0.117050  0.067579  0.021527     12.000000
  0.156067  0.090105  0.021527     12.000000
  0.195084  0.112632  0.021527     12.000000
  0.039017  0.067579  0.021527     12.000000
  0.078034  0.090105  0.021527     24.000000
  0.117050  0.112632  0.021527     24.000000
  0.156067  0.135158  0.021527     24.000000
  0.195084  0.157684  0.021527     12.000000
  0.078034  0.135158  0.021527     12.000000
  0.117050  0.157684  0.021527     24.000000
  0.156067  0.180211  0.021527     24.000000
  0.117050  0.202737  0.021527     12.000000
  0.156067  0.225263  0.021527     12.000000
  0.000000  0.000000  0.043054      2.000000
  0.039017  0.022526  0.043054     12.000000
  0.078034  0.045053  0.043054     12.000000
  0.117050  0.067579  0.043054     12.000000
  0.156067  0.090105  0.043054     12.000000
  0.195084  0.112632  0.043054     12.000000
  0.039017  0.067579  0.043054     12.000000
  0.078034  0.090105  0.043054     24.000000
  0.117050  0.112632  0.043054     24.000000
  0.156067  0.135158  0.043054     24.000000
  0.195084  0.157684  0.043054     12.000000
  0.078034  0.135158  0.043054     12.000000
  0.117050  0.157684  0.043054     24.000000
  0.156067  0.180211  0.043054     24.000000
  0.117050  0.202737  0.043054     12.000000
  0.156067  0.225263  0.043054     12.000000
  0.000000  0.000000  0.064581      2.000000
  0.039017  0.022526  0.064581     12.000000
  0.078034  0.045053  0.064581     12.000000
  0.117050  0.067579  0.064581     12.000000
  0.156067  0.090105  0.064581     12.000000
  0.195084  0.112632  0.064581     12.000000
  0.039017  0.067579  0.064581     12.000000
  0.078034  0.090105  0.064581     24.000000
  0.117050  0.112632  0.064581     24.000000
  0.156067  0.135158  0.064581     24.000000
  0.195084  0.157684  0.064581     12.000000
  0.078034  0.135158  0.064581     12.000000
  0.117050  0.157684  0.064581     24.000000
  0.156067  0.180211  0.064581     24.000000
  0.117050  0.202737  0.064581     12.000000
  0.156067  0.225263  0.064581     12.000000
  0.000000  0.000000  0.086109      2.000000
  0.039017  0.022526  0.086109     12.000000
  0.078034  0.045053  0.086109     12.000000
  0.117050  0.067579  0.086109     12.000000
  0.156067  0.090105  0.086109     12.000000
  0.195084  0.112632  0.086109     12.000000
  0.039017  0.067579  0.086109     12.000000
  0.078034  0.090105  0.086109     24.000000
  0.117050  0.112632  0.086109     24.000000
  0.156067  0.135158  0.086109     24.000000
  0.195084  0.157684  0.086109     12.000000
  0.078034  0.135158  0.086109     12.000000
  0.117050  0.157684  0.086109     24.000000
  0.156067  0.180211  0.086109     24.000000
  0.117050  0.202737  0.086109     12.000000
  0.156067  0.225263  0.086109     12.000000
  0.000000  0.000000  0.107636      2.000000
  0.039017  0.022526  0.107636     12.000000
  0.078034  0.045053  0.107636     12.000000
  0.117050  0.067579  0.107636     12.000000
  0.156067  0.090105  0.107636     12.000000
  0.195084  0.112632  0.107636     12.000000
  0.039017  0.067579  0.107636     12.000000
  0.078034  0.090105  0.107636     24.000000
  0.117050  0.112632  0.107636     24.000000
  0.156067  0.135158  0.107636     24.000000
  0.195084  0.157684  0.107636     12.000000
  0.078034  0.135158  0.107636     12.000000
  0.117050  0.157684  0.107636     24.000000
  0.156067  0.180211  0.107636     24.000000
  0.117050  0.202737  0.107636     12.000000
  0.156067  0.225263  0.107636     12.000000
 


--------------------------------------------------------------------------------------------------------




 Dimension of arrays:
   k-points           NKPTS =     96   k-points in BZ     NKDIM =     96   number of bands    NBANDS=     40
   number of dos      NEDOS =    301   number of ions     NIONS =      2
   non local maximal  LDIM  =      6   non local SUM 2l+1 LMDIM =     18
   total plane-waves  NPLWV =   1800
   max r-space proj   IRMAX =      1   max aug-charges    IRDMAX=   3429
   dimension x,y,z NGX =    10 NGY =   10 NGZ =   18
   dimension x,y,z NGXF=    20 NGYF=   20 NGZF=   36
   support grid    NGXF=    20 NGYF=   20 NGZF=   36
   ions per type =               2
   NGX,Y,Z   is equivalent  to a cutoff of   7.14,  7.14,  7.09 a.u.
   NGXF,Y,Z  is equivalent  to a cutoff of  14.27, 14.27, 14.17 a.u.

 SYSTEM =  unknown system                          
 POSCAR =  Fe                                      

 Startparameter for this run:
   NWRITE =      2    write-flag & timer
   PREC   = normal    normal or accurate (medium, high low for compatibility)
   ISTART =      0    job   : 0-new  1-cont  2-samecut
   ICHARG =      1    charge: 1-file 2-atom 10-const
   ISPIN  =      1    spin polarized calculation?
   LNONCOLLINEAR =      F non collinear calculations
   LSORBIT =      F    spin-orbit coupling
   INIWAV =      1    electr: 0-lowe 1-rand  2-diag
   LASPH  =      F    aspherical Exc in radial PAW
   METAGGA=      F    non-selfconsistent MetaGGA calc.

 Electronic Relaxation 1
   ENCUT  =  280.0 eV  20.58 Ry    4.54 a.u.   3.18  3.18  5.76*2*pi/ulx,y,z
   ENINI  =  280.0     initial cutoff
   ENAUG  =  511.4 eV  augmentation charge cutoff
   NELM   =     60;   NELMIN=  2; NELMDL= -5     # of ELM steps 
   EDIFF  = 0.1E-05   stopping-criterion for ELM
   LREAL  =      F    real-space projection
   NLSPLINE    = F    spline interpolate recip. space projectors
   LCOMPAT=      F    compatible to vasp.4.4
   GGA_COMPAT  = T    GGA compatible to vasp.4.4-vasp.4.6
   LMAXPAW     = -100 max onsite density
   LMAXMIX     =    2 max onsite mixed and CHGCAR
   VOSKOWN=      0    Vosko Wilk Nusair interpolation
   ROPT   =    0.00000
 Ionic relaxation
   EDIFFG = 0.1E-04   stopping-criterion for IOM
   NSW    =      0    number of steps for IOM
   NBLOCK =      1;   KBLOCK =      1    inner block; outer block 
   IBRION =     -1    ionic relax: 0-MD 1-quasi-New 2-CG
   NFREE  =      0    steps in history (QN), initial steepest desc. (CG)
   ISIF   =      2    stress and relaxation
   IWAVPR =      0    prediction:  0-non 1-charg 2-wave 3-comb
   ISYM   =      2    0-nonsym 1-usesym 2-fastsym
   LCORR  =      T    Harris-Foulkes like correction to forces

   POTIM  = 0.5000    time-step for ionic-motion
   TEIN   =    0.0    initial temperature
   TEBEG  =    0.0;   TEEND  =   0.0 temperature during run
   SMASS  =  -3.00    Nose mass-parameter (am)
   estimated Nose-frequenzy (Omega)   =  0.10E-29 period in steps = 0.13E+47 mass=  -0.124E-27a.u.
   SCALEE = 1.0000    scale energy and forces
   NPACO  =    256;   APACO  = 16.0  distance and # of slots for P.C.
   PSTRESS=    0.0 pullay stress

  Mass of Ions in am
   POMASS =  55.85
  Ionic Valenz
   ZVAL   =   8.00
  Atomic Wigner-Seitz radii
   RWIGS  =  -1.00
  virtual crystal weights 
   VCA    =   1.00
   NELECT =      16.0000    total number of electrons
   NUPDOWN=      -1.0000    fix difference up-down

 DOS related values:
   EMIN   =  10.00;   EMAX   =-10.00  energy-range for DOS
   EFERMI =   0.00
   ISMEAR =     1;   SIGMA  =   0.20  broadening in eV -4-tet -1-fermi 0-gaus

 Electronic relaxation 2 (details)
   IALGO  =     38    algorithm
   LDIAG  =      T    sub-space diagonalisation (order eigenvalues)
   LSUBROT=      F    optimize rotation matrix (better conditioning)
   TURBO    =      0    0=normal 1=particle mesh
   IRESTART =      0    0=no restart 2=restart with 2 vectors
   NREBOOT  =      0    no. of reboots
   NMIN     =      0    reboot dimension
   EREF     =   0.00    reference energy to select bands
   IMIX   =      4    mixing-type and parameters
     AMIX     =   0.40;   BMIX     =  1.00
     AMIX_MAG =   1.60;   BMIX_MAG =  1.00
     AMIN     =   0.10
     WC   =   100.;   INIMIX=   1;  MIXPRE=   1;  MAXMIX= -45

 Intra band minimization:
   WEIMIN = 0.0000     energy-eigenvalue tresh-hold
   EBREAK =  0.62E-08  absolut break condition
   DEPER  =   0.30     relativ break condition  

   TIME   =   0.40     timestep for ELM

  volume/ion in A,a.u.               =       9.93        66.99
  Fermi-wavevector in a.u.,A,eV,Ry     =   1.523446  2.878895 31.577581  2.320887
  Thomas-Fermi vector in A             =   2.631888
 
 Write flags
   LWAVE        =      T    write WAVECAR
   LDOWNSAMPLE  =      F    k-point downsampling of WAVECAR
   LCHARG       =      T    write CHGCAR
   LVTOT        =      F    write LOCPOT, total local potential
   LVHAR        =      F    write LOCPOT, Hartree potential only
   LELF         =      F    write electronic localiz. function (ELF)
   LORBIT       =      0    0 simple, 1 ext, 2 COOP (PROOUT), +10 PAW based schemes


 Dipole corrections
   LMONO  =      F    monopole corrections only (constant potential shift)
   LDIPOL =      F    correct potential (dipole corrections)
   IDIPOL =      0    1-x, 2-y, 3-z, 4-all directions 
   EPSILON=  1.0000000 bulk dielectric constant

 Exchange correlation treatment:
   GGA     =    PE    GGA type
   LEXCH   =     8    internal setting for exchange type
   VOSKOWN=      0    Vosko Wilk Nusair interpolation
   LHFCALC =     F    Hartree Fock is set to
   LHFONE  =     F    Hartree Fock one center treatment
   AEXX    =    0.0000 exact exchange contribution

 Linear response parameters
   LEPSILON=     F    determine dielectric tensor
   LRPA    =     F    only Hartree local field effects (RPA)
   LNABLA  =     F    use nabla operator in PAW spheres
   LVEL    =     F    velocity operator in full k-point grid
   LINTERFAST=   F  fast interpolation
   KINTER  =     0    interpolate to denser k-point grid
   CSHIFT  =0.1000    complex shift for real part using Kramers Kronig
   OMEGAMAX=  -1.0    maximum frequency
   DEG_THRESHOLD= 0.2000000E-02 threshold for treating states as degnerate
   RTIME   =   -0.100 relaxation time in fs
  (WPLASMAI=    0.000 imaginary part of plasma frequency in eV, 0.658/RTIME)
   DFIELD  = 0.0000000 0.0000000 0.0000000 field for delta impulse in time
 
 Orbital magnetization related:
   ORBITALMAG=     F  switch on orbital magnetization
   LCHIMAG   =     F  perturbation theory with respect to B field
   DQ        =  0.001000  dq finite difference perturbation B field
   LLRAUG    =     F  two centre corrections for induced B field



--------------------------------------------------------------------------------------------------------


 Static calculation
 charge density and potential will be updated during run
 non-spin polarized calculation
 Variant of blocked Davidson
 Davidson routine will perform the subspace rotation
 perform sub-space diagonalisation
    after iterative eigenvector-optimisation
 modified Broyden-mixing scheme, WC =      100.0
 initial mixing is a Kerker type mixing with AMIX =  0.4000 and BMIX =      1.0000
 Hartree-type preconditioning will be used
 using additional bands           32
 reciprocal scheme for non local part
 use partial core corrections
 calculate Harris-corrections to forces 
   (improved forces if not selfconsistent)
 use gradient corrections 
 use of overlap-Matrix (Vanderbilt PP)
 Methfessel and Paxton  Order N= 1 SIGMA  =   0.20


--------------------------------------------------------------------------------------------------------


  energy-cutoff  :      280.00
  volume of cell :       19.85
      direct lattice vectors                 reciprocal lattice vectors
     2.330000000  0.000000000  0.000000000     0.429184549  0.247789815  0.000000000
    -1.165000000  2.017839191  0.000000000     0.000000000  0.495579630  0.000000000
     0.000000000  0.000000000  4.223000000     0.000000000  0.000000000  0.236798484

  length of vectors
     2.330000000  2.330000000  4.223000000     0.495579630  0.495579630  0.236798484


 
 k-points in units of 2pi/SCALE and weight: KPOINTS created by Atomic Simulation Env
   0.00000000  0.00000000  0.00000000       0.001
   0.03901678  0.02252635  0.00000000       0.005
   0.07803355  0.04505269  0.00000000       0.005
   0.11705033  0.06757904  0.00000000       0.005
   0.15606711  0.09010539  0.00000000       0.005
   0.19508389  0.11263173  0.00000000       0.005
   0.03901678  0.06757904  0.00000000       0.005
   0.07803355  0.09010539  0.00000000       0.009
   0.11705033  0.11263173  0.00000000       0.009
   0.15606711  0.13515808  0.00000000       0.009
   0.19508389  0.15768443  0.00000000       0.005
   0.07803355  0.13515808  0.00000000       0.005
   0.11705033  0.15768443  0.00000000       0.009
   0.15606711  0.18021077  0.00000000       0.009
   0.11705033  0.20273712  0.00000000       0.005
   0.15606711  0.22526347  0.00000000       0.005
   0.00000000  0.00000000  0.02152713       0.002
   0.03901678  0.02252635  0.02152713       0.009
   0.07803355  0.04505269  0.02152713       0.009
   0.11705033  0.06757904  0.02152713       0.009
   0.15606711  0.09010539  0.02152713       0.009
   0.19508389  0.11263173  0.02152713       0.009
   0.03901678  0.06757904  0.02152713       0.009
   0.07803355  0.09010539  0.02152713       0.018
   0.11705033  0.11263173  0.02152713       0.018
   0.15606711  0.13515808  0.02152713       0.018
   0.19508389  0.15768443  0.02152713       0.009
   0.07803355  0.13515808  0.02152713       0.009
   0.11705033  0.15768443  0.02152713       0.018
   0.15606711  0.18021077  0.02152713       0.018
   0.11705033  0.20273712  0.02152713       0.009
   0.15606711  0.22526347  0.02152713       0.009
   0.00000000  0.00000000  0.04305427       0.002
   0.03901678  0.02252635  0.04305427       0.009
   0.07803355  0.04505269  0.04305427       0.009
   0.11705033  0.06757904  0.04305427       0.009
   0.15606711  0.09010539  0.04305427       0.009
   0.19508389  0.11263173  0.04305427       0.009
   0.03901678  0.06757904  0.04305427       0.009
   0.07803355  0.09010539  0.04305427       0.018
   0.11705033  0.11263173  0.04305427       0.018
   0.15606711  0.13515808  0.04305427       0.018
   0.19508389  0.15768443  0.04305427       0.009
   0.07803355  0.13515808  0.04305427       0.009
   0.11705033  0.15768443  0.04305427       0.018
   0.15606711  0.18021077  0.04305427       0.018
   0.11705033  0.20273712  0.04305427       0.009
   0.15606711  0.22526347  0.04305427       0.009
   0.00000000  0.00000000  0.06458140       0.002
   0.03901678  0.02252635  0.06458140       0.009
   0.07803355  0.04505269  0.06458140       0.009
   0.11705033  0.06757904  0.06458140       0.009
   0.15606711  0.09010539  0.06458140       0.009
   0.19508389  0.11263173  0.06458140       0.009
   0.03901678  0.06757904  0.06458140       0.009
   0.07803355  0.09010539  0.06458140       0.018
   0.11705033  0.11263173  0.06458140       0.018
   0.15606711  0.13515808  0.06458140       0.018
   0.19508389  0.15768443  0.06458140       0.009
   0.07803355  0.13515808  0.06458140       0.009
   0.11705033  0.15768443  0.06458140       0.018
   0.15606711  0.18021077  0.06458140       0.018
   0.11705033  0.20273712  0.06458140       0.009
   0.15606711  0.22526347  0.06458140       0.009
   0.00000000  0.00000000  0.08610854       0.002
   0.03901678  0.02252635  0.08610854       0.009
   0.07803355  0.04505269  0.08610854       0.009
   0.11705033  0.06757904  0.08610854       0.009
   0.15606711  0.09010539  0.08610854       0.009
   0.19508389  0.11263173  0.08610854       0.009
   0.03901678  0.06757904  0.08610854       0.009
   0.07803355  0.09010539  0.08610854       0.018
   0.11705033  0.11263173  0.08610854       0.018
   0.15606711  0.13515808  0.08610854       0.018
   0.19508389  0.15768443  0.08610854       0.009
   0.07803355  0.13515808  0.08610854       0.009
   0.11705033  0.15768443  0.08610854       0.018
   0.15606711  0.18021077  0.08610854       0.018
   0.11705033  0.20273712  0.08610854       0.009
   0.15606711  0.22526347  0.08610854       0.009
   0.00000000  0.00000000  0.10763567       0.002
   0.03901678  0.02252635  0.10763567       0.009
   0.07803355  0.04505269  0.10763567       0.009
   0.11705033  0.06757904  0.10763567       0.009
   0.15606711  0.09010539  0.10763567       0.009
   0.19508389  0.11263173  0.10763567       0.009
   0.03901678  0.06757904  0.10763567       0.009
   0.07803355  0.09010539  0.10763567       0.018
   0.11705033  0.11263173  0.10763567       0.018
   0.15606711  0.13515808  0.10763567       0.018
   0.19508389  0.15768443  0.10763567       0.009
   0.07803355  0.13515808  0.10763567       0.009
   0.11705033  0.15768443  0.10763567       0.018
   0.15606711  0.18021077  0.10763567       0.018
   0.11705033  0.20273712  0.10763567       0.009
   0.15606711  0.22526347  0.10763567       0.009
 
 k-points in reciprocal lattice and weights: KPOINTS created by Atomic Simulation Env
   0.00000000  0.00000000  0.00000000       0.001
   0.09090909  0.00000000  0.00000000       0.005
   0.18181818  0.00000000  0.00000000       0.005
   0.27272727  0.00000000  0.00000000       0.005
   0.36363636  0.00000000  0.00000000       0.005
   0.45454545  0.00000000  0.00000000       0.005
   0.09090909  0.09090909  0.00000000       0.005
   0.18181818  0.09090909  0.00000000       0.009
   0.27272727  0.09090909  0.00000000       0.009
   0.36363636  0.09090909  0.00000000       0.009
   0.45454545  0.09090909  0.00000000       0.005
   0.18181818  0.18181818  0.00000000       0.005
   0.27272727  0.18181818  0.00000000       0.009
   0.36363636  0.18181818  0.00000000       0.009
   0.27272727  0.27272727  0.00000000       0.005
   0.36363636  0.27272727  0.00000000       0.005
   0.00000000  0.00000000  0.09090909       0.002
   0.09090909  0.00000000  0.09090909       0.009
   0.18181818  0.00000000  0.09090909       0.009
   0.27272727  0.00000000  0.09090909       0.009
   0.36363636  0.00000000  0.09090909       0.009
   0.45454545  0.00000000  0.09090909       0.009
   0.09090909  0.09090909  0.09090909       0.009
   0.18181818  0.09090909  0.09090909       0.018
   0.27272727  0.09090909  0.09090909       0.018
   0.36363636  0.09090909  0.09090909       0.018
   0.45454545  0.09090909  0.09090909       0.009
   0.18181818  0.18181818  0.09090909       0.009
   0.27272727  0.18181818  0.09090909       0.018
   0.36363636  0.18181818  0.09090909       0.018
   0.27272727  0.27272727  0.09090909       0.009
   0.36363636  0.27272727  0.09090909       0.009
   0.00000000  0.00000000  0.18181818       0.002
   0.09090909  0.00000000  0.18181818       0.009
   0.18181818  0.00000000  0.18181818       0.009
   0.27272727  0.00000000  0.18181818       0.009
   0.36363636  0.00000000  0.18181818       0.009
   0.45454545  0.00000000  0.18181818       0.009
   0.09090909  0.09090909  0.18181818       0.009
   0.18181818  0.09090909  0.18181818       0.018
   0.27272727  0.09090909  0.18181818       0.018
   0.36363636  0.09090909  0.18181818       0.018
   0.45454545  0.09090909  0.18181818       0.009
   0.18181818  0.18181818  0.18181818       0.009
   0.27272727  0.18181818  0.18181818       0.018
   0.36363636  0.18181818  0.18181818       0.018
   0.27272727  0.27272727  0.18181818       0.009
   0.36363636  0.27272727  0.18181818       0.009
   0.00000000  0.00000000  0.27272727       0.002
   0.09090909  0.00000000  0.27272727       0.009
   0.18181818  0.00000000  0.27272727       0.009
   0.27272727  0.00000000  0.27272727       0.009
   0.36363636  0.00000000  0.27272727       0.009
   0.45454545  0.00000000  0.27272727       0.009
   0.09090909  0.09090909  0.27272727       0.009
   0.18181818  0.09090909  0.27272727       0.018
   0.27272727  0.09090909  0.27272727       0.018
   0.36363636  0.09090909  0.27272727       0.018
   0.45454545  0.09090909  0.27272727       0.009
   0.18181818  0.18181818  0.27272727       0.009
   0.27272727  0.18181818  0.27272727       0.018
   0.36363636  0.18181818  0.27272727       0.018
   0.27272727  0.27272727  0.27272727       0.009
   0.36363636  0.27272727  0.27272727       0.009
   0.00000000  0.00000000  0.36363636       0.002
   0.09090909  0.00000000  0.36363636       0.009
   0.18181818  0.00000000  0.36363636       0.009
   0.27272727  0.00000000  0.36363636       0.009
   0.36363636  0.00000000  0.36363636       0.009
   0.45454545  0.00000000  0.36363636       0.009
   0.09090909  0.09090909  0.36363636       0.009
   0.18181818  0.09090909  0.36363636       0.018
   0.27272727  0.09090909  0.36363636       0.018
   0.36363636  0.09090909  0.36363636       0.018
   0.45454545  0.09090909  0.36363636       0.009
   0.18181818  0.18181818  0.36363636       0.009
   0.27272727  0.18181818  0.36363636       0.018
   0.36363636  0.18181818  0.36363636       0.018
   0.27272727  0.27272727  0.36363636       0.009
   0.36363636  0.27272727  0.36363636       0.009
   0.00000000  0.00000000  0.45454545       0.002
   0.09090909  0.00000000  0.45454545       0.009
   0.18181818  0.00000000  0.45454545       0.009
   0.27272727  0.00000000  0.45454545       0.009
   0.36363636  0.00000000  0.45454545       0.009
   0.45454545  0.00000000  0.45454545       0.009
   0.09090909  0.09090909  0.45454545       0.009
   0.18181818  0.09090909  0.45454545       0.018
   0.27272727  0.09090909  0.45454545       0.018
   0.36363636  0.09090909  0.45454545       0.018
   0.45454545  0.09090909  0.45454545       0.009
   0.18181818  0.18181818  0.45454545       0.009
   0.27272727  0.18181818  0.45454545       0.018
   0.36363636  0.18181818  0.45454545       0.018
   0.27272727  0.27272727  0.45454545       0.009
   0.36363636  0.27272727  0.45454545       0.009
 
 position of ions in fractional coordinates (direct lattice) 
   0.00000000  0.00000000  0.00000000
   0.33333333  0.66666667  0.50000000
 
 position of ions in cartesian coordinates  (Angst):
   0.00000000  0.00000000  0.00000000
   0.00000000  1.34522613  2.11150000
 


--------------------------------------------------------------------------------------------------------


 k-point   1 :   0.0000 0.0000 0.0000  plane waves:     209
 k-point   2 :   0.0909 0.0000 0.0000  plane waves:     215
 k-point   3 :   0.1818 0.0000 0.0000  plane waves:     211
 k-point   4 :   0.2727 0.0000 0.0000  plane waves:     212
 k-point   5 :   0.3636 0.0000 0.0000  plane waves:     208
 k-point   6 :   0.4545 0.0000 0.0000  plane waves:     214
 k-point   7 :   0.0909 0.0909 0.0000  plane waves:     211
 k-point   8 :   0.1818 0.0909 0.0000  plane waves:     210
 k-point   9 :   0.2727 0.0909 0.0000  plane waves:     213
 k-point  10 :   0.3636 0.0909 0.0000  plane waves:     214
 k-point  11 :   0.4545 0.0909 0.0000  plane waves:     214
 k-point  12 :   0.1818 0.1818 0.0000  plane waves:     211
 k-point  13 :   0.2727 0.1818 0.0000  plane waves:     209
 k-point  14 :   0.3636 0.1818 0.0000  plane waves:     211
 k-point  15 :   0.2727 0.2727 0.0000  plane waves:     205
 k-point  16 :   0.3636 0.2727 0.0000  plane waves:     211
 k-point  17 :   0.0000 0.0000 0.0909  plane waves:     215
 k-point  18 :   0.0909 0.0000 0.0909  plane waves:     213
 k-point  19 :   0.1818 0.0000 0.0909  plane waves:     211
 k-point  20 :   0.2727 0.0000 0.0909  plane waves:     208
 k-point  21 :   0.3636 0.0000 0.0909  plane waves:     210
 k-point  22 :   0.4545 0.0000 0.0909  plane waves:     212
 k-point  23 :   0.0909 0.0909 0.0909  plane waves:     213
 k-point  24 :   0.1818 0.0909 0.0909  plane waves:     208
 k-point  25 :   0.2727 0.0909 0.0909  plane waves:     213
 k-point  26 :   0.3636 0.0909 0.0909  plane waves:     214
 k-point  27 :   0.4545 0.0909 0.0909  plane waves:     216
 k-point  28 :   0.1818 0.1818 0.0909  plane waves:     210
 k-point  29 :   0.2727 0.1818 0.0909  plane waves:     212
 k-point  30 :   0.3636 0.1818 0.0909  plane waves:     210
 k-point  31 :   0.2727 0.2727 0.0909  plane waves:     211
 k-point  32 :   0.3636 0.2727 0.0909  plane waves:     212
 k-point  33 :   0.0000 0.0000 0.1818  plane waves:     215
 k-point  34 :   0.0909 0.0000 0.1818  plane waves:     212
 k-point  35 :   0.1818 0.0000 0.1818  plane waves:     209
 k-point  36 :   0.2727 0.0000 0.1818  plane waves:     213
 k-point  37 :   0.3636 0.0000 0.1818  plane waves:     212
 k-point  38 :   0.4545 0.0000 0.1818  plane waves:     211
 k-point  39 :   0.0909 0.0909 0.1818  plane waves:     213
 k-point  40 :   0.1818 0.0909 0.1818  plane waves:     208
 k-point  41 :   0.2727 0.0909 0.1818  plane waves:     211
 k-point  42 :   0.3636 0.0909 0.1818  plane waves:     214
 k-point  43 :   0.4545 0.0909 0.1818  plane waves:     216
 k-point  44 :   0.1818 0.1818 0.1818  plane waves:     207
 k-point  45 :   0.2727 0.1818 0.1818  plane waves:     211
 k-point  46 :   0.3636 0.1818 0.1818  plane waves:     211
 k-point  47 :   0.2727 0.2727 0.1818  plane waves:     214
 k-point  48 :   0.3636 0.2727 0.1818  plane waves:     214
 k-point  49 :   0.0000 0.0000 0.2727  plane waves:     216
 k-point  50 :   0.0909 0.0000 0.2727  plane waves:     214
 k-point  51 :   0.1818 0.0000 0.2727  plane waves:     209
 k-point  52 :   0.2727 0.0000 0.2727  plane waves:     210
 k-point  53 :   0.3636 0.0000 0.2727  plane waves:     212
 k-point  54 :   0.4545 0.0000 0.2727  plane waves:     211
 k-point  55 :   0.0909 0.0909 0.2727  plane waves:     205
 k-point  56 :   0.1818 0.0909 0.2727  plane waves:     208
 k-point  57 :   0.2727 0.0909 0.2727  plane waves:     211
 k-point  58 :   0.3636 0.0909 0.2727  plane waves:     212
 k-point  59 :   0.4545 0.0909 0.2727  plane waves:     214
 k-point  60 :   0.1818 0.1818 0.2727  plane waves:     205
 k-point  61 :   0.2727 0.1818 0.2727  plane waves:     210
 k-point  62 :   0.3636 0.1818 0.2727  plane waves:     212
 k-point  63 :   0.2727 0.2727 0.2727  plane waves:     216
 k-point  64 :   0.3636 0.2727 0.2727  plane waves:     214
 k-point  65 :   0.0000 0.0000 0.3636  plane waves:     216
 k-point  66 :   0.0909 0.0000 0.3636  plane waves:     213
 k-point  67 :   0.1818 0.0000 0.3636  plane waves:     206
 k-point  68 :   0.2727 0.0000 0.3636  plane waves:     212
 k-point  69 :   0.3636 0.0000 0.3636  plane waves:     212
 k-point  70 :   0.4545 0.0000 0.3636  plane waves:     209
 k-point  71 :   0.0909 0.0909 0.3636  plane waves:     202
 k-point  72 :   0.1818 0.0909 0.3636  plane waves:     206
 k-point  73 :   0.2727 0.0909 0.3636  plane waves:     208
 k-point  74 :   0.3636 0.0909 0.3636  plane waves:     212
 k-point  75 :   0.4545 0.0909 0.3636  plane waves:     214
 k-point  76 :   0.1818 0.1818 0.3636  plane waves:     208
 k-point  77 :   0.2727 0.1818 0.3636  plane waves:     212
 k-point  78 :   0.3636 0.1818 0.3636  plane waves:     215
 k-point  79 :   0.2727 0.2727 0.3636  plane waves:     217
 k-point  80 :   0.3636 0.2727 0.3636  plane waves:     217
 k-point  81 :   0.0000 0.0000 0.4545  plane waves:     222
 k-point  82 :   0.0909 0.0000 0.4545  plane waves:     210
 k-point  83 :   0.1818 0.0000 0.4545  plane waves:     204
 k-point  84 :   0.2727 0.0000 0.4545  plane waves:     211
 k-point  85 :   0.3636 0.0000 0.4545  plane waves:     212
 k-point  86 :   0.4545 0.0000 0.4545  plane waves:     208
 k-point  87 :   0.0909 0.0909 0.4545  plane waves:     204
 k-point  88 :   0.1818 0.0909 0.4545  plane waves:     205
 k-point  89 :   0.2727 0.0909 0.4545  plane waves:     210
 k-point  90 :   0.3636 0.0909 0.4545  plane waves:     209
 k-point  91 :   0.4545 0.0909 0.4545  plane waves:     209
 k-point  92 :   0.1818 0.1818 0.4545  plane waves:     212
 k-point  93 :   0.2727 0.1818 0.4545  plane waves:     215
 k-point  94 :   0.3636 0.1818 0.4545  plane waves:     219
 k-point  95 :   0.2727 0.2727 0.4545  plane waves:     218
 k-point  96 :   0.3636 0.2727 0.4545  plane waves:     218

 maximum number of plane-waves:       222
 maximum index in each direction: 
   IXMAX=    3   IYMAX=    3   IZMAX=    5
   IXMIN=   -3   IYMIN=   -3   IZMIN=   -6


 total amount of memory used by VASP MPI-rank0    49770. kBytes
=======================================================================

   base      :      30000. kBytes
   nonl-proj :       3076. kBytes
   grid      :        812. kBytes
   one-center:         31. kBytes
   wavefun   :      15851. kBytes
 
     INWAV:  cpu time    0.0000: real time    0.0000
 Broyden mixing: mesh for mixing (old mesh)
   NGX =  7   NGY =  7   NGZ = 11
  (NGX  = 20   NGY  = 20   NGZ  = 36)
  gives a total of    539 points

 initial charge density was supplied:
 charge density of overlapping atoms calculated
 number of electron      16.0000000 magnetization 
 keeping initial charge density in first step


--------------------------------------------------------------------------------------------------------


 Maximum index for augmentation-charges         3156 (set IRDMAX)


--------------------------------------------------------------------------------------------------------


 First call to EWALD:  gamma=   0.655
 Maximum number of real-space cells 4x 4x 2
 Maximum number of reciprocal cells 2x 2x 4

    FEWALD:  cpu time    0.0009: real time    0.0009


--------------------------------------- Iteration      1(   1)  ---------------------------------------


    POTLOK:  cpu time    0.0036: real time    0.0036
    SETDIJ:  cpu time    0.0021: real time    0.0021
     EDDAV:  cpu time    0.7993: real time    0.8199
       DOS:  cpu time    0.0057: real time    0.0057
    --------------------------------------------
      LOOP:  cpu time    0.8107: real time    0.8314

 eigenvalue-minimisations  :  9304
 total energy-change (2. order) : 0.6111872E+02  (-0.2653751E+03)
 number of electron      16.0000000 magnetization 
 augmentation part       16.0000000 magnetization 

 Free energy of the ion-electron system (eV)
  ---------------------------------------------------
  alpha Z        PSCENC =       139.23905184
  Ewald energy   TEWEN  =     -1236.38624768
  -Hartree energ DENC   =      -204.37240031
  -exchange      EXHF   =         0.00000000
  -V(xc)+E(xc)   XCENC  =         8.66849305
  PAW double counting   =      1109.69170683    -1125.09647265
  entropy T*S    EENTRO =         0.00197461
  eigenvalues    EBANDS =       180.79770539
  atomic energy  EATOM  =      1188.57490811
  Solvation  Ediel_sol  =         0.00000000
  ---------------------------------------------------
  free energy    TOTEN  =        61.11871919 eV

  energy without entropy =       61.11674458  energy(sigma->0) =       61.11806099


--------------------------------------------------------------------------------------------------------




--------------------------------------- Iteration      1(   2)  ---------------------------------------


     EDDAV:  cpu time    0.6840: real time    0.6840
       DOS:  cpu time    0.0061: real time    0.0061
    --------------------------------------------
      LOOP:  cpu time    0.6901: real time    0.6902

 eigenvalue-minimisations  :  7904
 total energy-change (2. order) :-0.7577023E+02  (-0.6459664E+02)
 number of electron      16.0000000 magnetization 
 augmentation part       16.0000000 magnetization 

 Free energy of the ion-electron system (eV)
  ---------------------------------------------------
  alpha Z        PSCENC =       139.23905184
  Ewald energy   TEWEN  =     -1236.38624768
  -Hartree energ DENC   =      -204.37240031
  -exchange      EXHF   =         0.00000000
  -V(xc)+E(xc)   XCENC  =         8.66849305
  PAW double counting   =      1109.69170683    -1125.09647265
  entropy T*S    EENTRO =        -0.00066816
  eigenvalues    EBANDS =       105.03012011
  atomic energy  EATOM  =      1188.57490811
  Solvation  Ediel_sol  =         0.00000000
  ---------------------------------------------------
  free energy    TOTEN  =       -14.65150886 eV

  energy without entropy =      -14.65084070  energy(sigma->0) =      -14.65128614


--------------------------------------------------------------------------------------------------------




--------------------------------------- Iteration      1(   3)  ---------------------------------------


     EDDAV:  cpu time    0.7940: real time    0.7940
       DOS:  cpu time    0.0065: real time    0.0065
    --------------------------------------------
      LOOP:  cpu time    0.8006: real time    0.8006

 eigenvalue-minimisations  :  9552
 total energy-change (2. order) :-0.4255232E+01  (-0.4049820E+01)
 number of electron      16.0000000 magnetization 
 augmentation part       16.0000000 magnetization 

 Free energy of the ion-electron system (eV)
  ---------------------------------------------------
  alpha Z        PSCENC =       139.23905184
  Ewald energy   TEWEN  =     -1236.38624768
  -Hartree energ DENC   =      -204.37240031
  -exchange      EXHF   =         0.00000000
  -V(xc)+E(xc)   XCENC  =         8.66849305
  PAW double counting   =      1109.69170683    -1125.09647265
  entropy T*S    EENTRO =         0.00016667
  eigenvalues    EBANDS =       100.77405305
  atomic energy  EATOM  =      1188.57490811
  Solvation  Ediel_sol  =         0.00000000
  ---------------------------------------------------
  free energy    TOTEN  =       -18.90674109 eV

  energy without entropy =      -18.90690776  energy(sigma->0) =      -18.90679664


--------------------------------------------------------------------------------------------------------




--------------------------------------- Iteration      1(   4)  ---------------------------------------


     EDDAV:  cpu time    0.7963: real time    0.7963
       DOS:  cpu time    0.0064: real time    0.0064
    --------------------------------------------
      LOOP:  cpu time    0.8027: real time    0.8027

 eigenvalue-minimisations  :  9176
 total energy-change (2. order) :-0.1816333E-01  (-0.1815205E-01)
 number of electron      16.0000000 magnetization 
 augmentation part       16.0000000 magnetization 

 Free energy of the ion-electron system (eV)
  ---------------------------------------------------
  alpha Z        PSCENC =       139.23905184
  Ewald energy   TEWEN  =     -1236.38624768
  -Hartree energ DENC   =      -204.37240031
  -exchange      EXHF   =         0.00000000
  -V(xc)+E(xc)   XCENC  =         8.66849305
  PAW double counting   =      1109.69170683    -1125.09647265
  entropy T*S    EENTRO =         0.00017015
  eigenvalues    EBANDS =       100.75588623
  atomic energy  EATOM  =      1188.57490811
  Solvation  Ediel_sol  =         0.00000000
  ---------------------------------------------------
  free energy    TOTEN  =       -18.92490442 eV

  energy without entropy =      -18.92507457  energy(sigma->0) =      -18.92496114


--------------------------------------------------------------------------------------------------------




--------------------------------------- Iteration      1(   5)  ---------------------------------------


     EDDAV:  cpu time    0.7663: real time    0.7664
       DOS:  cpu time    0.0065: real time    0.0065
    CHARGE:  cpu time    0.0198: real time    0.0198
    MIXING:  cpu time    0.0001: real time    0.0001
    --------------------------------------------
      LOOP:  cpu time    0.7928: real time    0.7929

 eigenvalue-minimisations  :  9120
 total energy-change (2. order) :-0.1944113E-04  (-0.1944103E-04)
 number of electron      15.9999967 magnetization 
 augmentation part        7.1111905 magnetization 

 Broyden mixing:
  rms(total) = 0.17427E+01    rms(broyden)= 0.17427E+01
  rms(prec ) = 0.28674E+01
  weight for this iteration     100.00

 Free energy of the ion-electron system (eV)
  ---------------------------------------------------
  alpha Z        PSCENC =       139.23905184
  Ewald energy   TEWEN  =     -1236.38624768
  -Hartree energ DENC   =      -204.37240031
  -exchange      EXHF   =         0.00000000
  -V(xc)+E(xc)   XCENC  =         8.66849305
  PAW double counting   =      1109.69170683    -1125.09647265
  entropy T*S    EENTRO =         0.00017011
  eigenvalues    EBANDS =       100.75586683
  atomic energy  EATOM  =      1188.57490811
  Solvation  Ediel_sol  =         0.00000000
  ---------------------------------------------------
  free energy    TOTEN  =       -18.92492386 eV

  energy without entropy =      -18.92509398  energy(sigma->0) =      -18.92498057


--------------------------------------------------------------------------------------------------------




--------------------------------------- Iteration      1(   6)  ---------------------------------------


    POTLOK:  cpu time    0.0034: real time    0.0034
    SETDIJ:  cpu time    0.0021: real time    0.0021
     EDDAV:  cpu time    0.9016: real time    0.9016
       DOS:  cpu time    0.0063: real time    0.0063
    CHARGE:  cpu time    0.0193: real time    0.0193
    MIXING:  cpu time    0.0002: real time    0.0002
    --------------------------------------------
      LOOP:  cpu time    0.9328: real time    0.9328

 eigenvalue-minimisations  : 11184
 total energy-change (2. order) : 0.2770853E+01  (-0.1757115E+00)
 number of electron      15.9999955 magnetization 
 augmentation part        8.4545478 magnetization 

 Broyden mixing:
  rms(total) = 0.21906E+00    rms(broyden)= 0.21894E+00
  rms(prec ) = 0.36394E+00
  weight for this iteration     100.00

 eigenvalues of (default mixing * dielectric matrix)
  average eigenvalue GAMMA=   0.9479
  0.9479

 Free energy of the ion-electron system (eV)
  ---------------------------------------------------
  alpha Z        PSCENC =       139.23905184
  Ewald energy   TEWEN  =     -1236.38624768
  -Hartree energ DENC   =      -170.93555684
  -exchange      EXHF   =         0.00000000
  -V(xc)+E(xc)   XCENC  =         7.03496400
  PAW double counting   =      1272.50247322    -1283.79900981
  entropy T*S    EENTRO =         0.00236723
  eigenvalues    EBANDS =        67.61297925
  atomic energy  EATOM  =      1188.57490811
  Solvation  Ediel_sol  =         0.00000000
  ---------------------------------------------------
  free energy    TOTEN  =       -16.15407068 eV

  energy without entropy =      -16.15643791  energy(sigma->0) =      -16.15485976


--------------------------------------------------------------------------------------------------------




--------------------------------------- Iteration      1(   7)  ---------------------------------------


    POTLOK:  cpu time    0.0034: real time    0.0034
    SETDIJ:  cpu time    0.0021: real time    0.0021
     EDDAV:  cpu time    0.8234: real time    0.8235
       DOS:  cpu time    0.0062: real time    0.0062
    CHARGE:  cpu time    0.0194: real time    0.0194
    MIXING:  cpu time    0.0002: real time    0.0002
    --------------------------------------------
      LOOP:  cpu time    0.8548: real time    0.8548

 eigenvalue-minimisations  : 10152
 total energy-change (2. order) : 0.1742673E+00  (-0.1088034E-01)
 number of electron      15.9999957 magnetization 
 augmentation part        8.1825976 magnetization 

 Broyden mixing:
  rms(total) = 0.11872E+00    rms(broyden)= 0.11872E+00
  rms(prec ) = 0.20521E+00
  weight for this iteration     100.00

 eigenvalues of (default mixing * dielectric matrix)
  average eigenvalue GAMMA=   1.0269
  1.2916  0.7623

 Free energy of the ion-electron system (eV)
  ---------------------------------------------------
  alpha Z        PSCENC =       139.23905184
  Ewald energy   TEWEN  =     -1236.38624768
  -Hartree energ DENC   =      -174.56658736
  -exchange      EXHF   =         0.00000000
  -V(xc)+E(xc)   XCENC  =         7.24221784
  PAW double counting   =      1356.91814961    -1371.72034149
  entropy T*S    EENTRO =         0.00229717
  eigenvalues    EBANDS =        74.71674855
  atomic energy  EATOM  =      1188.57490811
  Solvation  Ediel_sol  =         0.00000000
  ---------------------------------------------------
  free energy    TOTEN  =       -15.97980340 eV

  energy without entropy =      -15.98210057  energy(sigma->0) =      -15.98056913


--------------------------------------------------------------------------------------------------------




--------------------------------------- Iteration      1(   8)  ---------------------------------------


    POTLOK:  cpu time    0.0034: real time    0.0034
    SETDIJ:  cpu time    0.0021: real time    0.0021
     EDDAV:  cpu time    0.8273: real time    0.8273
       DOS:  cpu time    0.0067: real time    0.0067
    CHARGE:  cpu time    0.0195: real time    0.0195
    MIXING:  cpu time    0.0002: real time    0.0002
    --------------------------------------------
      LOOP:  cpu time    0.8592: real time    0.8592

 eigenvalue-minimisations  : 10096
 total energy-change (2. order) : 0.2889321E-01  (-0.3334139E-03)
 number of electron      15.9999957 magnetization 
 augmentation part        8.2121845 magnetization 

 Broyden mixing:
  rms(total) = 0.51733E-01    rms(broyden)= 0.51732E-01
  rms(prec ) = 0.86849E-01
  weight for this iteration     100.00

 eigenvalues of (default mixing * dielectric matrix)
  average eigenvalue GAMMA=   1.4678
  0.8017  1.0448  2.5571

 Free energy of the ion-electron system (eV)
  ---------------------------------------------------
  alpha Z        PSCENC =       139.23905184
  Ewald energy   TEWEN  =     -1236.38624768
  -Hartree energ DENC   =      -172.37788834
  -exchange      EXHF   =         0.00000000
  -V(xc)+E(xc)   XCENC  =         7.15513195
  PAW double counting   =      1428.90780283    -1445.17914378
  entropy T*S    EENTRO =         0.00237330
  eigenvalues    EBANDS =        74.11310157
  atomic energy  EATOM  =      1188.57490811
  Solvation  Ediel_sol  =         0.00000000
  ---------------------------------------------------
  free energy    TOTEN  =       -15.95091019 eV

  energy without entropy =      -15.95328349  energy(sigma->0) =      -15.95170129


--------------------------------------------------------------------------------------------------------




--------------------------------------- Iteration      1(   9)  ---------------------------------------


    POTLOK:  cpu time    0.0034: real time    0.0034
    SETDIJ:  cpu time    0.0021: real time    0.0021
     EDDAV:  cpu time    0.8872: real time    0.8872
       DOS:  cpu time    0.0067: real time    0.0067
    CHARGE:  cpu time    0.0194: real time    0.0194
    MIXING:  cpu time    0.0002: real time    0.0002
    --------------------------------------------
      LOOP:  cpu time    0.9189: real time    0.9190

 eigenvalue-minimisations  : 10952
 total energy-change (2. order) : 0.9533603E-02  (-0.8924538E-04)
 number of electron      15.9999957 magnetization 
 augmentation part        8.2254089 magnetization 

 Broyden mixing:
  rms(total) = 0.54836E-02    rms(broyden)= 0.54813E-02
  rms(prec ) = 0.60185E-02
  weight for this iteration     100.00

 eigenvalues of (default mixing * dielectric matrix)
  average eigenvalue GAMMA=   1.5149
  2.6114  0.8019  0.9906  1.6558

 Free energy of the ion-electron system (eV)
  ---------------------------------------------------
  alpha Z        PSCENC =       139.23905184
  Ewald energy   TEWEN  =     -1236.38624768
  -Hartree energ DENC   =      -170.50271252
  -exchange      EXHF   =         0.00000000
  -V(xc)+E(xc)   XCENC  =         7.08612769
  PAW double counting   =      1509.06575401    -1526.94900132
  entropy T*S    EENTRO =         0.00238906
  eigenvalues    EBANDS =        73.92835421
  atomic energy  EATOM  =      1188.57490811
  Solvation  Ediel_sol  =         0.00000000
  ---------------------------------------------------
  free energy    TOTEN  =       -15.94137659 eV

  energy without entropy =      -15.94376565  energy(sigma->0) =      -15.94217294


--------------------------------------------------------------------------------------------------------




--------------------------------------- Iteration      1(  10)  ---------------------------------------


    POTLOK:  cpu time    0.0034: real time    0.0034
    SETDIJ:  cpu time    0.0021: real time    0.0021
     EDDAV:  cpu time    0.7414: real time    0.7414
       DOS:  cpu time    0.0067: real time    0.0067
    CHARGE:  cpu time    0.0192: real time    0.0192
    MIXING:  cpu time    0.0002: real time    0.0002
    --------------------------------------------
      LOOP:  cpu time    0.7731: real time    0.7731

 eigenvalue-minimisations  :  8872
 total energy-change (2. order) :-0.3349409E-04  (-0.3355722E-05)
 number of electron      15.9999957 magnetization 
 augmentation part        8.2257964 magnetization 

 Broyden mixing:
  rms(total) = 0.26244E-02    rms(broyden)= 0.26220E-02
  rms(prec ) = 0.34137E-02
  weight for this iteration     100.00

 eigenvalues of (default mixing * dielectric matrix)
  average eigenvalue GAMMA=   1.6297
  2.5381  2.5381  0.8016  1.0068  1.2639

 Free energy of the ion-electron system (eV)
  ---------------------------------------------------
  alpha Z        PSCENC =       139.23905184
  Ewald energy   TEWEN  =     -1236.38624768
  -Hartree energ DENC   =      -170.49779439
  -exchange      EXHF   =         0.00000000
  -V(xc)+E(xc)   XCENC  =         7.08713291
  PAW double counting   =      1512.75439953    -1530.62971628
  entropy T*S    EENTRO =         0.00238837
  eigenvalues    EBANDS =        73.91446749
  atomic energy  EATOM  =      1188.57490811
  Solvation  Ediel_sol  =         0.00000000
  ---------------------------------------------------
  free energy    TOTEN  =       -15.94141008 eV

  energy without entropy =      -15.94379845  energy(sigma->0) =      -15.94220620


--------------------------------------------------------------------------------------------------------




--------------------------------------- Iteration      1(  11)  ---------------------------------------


    POTLOK:  cpu time    0.0034: real time    0.0034
    SETDIJ:  cpu time    0.0021: real time    0.0021
     EDDAV:  cpu time    0.7499: real time    0.7499
       DOS:  cpu time    0.0065: real time    0.0065
    CHARGE:  cpu time    0.0194: real time    0.0194
    MIXING:  cpu time    0.0002: real time    0.0002
    --------------------------------------------
      LOOP:  cpu time    0.7816: real time    0.7816

 eigenvalue-minimisations  :  8952
 total energy-change (2. order) : 0.9380251E-05  (-0.5156576E-07)
 number of electron      15.9999957 magnetization 
 augmentation part        8.2255097 magnetization 

 Broyden mixing:
  rms(total) = 0.20396E-03    rms(broyden)= 0.20374E-03
  rms(prec ) = 0.28740E-03
  weight for this iteration     100.00

 eigenvalues of (default mixing * dielectric matrix)
  average eigenvalue GAMMA=   1.5484
  2.5754  2.5754  0.8014  1.0016  1.0016  1.3352

 Free energy of the ion-electron system (eV)
  ---------------------------------------------------
  alpha Z        PSCENC =       139.23905184
  Ewald energy   TEWEN  =     -1236.38624768
  -Hartree energ DENC   =      -170.55849866
  -exchange      EXHF   =         0.00000000
  -V(xc)+E(xc)   XCENC  =         7.09005576
  PAW double counting   =      1512.40807615    -1530.22598551
  entropy T*S    EENTRO =         0.00238808
  eigenvalues    EBANDS =        73.91485120
  atomic energy  EATOM  =      1188.57490811
  Solvation  Ediel_sol  =         0.00000000
  ---------------------------------------------------
  free energy    TOTEN  =       -15.94140070 eV

  energy without entropy =      -15.94378878  energy(sigma->0) =      -15.94219673


--------------------------------------------------------------------------------------------------------




--------------------------------------- Iteration      1(  12)  ---------------------------------------


    POTLOK:  cpu time    0.0035: real time    0.0035
    SETDIJ:  cpu time    0.0021: real time    0.0021
     EDDAV:  cpu time    0.5867: real time    0.5868
       DOS:  cpu time    0.0060: real time    0.0060
    CHARGE:  cpu time    0.0197: real time    0.0197
    MIXING:  cpu time    0.0002: real time    0.0002
    --------------------------------------------
      LOOP:  cpu time    0.6182: real time    0.6183

 eigenvalue-minimisations  :  6208
 total energy-change (2. order) : 0.1113385E-05  (-0.5087743E-08)
 number of electron      15.9999957 magnetization 
 augmentation part        8.2254945 magnetization 

 Broyden mixing:
  rms(total) = 0.10873E-03    rms(broyden)= 0.10866E-03
  rms(prec ) = 0.11449E-03
  weight for this iteration     100.00

 eigenvalues of (default mixing * dielectric matrix)
  average eigenvalue GAMMA=   1.6345
  2.6222  2.3515  2.3515  0.8014  1.0030  1.0030  1.3090

 Free energy of the ion-electron system (eV)
  ---------------------------------------------------
  alpha Z        PSCENC =       139.23905184
  Ewald energy   TEWEN  =     -1236.38624768
  -Hartree energ DENC   =      -170.56588862
  -exchange      EXHF   =         0.00000000
  -V(xc)+E(xc)   XCENC  =         7.09040055
  PAW double counting   =      1512.40045305    -1530.21106056
  entropy T*S    EENTRO =         0.00238811
  eigenvalues    EBANDS =        73.91459562
  atomic energy  EATOM  =      1188.57490811
  Solvation  Ediel_sol  =         0.00000000
  ---------------------------------------------------
  free energy    TOTEN  =       -15.94139959 eV

  energy without entropy =      -15.94378769  energy(sigma->0) =      -15.94219562


--------------------------------------------------------------------------------------------------------




--------------------------------------- Iteration      1(  13)  ---------------------------------------


    POTLOK:  cpu time    0.0034: real time    0.0034
    SETDIJ:  cpu time    0.0021: real time    0.0021
     EDDAV:  cpu time    0.5472: real time    0.5472
       DOS:  cpu time    0.0065: real time    0.0065
    --------------------------------------------
      LOOP:  cpu time    0.5592: real time    0.5592

 eigenvalue-minimisations  :  5520
 total energy-change (2. order) :-0.3187868E-06  (-0.4955155E-09)
 number of electron      15.9999957 magnetization 
 augmentation part        8.2254945 magnetization 

 Free energy of the ion-electron system (eV)
  ---------------------------------------------------
  alpha Z        PSCENC =       139.23905184
  Ewald energy   TEWEN  =     -1236.38624768
  -Hartree energ DENC   =      -170.56464408
  -exchange      EXHF   =         0.00000000
  -V(xc)+E(xc)   XCENC  =         7.09033893
  PAW double counting   =      1512.46919731    -1530.28130544
  entropy T*S    EENTRO =         0.00238808
  eigenvalues    EBANDS =        73.91491302
  atomic energy  EATOM  =      1188.57490811
  Solvation  Ediel_sol  =         0.00000000
  ---------------------------------------------------
  free energy    TOTEN  =       -15.94139991 eV

  energy without entropy =      -15.94378799  energy(sigma->0) =      -15.94219593


--------------------------------------------------------------------------------------------------------




 average (electrostatic) potential at core
  the test charge radii are     1.0103
  (the norm of the test charge is              1.0000)
       1 -42.3472       2 -42.3472
 
 
 
 E-fermi :   7.2133     XC(G=0): -13.9376     alpha+bet :-15.6139

 Fermi energy:         7.2133371990

 k-point     1 :       0.0000    0.0000    0.0000
  band No.  band energies     occupation 
      1      -1.8432      2.00000
      2       2.0052      2.00000
      3       4.7374      2.00000
      4       5.5796      2.00000
      5       5.5797      2.00000
      6       5.8605      2.00000
      7       5.8606      2.00000
      8       6.1715      2.00000
      9       7.0108      2.05278
     10       7.0108      2.05276
     11       7.9944     -0.00000
     12       7.9944     -0.00000
     13      14.3304      0.00000
     14      30.0457      0.00000
     15      31.2686      0.00000
     16      34.1274      0.00000
     17      36.9389      0.00000
     18      36.9805      0.00000
     19      36.9806      0.00000
     20      37.7518      0.00000
     21      37.7520      0.00000
     22      40.2559      0.00000
     23      40.2559      0.00000
     24      41.2279      0.00000
     25      43.8349      0.00000
     26      43.8349      0.00000
     27      44.2579      0.00000
     28      47.8709      0.00000
     29      47.8713      0.00000
     30      49.7510      0.00000
     31      49.7511      0.00000
     32      51.8545      0.00000
     33      59.3005      0.00000
     34      62.0846      0.00000
     35      62.0854      0.00000
     36      62.3015      0.00000
     37      63.0228      0.00000
     38      64.3101      0.00000
     39      64.3111      0.00000
     40      64.7087      0.00000

 k-point     2 :       0.0909    0.0000    0.0000
  band No.  band energies     occupation 
      1      -1.4990      2.00000
      2       2.2722      2.00000
      3       4.7997      2.00000
      4       5.4208      2.00000
      5       5.4708      2.00000
      6       5.7340      2.00000
      7       5.7832      2.00000
      8       6.0550      2.00000
      9       6.8287      2.02032
     10       6.8959      2.04730
     11       8.0178     -0.00000
     12       9.0194     -0.00000
     13      14.3548      0.00000
     14      30.0394      0.00000
     15      30.4637      0.00000
     16      32.6214      0.00000
     17      34.1016      0.00000
     18      36.0257      0.00000
     19      36.2372      0.00000
     20      36.8545      0.00000
     21      39.5765      0.00000
     22      40.1762      0.00000
     23      40.7595      0.00000
     24      41.3868      0.00000
     25      45.1021      0.00000
     26      45.1919      0.00000
     27      45.5107      0.00000
     28      45.5344      0.00000
     29      48.9580      0.00000
     30      51.0039      0.00000
     31      52.1867      0.00000
     32      53.9180      0.00000
     33      58.5484      0.00000
     34      60.4952      0.00000
     35      60.8410      0.00000
     36      61.5581      0.00000
     37      61.7436      0.00000
     38      64.8811      0.00000
     39      64.9754      0.00000
     40      65.2330      0.00000

 k-point     3 :       0.1818    0.0000    0.0000
  band No.  band energies     occupation 
      1      -0.5277      2.00000
      2       2.9003      2.00000
      3       4.3998      2.00000
      4       4.7294      2.00000
      5       5.2255      2.00000
      6       5.8034      2.00000
      7       6.3562      2.00000
      8       6.4029      2.00000
      9       6.5890      2.00009
     10       6.6265      2.00027
     11       8.0567     -0.00000
     12      10.8189     -0.00000
     13      14.4657      0.00000
     14      26.2511      0.00000
     15      31.1976      0.00000
     16      31.2276      0.00000
     17      31.3110      0.00000
     18      31.9106      0.00000
     19      36.1419      0.00000
     20      37.1943      0.00000
     21      37.5418      0.00000
     22      38.5977      0.00000
     23      41.5381      0.00000
     24      42.1587      0.00000
     25      45.4452      0.00000
     26      46.5094      0.00000
     27      47.8742      0.00000
     28      50.0559      0.00000
     29      51.7383      0.00000
     30      54.2272      0.00000
     31      54.9658      0.00000
     32      57.1281      0.00000
     33      57.5047      0.00000
     34      57.6983      0.00000
     35      59.1031      0.00000
     36      60.4252      0.00000
     37      62.4067      0.00000
     38      64.8682      0.00000
     39      65.4212      0.00000
     40      66.4541      0.00000

 k-point     4 :       0.2727    0.0000    0.0000
  band No.  band energies     occupation 
      1       0.8396      2.00000
      2       3.1848      2.00000
      3       3.6016      2.00000
      4       4.7405      2.00000
      5       5.0333      2.00000
      6       5.8735      2.00000
      7       6.3194      2.00000
      8       6.5889      2.00009
      9       7.1685      1.36915
     10       7.3375      0.14163
     11       8.0683     -0.00000
     12      12.8869      0.00000
     13      14.7246      0.00000
     14      22.1520      0.00000
     15      27.6738      0.00000
     16      28.7163      0.00000
     17      29.5095      0.00000
     18      32.1214      0.00000
     19      34.5706      0.00000
     20      36.8699      0.00000
     21      37.8653      0.00000
     22      37.8929      0.00000
     23      38.9937      0.00000
     24      42.2663      0.00000
     25      49.1421      0.00000
     26      50.2853      0.00000
     27      51.4769      0.00000
     28      52.2068      0.00000
     29      52.4941      0.00000
     30      54.8099      0.00000
     31      55.8736      0.00000
     32      57.5802      0.00000
     33      58.6611      0.00000
     34      59.1792      0.00000
     35      60.4010      0.00000
     36      62.5734      0.00000
     37      63.6073      0.00000
     38      64.7528      0.00000
     39      66.1504      0.00000
     40      66.7122      0.00000

 k-point     5 :       0.3636    0.0000    0.0000
  band No.  band energies     occupation 
      1       2.0245      2.00000
      2       2.8932      2.00000
      3       3.0772      2.00000
      4       4.8664      2.00000
      5       5.4045      2.00000
      6       5.5619      2.00000
      7       6.0645      2.00000
      8       7.9061     -0.00001
      9       7.9895     -0.00000
     10       8.0575     -0.00000
     11       8.0920     -0.00000
     12      14.7974      0.00000
     13      15.1181      0.00000
     14      19.0558      0.00000
     15      24.2873      0.00000
     16      26.5361      0.00000
     17      26.8267      0.00000
     18      31.4817      0.00000
     19      33.6685      0.00000
     20      36.8855      0.00000
     21      37.4202      0.00000
     22      38.6660      0.00000
     23      38.7227      0.00000
     24      42.2503      0.00000
     25      49.0525      0.00000
     26      51.0284      0.00000
     27      52.3828      0.00000
     28      55.4955      0.00000
     29      55.6393      0.00000
     30      55.8275      0.00000
     31      57.3581      0.00000
     32      59.4103      0.00000
     33      59.6613      0.00000
     34      60.6870      0.00000
     35      62.7022      0.00000
     36      64.1160      0.00000
     37      64.6576      0.00000
     38      65.7481      0.00000
     39      66.4986      0.00000
     40      67.7002      0.00000

 k-point     6 :       0.4545    0.0000    0.0000
  band No.  band energies     occupation 
      1       2.4396      2.00000
      2       2.6513      2.00000
      3       2.8214      2.00000
      4       5.1297      2.00000
      5       5.4715      2.00000
      6       5.8155      2.00000
      7       5.9202      2.00000
      8       8.0435     -0.00000
      9       8.4999     -0.00000
     10       8.5962     -0.00000
     11       9.6737     -0.00000
     12      13.1702      0.00000
     13      17.2443      0.00000
     14      18.8254      0.00000
     15      21.5833      0.00000
     16      23.7138      0.00000
     17      25.7696      0.00000
     18      30.8909      0.00000
     19      33.3664      0.00000
     20      35.7108      0.00000
     21      37.1754      0.00000
     22      39.6981      0.00000
     23      41.2534      0.00000
     24      41.5262      0.00000
     25      45.6631      0.00000
     26      51.3723      0.00000
     27      53.0310      0.00000
     28      56.6287      0.00000
     29      58.0986      0.00000
     30      58.7944      0.00000
     31      59.5651      0.00000
     32      60.8912      0.00000
     33      61.1576      0.00000
     34      62.3773      0.00000
     35      63.5766      0.00000
     36      64.4902      0.00000
     37      66.1007      0.00000
     38      66.1377      0.00000
     39      67.7462      0.00000
     40      68.4199      0.00000

 k-point     7 :       0.0909    0.0909    0.0000
  band No.  band energies     occupation 
      1      -0.8382      2.00000
      2       2.7416      2.00000
      3       4.6683      2.00000
      4       4.7456      2.00000
      5       5.4532      2.00000
      6       5.4924      2.00000
      7       6.2040      2.00000
      8       6.4192      2.00000
      9       6.4673      2.00000
     10       6.8354      2.02245
     11       8.0140     -0.00000
     12      10.3148     -0.00000
     13      14.4278      0.00000
     14      28.0117      0.00000
     15      29.3577      0.00000
     16      31.1578      0.00000
     17      33.1741      0.00000
     18      34.9830      0.00000
     19      35.1104      0.00000
     20      36.0953      0.00000
     21      36.6772      0.00000
     22      42.1985      0.00000
     23      42.3104      0.00000
     24      43.0450      0.00000
     25      43.9751      0.00000
     26      44.4244      0.00000
     27      44.7680      0.00000
     28      50.7150      0.00000
     29      52.5998      0.00000
     30      52.7777      0.00000
     31      53.0396      0.00000
     32      56.7926      0.00000
     33      57.6792      0.00000
     34      58.2423      0.00000
     35      59.4685      0.00000
     36      60.4722      0.00000
     37      61.8863      0.00000
     38      65.0398      0.00000
     39      65.5327      0.00000
     40      66.4920      0.00000

 k-point     8 :       0.1818    0.0909    0.0000
  band No.  band energies     occupation 
      1       0.3600      2.00000
      2       3.3377      2.00000
      3       3.8905      2.00000
      4       4.4857      2.00000
      5       5.1383      2.00000
      6       5.9050      2.00000
      7       5.9304      2.00000
      8       6.5606      2.00004
      9       6.9520      2.06906
     10       7.2381      0.79186
     11       7.9878     -0.00000
     12      12.1629     -0.00000
     13      14.6568      0.00000
     14      24.2569      0.00000
     15      26.9460      0.00000
     16      29.5732      0.00000
     17      31.5745      0.00000
     18      32.4007      0.00000
     19      34.8102      0.00000
     20      35.3798      0.00000
     21      36.5808      0.00000
     22      40.9025      0.00000
     23      41.4926      0.00000
     24      42.9311      0.00000
     25      45.9597      0.00000
     26      46.8332      0.00000
     27      49.0195      0.00000
     28      52.5732      0.00000
     29      54.2286      0.00000
     30      55.1432      0.00000
     31      55.6181      0.00000
     32      57.5487      0.00000
     33      58.3831      0.00000
     34      58.5217      0.00000
     35      59.7922      0.00000
     36      60.2504      0.00000
     37      62.8014      0.00000
     38      65.3480      0.00000
     39      66.2054      0.00000
     40      67.0223      0.00000

 k-point     9 :       0.2727    0.0909    0.0000
  band No.  band energies     occupation 
      1       1.7381      2.00000
      2       3.2520      2.00000
      3       3.3150      2.00000
      4       4.5863      2.00000
      5       5.2326      2.00000
      6       5.5013      2.00000
      7       6.1830      2.00000
      8       6.7462      2.00467
      9       7.7661     -0.00066
     10       7.9572     -0.00000
     11       8.2377     -0.00000
     12      14.2907      0.00000
     13      15.0783      0.00000
     14      20.4407      0.00000
     15      25.2074      0.00000
     16      26.0655      0.00000
     17      28.9256      0.00000
     18      30.5967      0.00000
     19      34.6185      0.00000
     20      36.0090      0.00000
     21      36.3175      0.00000
     22      40.1208      0.00000
     23      40.7800      0.00000
     24      43.8327      0.00000
     25      47.9060      0.00000
     26      50.3732      0.00000
     27      51.4687      0.00000
     28      51.4732      0.00000
     29      54.1253      0.00000
     30      56.0437      0.00000
     31      56.6814      0.00000
     32      59.2302      0.00000
     33      60.2589      0.00000
     34      60.4866      0.00000
     35      61.8243      0.00000
     36      63.6437      0.00000
     37      65.2122      0.00000
     38      65.9342      0.00000
     39      65.9861      0.00000
     40      66.7742      0.00000

 k-point    10 :       0.3636    0.0909    0.0000
  band No.  band energies     occupation 
      1       2.5501      2.00000
      2       2.9232      2.00000
      3       2.9785      2.00000
      4       5.0207      2.00000
      5       5.2076      2.00000
      6       5.6692      2.00000
[...]
     18      27.3402      0.00000
     19      32.7842      0.00000
     20      33.6674      0.00000
     21      37.0089      0.00000
     22      37.3818      0.00000
     23      42.5604      0.00000
     24      43.6275      0.00000
     25      49.2716      0.00000
     26      51.0233      0.00000
     27      53.3472      0.00000
     28      54.5610      0.00000
     29      56.0859      0.00000
     30      57.6231      0.00000
     31      60.4113      0.00000
     32      60.4499      0.00000
     33      61.7045      0.00000
     34      62.3309      0.00000
     35      63.7920      0.00000
     36      64.2917      0.00000
     37      64.8457      0.00000
     38      65.1022      0.00000
     39      67.9445      0.00000
     40      68.4116      0.00000

 k-point    91 :       0.4545    0.0909    0.4545
  band No.  band energies     occupation 
      1       2.3515      2.00000
      2       2.4844      2.00000
      3       3.6904      2.00000
      4       3.7511      2.00000
      5       6.1803      2.00000
      6       6.5697      2.00005
      7       7.2403      0.77441
      8       7.5602     -0.03415
      9       8.1323     -0.00000
     10       8.1932     -0.00000
     11      10.6412     -0.00000
     12      11.1234     -0.00000
     13      17.1431      0.00000
     14      17.1933      0.00000
     15      25.5808      0.00000
     16      26.0945      0.00000
     17      26.8567      0.00000
     18      27.1473      0.00000
     19      32.3149      0.00000
     20      32.6792      0.00000
     21      36.4035      0.00000
     22      36.4474      0.00000
     23      42.6204      0.00000
     24      43.7006      0.00000
     25      49.4037      0.00000
     26      51.1122      0.00000
     27      55.2045      0.00000
     28      56.9726      0.00000
     29      58.4080      0.00000
     30      58.6575      0.00000
     31      59.0177      0.00000
     32      59.0303      0.00000
     33      62.0088      0.00000
     34      62.2283      0.00000
     35      64.8400      0.00000
     36      65.0521      0.00000
     37      65.8609      0.00000
     38      65.9338      0.00000
     39      68.6315      0.00000
     40      69.2520      0.00000

 k-point    92 :       0.1818    0.1818    0.4545
  band No.  band energies     occupation 
      1       2.4027      2.00000
      2       2.6561      2.00000
      3       4.3203      2.00000
      4       4.3630      2.00000
      5       4.8170      2.00000
      6       4.8492      2.00000
      7       6.5549      2.00003
      8       6.7831      2.00953
      9       7.8929     -0.00002
     10       8.0836     -0.00000
     11       8.5888     -0.00000
     12       9.0671     -0.00000
     13      22.9197      0.00000
     14      23.5926      0.00000
     15      24.1760      0.00000
     16      24.7799      0.00000
     17      25.4458      0.00000
     18      26.2463      0.00000
     19      36.8774      0.00000
     20      38.0233      0.00000
     21      38.8150      0.00000
     22      39.9952      0.00000
     23      41.5714      0.00000
     24      41.7734      0.00000
     25      47.8638      0.00000
     26      48.2721      0.00000
     27      51.2542      0.00000
     28      52.9013      0.00000
     29      54.7694      0.00000
     30      55.0869      0.00000
     31      57.3225      0.00000
     32      57.8918      0.00000
     33      59.9199      0.00000
     34      60.0351      0.00000
     35      61.8058      0.00000
     36      61.9269      0.00000
     37      64.3681      0.00000
     38      65.6302      0.00000
     39      67.0805      0.00000
     40      67.4521      0.00000

 k-point    93 :       0.2727    0.1818    0.4545
  band No.  band energies     occupation 
      1       2.7969      2.00000
      2       2.8957      2.00000
      3       4.0878      2.00000
      4       4.2658      2.00000
      5       5.2022      2.00000
      6       5.3385      2.00000
      7       6.4143      2.00000
      8       6.6417      2.00040
      9       7.9982     -0.00000
     10       8.2830     -0.00000
     11      10.1713     -0.00000
     12      10.6598     -0.00000
     13      20.3131      0.00000
     14      20.8491      0.00000
     15      23.0825      0.00000
     16      23.8014      0.00000
     17      25.3366      0.00000
     18      26.9518      0.00000
     19      34.4815      0.00000
     20      36.0790      0.00000
     21      37.1903      0.00000
     22      38.7469      0.00000
     23      42.5897      0.00000
     24      43.0696      0.00000
     25      49.5067      0.00000
     26      50.0321      0.00000
     27      52.5046      0.00000
     28      54.4771      0.00000
     29      56.2456      0.00000
     30      57.7100      0.00000
     31      59.2091      0.00000
     32      59.8977      0.00000
     33      61.3517      0.00000
     34      61.4602      0.00000
     35      62.4602      0.00000
     36      63.0173      0.00000
     37      64.1688      0.00000
     38      64.9494      0.00000
     39      67.7770      0.00000
     40      68.0136      0.00000

 k-point    94 :       0.3636    0.1818    0.4545
  band No.  band energies     occupation 
      1       2.8362      2.00000
      2       2.9800      2.00000
      3       3.9838      2.00000
      4       4.1455      2.00000
      5       5.3481      2.00000
      6       5.6554      2.00000
      7       6.7326      2.00353
      8       6.8385      2.02351
      9       7.9816     -0.00000
     10       8.1608     -0.00000
     11      11.9456     -0.00000
     12      12.3710     -0.00000
     13      17.6271      0.00000
     14      17.9886      0.00000
     15      22.4862      0.00000
     16      23.2031      0.00000
     17      26.9190      0.00000
     18      27.9934      0.00000
     19      32.7114      0.00000
     20      33.7533      0.00000
     21      36.3003      0.00000
     22      37.8378      0.00000
     23      43.1591      0.00000
     24      43.5574      0.00000
     25      52.6603      0.00000
     26      53.4541      0.00000
     27      53.7159      0.00000
     28      54.8607      0.00000
     29      56.8266      0.00000
     30      58.0380      0.00000
     31      58.2866      0.00000
     32      58.9072      0.00000
     33      60.9523      0.00000
     34      61.5812      0.00000
     35      63.4623      0.00000
     36      64.2036      0.00000
     37      65.9774      0.00000
     38      66.1055      0.00000
     39      66.9290      0.00000
     40      67.3896      0.00000

 k-point    95 :       0.2727    0.2727    0.4545
  band No.  band energies     occupation 
      1       3.2510      2.00000
      2       3.3137      2.00000
      3       4.2265      2.00000
      4       4.4376      2.00000
      5       4.8734      2.00000
      6       5.0717      2.00000
      7       6.2589      2.00000
      8       6.4548      2.00000
      9       7.9954     -0.00000
     10       8.1924     -0.00000
     11      12.3863     -0.00000
     12      12.8902      0.00000
     13      18.7641      0.00000
     14      19.1803      0.00000
     15      20.5624      0.00000
     16      20.9558      0.00000
     17      27.1010      0.00000
     18      28.6464      0.00000
     19      32.8163      0.00000
     20      34.1466      0.00000
     21      35.9336      0.00000
     22      37.0116      0.00000
     23      45.7277      0.00000
     24      46.1562      0.00000
     25      49.8902      0.00000
     26      49.9764      0.00000
     27      55.0066      0.00000
     28      56.8481      0.00000
     29      57.1796      0.00000
     30      57.6591      0.00000
     31      59.5357      0.00000
     32      59.5682      0.00000
     33      60.1119      0.00000
     34      60.2634      0.00000
     35      62.0247      0.00000
     36      62.6415      0.00000
     37      65.7069      0.00000
     38      65.9879      0.00000
     39      66.9630      0.00000
     40      67.0335      0.00000

 k-point    96 :       0.3636    0.2727    0.4545
  band No.  band energies     occupation 
      1       3.4698      2.00000
      2       3.5984      2.00000
      3       4.1812      2.00000
      4       4.2824      2.00000
      5       4.8464      2.00000
      6       4.9871      2.00000
      7       6.2970      2.00000
      8       6.4439      2.00000
      9       7.9810     -0.00000
     10       8.0506     -0.00000
     11      14.2662      0.00000
     12      14.4101      0.00000
     13      17.0222      0.00000
     14      17.3422      0.00000
     15      19.9056      0.00000
     16      20.3421      0.00000
     17      28.8462      0.00000
     18      29.5494      0.00000
     19      31.8109      0.00000
     20      32.1142      0.00000
     21      35.6275      0.00000
     22      36.4324      0.00000
     23      46.8954      0.00000
     24      47.5249      0.00000
     25      51.6898      0.00000
     26      52.1319      0.00000
     27      54.2018      0.00000
     28      54.6225      0.00000
     29      56.8275      0.00000
     30      57.3054      0.00000
     31      59.2571      0.00000
     32      59.8139      0.00000
     33      59.9717      0.00000
     34      60.5669      0.00000
     35      62.0478      0.00000
     36      63.1338      0.00000
     37      64.6650      0.00000
     38      64.7474      0.00000
     39      68.3393      0.00000
     40      68.4955      0.00000


--------------------------------------------------------------------------------------------------------


 soft charge-density along one line, spin component           1
         0         1         2         3         4         5         6         7         8         9
x     7.7745    0.0000    0.0834   -0.1444   -0.0548   -0.0950    0.0201   -0.0000    0.0014   -0.0024
x     0.0000    0.0000
y     7.7745    0.0000    0.0834    0.1444   -0.0548    0.0950    0.0201    0.0000    0.0014    0.0024
y     0.0000    0.0000
z     7.7745    0.0000    0.0000    0.0000    0.5763    0.0000    0.0000    0.0000   -0.1675   -0.0000
z     0.0000   -0.0000    0.0153   -0.0000    0.0000    0.0000    0.0084   -0.0000    0.0000    0.0000
 total charge-density along one line
x    16.0000    0.0000    1.4526   -2.5160    0.2877    0.4982    0.0211    0.0000    0.0015   -0.0025
x    -0.0000   -0.0001    0.0001   -0.0000   -0.0000    0.0000    0.0000    0.0000   -0.0000   -0.0000
x    -0.0000    0.0000
y    16.0000    0.0000    1.4526    2.5160    0.2877   -0.4982    0.0211   -0.0000    0.0015    0.0025
y    -0.0000    0.0001    0.0001    0.0000   -0.0000   -0.0000    0.0000   -0.0000   -0.0000    0.0000
y    -0.0000   -0.0000
z    16.0000    0.0000    0.0000    0.0000    6.2540   -0.0000   -0.0000    0.0000    1.4619   -0.0000
z     0.0000   -0.0000    0.0656   -0.0000    0.0000   -0.0000    0.0007    0.0000    0.0000    0.0000
z     0.0034   -0.0000    0.0000    0.0000   -0.0015   -0.0000    0.0000    0.0000    0.0008    0.0000
z    -0.0000   -0.0000   -0.0005    0.0000   -0.0000    0.0000    0.0004   -0.0000
 
 pseudopotential strength for first ion, spin component:           1
 -4.261  -0.000  -0.000   0.000  -0.000  -4.830  -0.000  -0.000
 -0.000  -4.245   0.000  -0.000  -0.000  -0.000  -4.814   0.000
 -0.000   0.000  -4.253  -0.000  -0.000  -0.000   0.000  -4.822
  0.000  -0.000  -0.000  -4.245  -0.000   0.000  -0.000  -0.000
 -0.000  -0.000  -0.000  -0.000  -4.261  -0.000  -0.000  -0.000
 -4.830  -0.000  -0.000   0.000  -0.000  -5.356  -0.000  -0.000
 -0.000  -4.814   0.000  -0.000  -0.000  -0.000  -5.340   0.000
 -0.000   0.000  -4.822  -0.000  -0.000  -0.000   0.000  -5.348
  0.000  -0.000  -0.000  -4.814  -0.000   0.000  -0.000  -0.000
 -0.000  -0.000  -0.000  -0.000  -4.830  -0.000  -0.000  -0.000
  0.000  -0.000   0.000   0.000  -0.000   0.000  -0.000  -0.000
  0.000  -0.000   0.001   0.000  -0.000   0.000  -0.000   0.000
 -0.000   0.000   0.000   0.000  -0.001  -0.000   0.000   0.000
  0.000  -0.000   0.000   0.000  -0.000   0.000  -0.000   0.000
 -0.001   0.000   0.000   0.000  -0.000  -0.001   0.000   0.000
 -0.000   0.000   0.000   0.000  -0.001  -0.000   0.000   0.000
  0.000  -0.000   0.000   0.000  -0.000   0.000  -0.000   0.000
 -0.001   0.000   0.000   0.000  -0.000  -0.001   0.000   0.000
 total augmentation occupancy for first ion, spin component:           1
  1.628  -0.000   0.000   0.000  -0.000  -1.056   0.000  -0.000   0.000   0.000   0.000  -0.000   0.000   0.000   0.034  -0.000
  0.000   2.218  -0.000  -0.000   0.000   0.000  -1.341   0.000   0.000   0.000  -0.000   0.000   0.000   0.000   0.000  -0.000
  0.000   0.000   1.309   0.000  -0.000  -0.000   0.000  -0.752  -0.000   0.000   0.079  -0.016   0.000   0.000   0.000   0.000
  0.000  -0.000   0.000   2.218  -0.000   0.000   0.000   0.000  -1.341   0.000  -0.000   0.000  -0.000   0.000   0.000   0.000
  0.000   0.000  -0.000   0.000   1.628  -0.000   0.000   0.000  -0.000  -1.056  -0.000   0.000   0.034   0.000  -0.000  -0.002
 -1.056   0.000  -0.000   0.000   0.000   1.860   0.000   0.000  -0.000  -0.000  -0.000   0.000  -0.000  -0.000  -0.046   0.000
  0.000  -1.341   0.000   0.000  -0.000  -0.000   1.803   0.000  -0.000   0.000   0.000  -0.000  -0.000  -0.000   0.000  -0.000
 -0.000  -0.000  -0.752   0.000   0.000   0.000   0.000   1.549   0.000  -0.000  -0.178   0.014   0.000   0.000  -0.000  -0.000
  0.000   0.000  -0.000  -1.341   0.000   0.000  -0.000   0.000   1.803   0.000   0.000  -0.000   0.000  -0.000   0.000   0.000
 -0.000  -0.000   0.000   0.000  -1.056  -0.000   0.000  -0.000   0.000   1.860   0.000  -0.000  -0.046   0.000   0.000   0.003
  0.000  -0.000   0.079  -0.000  -0.000  -0.000   0.000  -0.178   0.000   0.000   2.747  -0.317   0.000   0.000   0.000   0.000
 -0.000   0.000  -0.016   0.000   0.000   0.000  -0.000   0.014  -0.000  -0.000  -0.317   0.041   0.000   0.000   0.000   0.000
  0.000  -0.000  -0.000   0.000   0.034  -0.000   0.000   0.000   0.000  -0.046   0.000  -0.000   0.369   0.000  -0.000  -0.029
 -0.000  -0.000   0.000  -0.000   0.000   0.000  -0.000   0.000  -0.000   0.000   0.000   0.000  -0.000   0.335  -0.000  -0.000
  0.034   0.000   0.000   0.000  -0.000  -0.046  -0.000  -0.000   0.000   0.000  -0.000   0.000  -0.000  -0.000   0.369   0.000
 -0.000   0.000   0.000   0.000  -0.002   0.000   0.000  -0.000   0.000   0.003  -0.000  -0.000  -0.029   0.000   0.000   0.003
 -0.000   0.000   0.000  -0.000  -0.000  -0.000   0.000   0.000  -0.000  -0.000   0.000   0.000   0.000  -0.031  -0.000  -0.000
 -0.002  -0.000  -0.000   0.000   0.000   0.003  -0.000   0.000   0.000  -0.000  -0.000  -0.000   0.000   0.000  -0.029  -0.000


------------------------ aborting loop because EDIFF is reached ----------------------------------------


    CHARGE:  cpu time    0.0194: real time    0.0194
    FORLOC:  cpu time    0.0002: real time    0.0002
    FORNL :  cpu time    0.0943: real time    0.0943
    STRESS:  cpu time    0.1431: real time    0.1431
    FORCOR:  cpu time    0.0035: real time    0.0035
    FORHAR:  cpu time    0.0008: real time    0.0008
    MIXING:  cpu time    0.0002: real time    0.0002

  FORCE on cell =-STRESS in cart. coord.  units (eV):
  Direction    XX          YY          ZZ          XY          YZ          ZX
  --------------------------------------------------------------------------------------
  Alpha Z   139.23905   139.23905   139.23905
  Ewald    -390.81965  -390.81965  -454.74783     0.00000    -0.00000    -0.00000
  Hartree    64.87719    64.87719    40.81012    -0.00000    -0.00000    -0.00000
  E(xc)     -78.94807   -78.94808   -78.60355     0.00018     0.00000     0.00000
  Local      94.61151    94.61170   178.90262    -0.00081     0.00000     0.00000
  n-local   -51.95982   -51.14210   -54.38640    -4.44225     1.34325     0.86269
  augment    75.46094    75.46053    76.03282     0.00099     0.00000     0.00000
  Kinetic   154.40000   147.84130   148.79001     1.84759    -0.79421     0.30749
  Fock        0.00000     0.00000     0.00000     0.00000     0.00000     0.00000
  -------------------------------------------------------------------------------------
  Total       3.99055     3.99055    -3.96318    -0.00000     0.00000     0.00000
  in kB     322.01785   322.01785  -319.80892    -0.00000     0.00000     0.00000
  external pressure =      108.08 kB  Pullay stress =        0.00 kB


 VOLUME and BASIS-vectors are now :
 -----------------------------------------------------------------------------
  energy-cutoff  :      280.00
  volume of cell :       19.85
      direct lattice vectors                 reciprocal lattice vectors
     2.330000000  0.000000000  0.000000000     0.429184549  0.247789815  0.000000000
    -1.165000000  2.017839191  0.000000000     0.000000000  0.495579630  0.000000000
     0.000000000  0.000000000  4.223000000     0.000000000  0.000000000  0.236798484

  length of vectors
     2.330000000  2.330000000  4.223000000     0.495579630  0.495579630  0.236798484


 FORCES acting on ions
    electron-ion (+dipol)            ewald-force                    non-local-force                 convergence-correction
 -----------------------------------------------------------------------------------------------
   0.251E-06 -.405E-06 0.205E-14   0.503E-12 -.304E-12 -.256E-13   -.783E-17 0.110E-16 -.154E-18   -.233E-09 0.138E-09 -.421E-13
   -.839E-05 0.603E-05 0.244E-12   -.504E-12 0.298E-12 0.256E-13   0.725E-17 -.893E-17 -.170E-18   0.231E-09 -.137E-09 0.744E-13
 -----------------------------------------------------------------------------------------------
   -.814E-05 0.562E-05 0.247E-12   -.234E-15 -.636E-14 0.998E-17   -.581E-18 0.204E-17 -.323E-18   -.220E-11 0.183E-11 0.324E-13
 
 
 POSITION                                       TOTAL-FORCE (eV/Angst)
 -----------------------------------------------------------------------------------
      0.00000      0.00000      0.00000        -0.000000      0.000000      0.000000
      0.00000      1.34523      2.11150         0.000000     -0.000000     -0.000000
 -----------------------------------------------------------------------------------
    total drift:                               -0.000008      0.000006      0.000000


--------------------------------------------------------------------------------------------------------



  FREE ENERGIE OF THE ION-ELECTRON SYSTEM (eV)
  ---------------------------------------------------
  free  energy   TOTEN  =       -15.94139991 eV

  energy  without entropy=      -15.94378799  energy(sigma->0) =      -15.94219593
 


--------------------------------------------------------------------------------------------------------


    POTLOK:  cpu time    0.0055: real time    0.0055


--------------------------------------------------------------------------------------------------------


 writing wavefunctions
     LOOP+:  cpu time   10.5017: real time   10.5225
    4ORBIT:  cpu time    0.0000: real time    0.0000

 total amount of memory used by VASP MPI-rank0    49770. kBytes
=======================================================================

   base      :      30000. kBytes
   nonl-proj :       3076. kBytes
   grid      :        812. kBytes
   one-center:         31. kBytes
   wavefun   :      15851. kBytes
 
  
  
 General timing and accounting informations for this job:
 ========================================================
  
                  Total CPU time used (sec):       10.686
                            User time (sec):       10.634
                          System time (sec):        0.052
                         Elapsed time (sec):       10.696
  
                   Maximum memory used (kb):       55412.
                   Average memory used (kb):          N/A
  
                          Minor page faults:         7438
                          Major page faults:            0
                 Voluntary context switches:           26
