 vasp.6.2.0 18Jan21 (build Mar 17 2021 09:06:54) complex                        
  
 POSCAR found type information on POSCAR Fe
 POSCAR found :  1 types and       2 ions
 LDA part: xc-table for Pade appr. of Perdew
 POSCAR, INCAR and KPOINTS ok, starting setup
 FFT: planning ...
 WAVECAR not read
 WARNING: chargedensity file is incomplete
 entering main loop
       N       E                     dE             d eps       ncg     rms          rms(c)
DAV:   1     0.601881106306E+02    0.60188E+02   -0.26060E+03  9368   0.323E+02
DAV:   2    -0.149582781591E+02   -0.75146E+02   -0.63668E+02  7872   0.958E+01
DAV:   3    -0.192696735069E+02   -0.43114E+01   -0.41160E+01  9552   0.241E+01
DAV:   4    -0.192877116127E+02   -0.18038E-01   -0.18027E-01  9096   0.162E+00
DAV:   5    -0.192877290549E+02   -0.17442E-04   -0.17441E-04  9168   0.480E-02    0.176E+01
DAV:   6    -0.164161776549E+02    0.28716E+01   -0.16396E+00 11120   0.245E+01    0.200E+00
DAV:   7    -0.162479694260E+02    0.16821E+00   -0.10369E-01 10128   0.491E+00    0.109E+00
DAV:   8    -0.162200899221E+02    0.27880E-01   -0.28616E-03  9912   0.348E-01    0.513E-01
DAV:   9    -0.162089704460E+02    0.11119E-01   -0.95899E-04 10944   0.178E-01    0.595E-02
DAV:  10    -0.162089865169E+02   -0.16071E-04   -0.31340E-05  8664   0.219E-02    0.211E-02
DAV:  11    -0.162089781804E+02    0.83365E-05   -0.15247E-07  8024   0.491E-03    0.153E-03
DAV:  12    -0.162089779190E+02    0.26136E-06   -0.55022E-08  5784   0.142E-03
   1 F= -.16208978E+02 E0= -.16209107E+02  d E =0.387394E-03
 writing wavefunctions
