unknown system                          
   1.00000000000000     
     3.866000    0.000000    0.000000
     0.000000    3.866000    0.000000
     0.000000    0.000000    3.866000
   Pd   Ir   Pt   Cu
     1     1     1     1
Direct
  0.000000  0.000000  0.000000
  0.500000  0.500000  0.000000
  0.500000  0.000000  0.500000
  0.000000  0.500000  0.500000
 
   32   32   32
  359.29      342.78      300.42      247.26      194.52      145.35      100.27      62.841      37.626      24.384    
  17.330      13.199      11.012      9.9802      9.4137      8.9568      8.7476      8.9568      9.4137      9.9802    
  11.012      13.199      17.330      24.384      37.626      62.841      100.27      145.35      194.52      247.26    
  300.42      342.78      342.92      327.25      286.96      236.24      185.73      138.61      95.610      60.154    
  36.438      23.974      17.201      13.234      11.131      10.136      9.5881      9.1497      8.9498      9.1497    
  9.5881      10.136      11.131      13.234      17.201      23.974      36.438      60.154      95.610      138.61    
  185.73      236.24      286.96      327.25      300.29      286.74      251.71      207.18      162.44      120.76    
  83.311      53.137      33.370      22.892      16.873      13.362      11.498      10.607      10.118      9.7337    
  9.5607      9.7337      10.118      10.607      11.498      13.362      16.873      22.892      33.370      53.137    
  83.311      120.76      162.44      207.18      251.71      286.74      245.49      234.52      205.92      169.10    
  131.77      97.342      67.400      44.252      29.558      21.462      16.518      13.673      12.174      11.466    
  11.089      10.802      10.674      10.802      11.089      11.466      12.174      13.673      16.518      21.462    
  29.558      44.252      67.400      97.342      131.77      169.10      205.92      234.52      190.20      181.68    
  159.28      130.13      100.56      73.957      51.970      35.936      26.043      20.074      16.386      14.348    
  13.343      12.935      12.772      12.655      12.598      12.655      12.772      12.935      13.343      14.348    
  16.386      20.074      26.043      35.936      51.970      73.957      100.56      130.13      159.28      181.68    
  139.39      133.08      116.45      94.745      72.978      54.135      39.531      29.529      23.237      19.110    
  16.755      15.645      15.304      15.391      15.620      15.793      15.849      15.793      15.620      15.391    
  15.304      15.645      16.755      19.110      23.237      29.529      39.531      54.135      72.978      94.745    
  116.45      133.08      94.853      90.630      79.506      65.090      50.952      39.268      30.766      25.086    
  21.190      18.866      17.891      17.859      18.414      19.266      20.152      20.818      21.064      20.818    
  20.152      19.266      18.414      17.859      17.891      18.866      21.190      25.086      30.766      39.268    
  50.952      65.090      79.506      90.630      59.483      57.102      50.869      42.913      35.334      29.326    
  25.033      21.959      20.120      19.538      20.004      21.235      23.062      25.301      27.547      29.238    
  29.869      29.238      27.547      25.301      23.062      21.235      20.004      19.538      20.120      21.959    
  25.033      29.326      35.334      42.913      50.869      57.102      36.094      35.048      32.330      28.911    
  25.691      23.060      21.105      20.081      20.123      21.204      23.218      26.232      30.205      34.777    
  39.199      42.462      43.670      42.462      39.199      34.777      30.205      26.232      23.218      21.204    
  20.123      20.081      21.105      23.060      25.691      28.911      32.330      35.048      23.544      23.185    
  22.233      20.967      19.733      18.884      18.711      19.424      21.128      23.865      27.910      33.398    
  40.139      47.521      54.432      59.439      61.278      59.439      54.432      47.521      40.139      33.398    
  27.910      23.865      21.128      19.424      18.711      18.884      19.733      20.967      22.233      23.185    
  16.588      16.486      16.234      15.982      15.955      16.412      17.608      19.752      22.984      27.714    
  34.240      42.440      51.860      61.691      70.641      77.042      79.382      77.042      70.641      61.691    
  51.860      42.440      34.240      27.714      22.984      19.752      17.608      16.412      15.955      15.982    
  16.234      16.486      12.403      12.456      12.634      13.018      13.772      15.139      17.393      20.767    
  25.695      32.769      41.921      52.558      63.944      75.286      85.416      92.648      95.299      92.648    
  85.416      75.286      63.944      52.558      41.921      32.769      25.695      20.767      17.393      15.139    
  13.772      13.018      12.634      12.456      10.103      10.236      10.640      11.374      12.605      14.611    
  17.721      22.287      29.173      38.789      50.481      63.069      75.656      87.760      98.589      106.46    
  109.39      106.46      98.589      87.760      75.656      63.069      50.481      38.789      29.173      22.287    
  17.721      14.611      12.605      11.374      10.640      10.236      8.9434      9.1100      9.6138      10.520    
  12.035      14.504      18.323      24.136      33.095      45.260      59.296      73.484      86.981      99.857    
  111.75      120.73      124.15      120.73      111.75      99.857      86.981      73.484      59.296      45.260    
  33.095      24.136      18.323      14.504      12.035      10.520      9.6138      9.1100      8.2697      8.4534    
  9.0100      10.019      11.730      14.559      18.971      25.977      36.849      51.286      67.350      82.951    
  97.480      111.64      125.34      136.11      140.29      136.11      125.34      111.64      97.480      82.951    
  67.350      51.286      36.849      25.977      18.971      14.559      11.730      10.019      9.0100      8.4534    
  7.7500      7.9501      8.5555      9.6528      11.518      14.609      19.460      27.356      39.610      55.659    
  73.170      89.865      105.40      120.97      136.59      149.17      154.11      149.17      136.59      120.97    
  105.40      89.865      73.170      55.659      39.610      27.356      19.460      14.609      11.518      9.6528    
  8.5555      7.9501      7.5219      7.7304      8.3599      9.4981      11.428      14.622      19.641      27.870    
  40.631      57.270      75.313      92.437      108.41      124.61      141.07      154.43      159.68      154.43    
  141.07      124.61      108.41      92.437      75.313      57.270      40.631      27.870      19.641      14.622    
  11.428      9.4981      8.3599      7.7304      7.7500      7.9501      8.5555      9.6528      11.518      14.609    
  19.460      27.356      39.610      55.659      73.170      89.865      105.40      120.97      136.59      149.17    
  154.11      149.17      136.59      120.97      105.40      89.865      73.170      55.659      39.610      27.356    
  19.460      14.609      11.518      9.6528      8.5555      7.9501      8.2697      8.4534      9.0100      10.019    
  11.730      14.559      18.971      25.977      36.849      51.286      67.350      82.951      97.480      111.64    
  125.34      136.11      140.29      136.11      125.34      111.64      97.480      82.951      67.350      51.286    
  36.849      25.977      18.971      14.559      11.730      10.019      9.0100      8.4534      8.9434      9.1100    
  9.6138      10.520      12.035      14.504      18.323      24.136      33.095      45.260      59.296      73.484    
  86.981      99.857      111.75      120.73      124.15      120.73      111.75      99.857      86.981      73.484    
  59.296      45.260      33.095      24.136      18.323      14.504      12.035      10.520      9.6138      9.1100    
  10.103      10.236      10.640      11.374      12.605      14.611      17.721      22.287      29.173      38.789    
  50.481      63.069      75.656      87.760      98.589      106.46      109.39      106.46      98.589      87.760    
  75.656      63.069      50.481      38.789      29.173      22.287      17.721      14.611      12.605      11.374    
  10.640      10.236      12.403      12.456      12.634      13.018      13.772      15.139      17.393      20.767    
  25.695      32.769      41.921      52.558      63.944      75.286      85.416      92.648      95.299      92.648    
  85.416      75.286      63.944      52.558      41.921      32.769      25.695      20.767      17.393      15.139    
  13.772      13.018      12.634      12.456      16.588      16.486      16.234      15.982      15.955      16.412    
  17.608      19.752      22.984      27.714      34.240      42.440      51.860      61.691      70.641      77.042    
  79.382      77.042      70.641      61.691      51.860      42.440      34.240      27.714      22.984      19.752    
  17.608      16.412      15.955      15.982      16.234      16.486      23.544      23.185      22.233      20.967    
  19.733      18.884      18.711      19.424      21.128      23.865      27.910      33.398      40.139      47.521    
  54.432      59.439      61.278      59.439      54.432      47.521      40.139      33.398      27.910      23.865    
  21.128      19.424      18.711      18.884      19.733      20.967      22.233      23.185      36.094      35.048    
  32.330      28.911      25.691      23.060      21.105      20.081      20.123      21.204      23.218      26.232    
  30.205      34.777      39.199      42.462      43.670      42.462      39.199      34.777      30.205      26.232    
  23.218      21.204      20.123      20.081      21.105      23.060      25.691      28.911      32.330      35.048    
  59.483      57.102      50.869      42.913      35.334      29.326      25.033      21.959      20.120      19.538    
  20.004      21.235      23.062      25.301      27.547      29.238      29.869      29.238      27.547      25.301    
  23.062      21.235      20.004      19.538      20.120      21.959      25.033      29.326      35.334      42.913    
  50.869      57.102      94.853      90.630      79.506      65.090      50.952      39.268      30.766      25.086    
  21.190      18.866      17.891      17.859      18.414      19.266      20.152      20.818      21.064      20.818    
  20.152      19.266      18.414      17.859      17.891      18.866      21.190      25.086      30.766      39.268    
  50.952      65.090      79.506      90.630      139.39      133.08      116.45      94.745      72.978      54.135    
  39.531      29.529      23.237      19.110      16.755      15.645      15.304      15.391      15.620      15.793    
  15.849      15.793      15.620      15.391      15.304      15.645      16.755      19.110      23.237      29.529    
  39.531      54.135      72.978      94.745      116.45      133.08      190.20      181.68      159.28      130.13    
  100.56      73.957      51.970      35.936      26.043      20.074      16.386      14.348      13.343      12.935    
  12.772      12.655      12.598      12.655      12.772      12.935      13.343      14.348      16.386      20.074    
  26.043      35.936      51.970      73.957      100.56      130.13      159.28      181.68      245.49      234.52    
  205.92      169.10      131.77      97.342      67.400      44.252      29.558      21.462      16.518      13.673    
  12.174      11.466      11.089      10.802      10.674      10.802      11.089      11.466      12.174      13.673    
  16.518      21.462      29.558      44.252      67.400      97.342      131.77      169.10      205.92      234.52    
  300.29      286.74      251.71      207.18      162.44      120.76      83.311      53.137      33.370      22.892    
  16.873      13.362      11.498      10.607      10.118      9.7337      9.5607      9.7337      10.118      10.607    
  11.498      13.362      16.873      22.892      33.370      53.137      83.311      120.76      162.44      207.18    
  251.71      286.74      342.92      327.25      286.96      236.24      185.73      138.61      95.610      60.154    
  36.438      23.974      17.201      13.234      11.131      10.136      9.5881      9.1497      8.9498      9.1497    
  9.5881      10.136      11.131      13.234      17.201      23.974      36.438      60.154      95.610      138.61    
  185.73      236.24      286.96      327.25      343.18      327.58      287.43      236.79      186.26      139.00    
  95.822      60.231      36.448      23.968      17.197      13.239      11.146      10.159      9.6189      9.1856    
  8.9875      9.1856      9.6189      10.159      11.146      13.239      17.197      23.968      36.448      60.231    
  95.822      139.00      186.26      236.79      287.43      327.58      328.09      313.24      274.95      226.51    
  178.01      132.66      91.434      57.711      35.337      23.577      17.073      13.272      11.261      10.309    
  9.7872      9.3715      9.1822      9.3715      9.7872      10.309      11.261      13.272      17.073      23.577    
  35.337      57.711      91.434      132.66      178.01      226.51      274.95      313.24      288.57      275.64    
  242.11      199.30      156.09      115.82      79.850      51.125      32.463      22.538      16.756      13.395    
  11.614      10.764      10.298      9.9346      9.7709      9.9346      10.298      10.764      11.614      13.395    
  16.756      22.538      32.463      51.125      79.850      115.82      156.09      199.30      242.11      275.64    
  237.19      226.61      198.99      163.29      127.02      93.640      64.827      42.773      28.879      21.155    
  16.413      13.695      12.267      11.593      11.237      10.967      10.846      10.967      11.237      11.593    
  12.267      13.695      16.413      21.155      28.879      42.773      64.827      93.640      127.02      163.29    
  198.99      226.61      184.49      176.20      154.42      126.01      97.196      71.371      50.211      34.935    
  25.547      19.813      16.284      14.344      13.393      13.011      12.863      12.757      12.705      12.757    
  12.863      13.011      13.393      14.344      16.284      19.813      25.547      34.935      50.211      71.371    
  97.196      126.01      154.42      176.20      135.29      129.15      112.96      91.821      70.651      52.414    
  38.396      28.866      22.839      18.879      16.638      15.593      15.283      15.381      15.614      15.790    
  15.848      15.790      15.614      15.381      15.283      15.593      16.638      18.879      22.839      28.866    
  38.396      52.414      70.651      91.821      112.96      129.15      91.916      87.822      77.042      63.081    
  49.419      38.180      30.047      24.605      20.853      18.639      17.730      17.726      18.284      19.123    
  19.988      20.635      20.874      20.635      19.988      19.123      18.284      17.726      17.730      18.639    
  20.853      24.605      30.047      38.180      49.419      63.081      77.042      87.822      57.608      55.318    
  49.327      41.687      34.421      28.670      24.540      21.570      19.817      19.286      19.769      20.985    
  22.757      24.910      27.063      28.680      29.284      28.680      27.063      24.910      22.757      20.985    
  19.769      19.286      19.817      21.570      24.540      28.670      34.421      41.687      49.327      55.318    
  35.126      34.128      31.534      28.267      25.179      22.625      20.733      19.757      19.823      20.900    
  22.872      25.787      29.607      33.988      38.215      41.330      42.482      41.330      38.215      33.988    
  29.607      25.787      22.872      20.900      19.823      19.757      20.733      22.625      25.179      28.267    
  31.534      34.128      23.116      22.769      21.843      20.608      19.408      18.587      18.428      19.134    
  20.808      23.478      27.397      32.697      39.188      46.271      52.881      57.659      59.411      57.659    
  52.881      46.271      39.188      32.697      27.397      23.478      20.808      19.134      18.428      18.587    
  19.408      20.608      21.843      22.769      16.383      16.284      16.038      15.792      15.766      16.212    
  17.377      19.470      22.621      27.211      33.544      41.498      50.610      60.068      68.630      74.726    
  76.949      74.726      68.630      60.068      50.610      41.498      33.544      27.211      22.621      19.470    
  17.377      16.212      15.766      15.792      16.038      16.284      12.362      12.412      12.581      12.948    
  13.677      15.000      17.190      20.478      25.264      32.145      41.078      51.468      62.544      73.479    
  83.146      89.991      92.489      89.991      83.146      73.479      62.544      51.468      41.078      32.145    
  25.264      20.478      17.190      15.000      13.677      12.948      12.581      12.412      10.171      10.297    
  10.682      11.384      12.569      14.509      17.531      21.972      28.665      38.063      49.554      61.946    
  74.259      85.923      96.180      103.54      106.26      103.54      96.180      85.923      74.259      61.946    
  49.554      38.063      28.665      21.972      17.531      14.509      12.569      11.384      10.682      10.297    
  9.0815      9.2388      9.7163      10.581      12.037      14.425      18.140      23.785      32.514      44.458    
  58.339      72.403      85.650      98.003      109.13      117.40      120.52      117.40      109.13      98.003    
  85.650      72.403      58.339      44.458      32.514      23.785      18.140      14.425      12.037      10.581    
  9.7163      9.2388      8.4592      8.6319      9.1572      10.118      11.761      14.497      18.789      25.592    
  36.207      50.430      66.390      81.922      96.188      109.68      122.35      132.15      135.93      132.15    
  122.35      109.68      96.188      81.922      66.390      50.430      36.207      25.592      18.789      14.497    
  11.761      10.118      9.1572      8.6319      7.9810      8.1686      8.7386      9.7809      11.571      14.561    
  19.278      26.946      38.927      54.771      72.211      88.864      104.10      118.85      133.20      144.59    
  149.03      144.59      133.20      118.85      104.10      88.864      72.211      54.771      38.927      26.946    
  19.278      14.561      11.571      9.7809      8.7386      8.1686      7.7705      7.9658      8.5581      9.6387    
  11.490      14.580      19.459      27.451      39.934      56.370      74.354      91.443      107.10      122.41    
  137.51      149.57      154.30      149.57      137.51      122.41      107.10      91.443      74.354      56.370    
  39.934      27.451      19.459      14.580      11.490      9.6387      8.5581      7.9658      7.9810      8.1686    
  8.7386      9.7809      11.571      14.561      19.278      26.946      38.927      54.771      72.211      88.864    
  104.10      118.85      133.20      144.59      149.03      144.59      133.20      118.85      104.10      88.864    
  72.211      54.771      38.927      26.946      19.278      14.561      11.571      9.7809      8.7386      8.1686    
  8.4592      8.6319      9.1572      10.118      11.761      14.497      18.789      25.592      36.207      50.430    
  66.390      81.922      96.188      109.68      122.35      132.15      135.93      132.15      122.35      109.68    
  96.188      81.922      66.390      50.430      36.207      25.592      18.789      14.497      11.761      10.118    
  9.1572      8.6319      9.0815      9.2388      9.7163      10.581      12.037      14.425      18.140      23.785    
  32.514      44.458      58.339      72.403      85.650      98.003      109.13      117.40      120.52      117.40    
  109.13      98.003      85.650      72.403      58.339      44.458      32.514      23.785      18.140      14.425    
  12.037      10.581      9.7163      9.2388      10.171      10.297      10.682      11.384      12.569      14.509    
  17.531      21.972      28.665      38.063      49.554      61.946      74.259      85.923      96.180      103.54    
  106.26      103.54      96.180      85.923      74.259      61.946      49.554      38.063      28.665      21.972    
  17.531      14.509      12.569      11.384      10.682      10.297      12.362      12.412      12.581      12.948    
  13.677      15.000      17.190      20.478      25.264      32.145      41.078      51.468      62.544      73.479    
  83.146      89.991      92.489      89.991      83.146      73.479      62.544      51.468      41.078      32.145    
  25.264      20.478      17.190      15.000      13.677      12.948      12.581      12.412      16.383      16.284    
  16.038      15.792      15.766      16.212      17.377      19.470      22.621      27.211      33.544      41.498    
  50.610      60.068      68.630      74.726      76.949      74.726      68.630      60.068      50.610      41.498    
  33.544      27.211      22.621      19.470      17.377      16.212      15.766      15.792      16.038      16.284    
  23.116      22.769      21.843      20.608      19.408      18.587      18.428      19.134      20.808      23.478    
  27.397      32.697      39.188      46.271      52.881      57.659      59.411      57.659      52.881      46.271    
  39.188      32.697      27.397      23.478      20.808      19.134      18.428      18.587      19.408      20.608    
  21.843      22.769      35.126      34.128      31.534      28.267      25.179      22.625      20.733      19.757    
  19.823      20.900      22.872      25.787      29.607      33.988      38.215      41.330      42.482      41.330    
  38.215      33.988      29.607      25.787      22.872      20.900      19.823      19.757      20.733      22.625    
  25.179      28.267      31.534      34.128      57.608      55.318      49.327      41.687      34.421      28.670    
  24.540      21.570      19.817      19.286      19.769      20.985      22.757      24.910      27.063      28.680    
  29.284      28.680      27.063      24.910      22.757      20.985      19.769      19.286      19.817      21.570    
  24.540      28.670      34.421      41.687      49.327      55.318      91.916      87.822      77.042      63.081    
  49.419      38.180      30.047      24.605      20.853      18.639      17.730      17.726      18.284      19.123    
  19.988      20.635      20.874      20.635      19.988      19.123      18.284      17.726      17.730      18.639    
  20.853      24.605      30.047      38.180      49.419      63.081      77.042      87.822      135.29      129.15    
  112.96      91.821      70.651      52.414      38.396      28.866      22.839      18.879      16.638      15.593    
  15.283      15.381      15.614      15.790      15.848      15.790      15.614      15.381      15.283      15.593    
  16.638      18.879      22.839      28.866      38.396      52.414      70.651      91.821      112.96      129.15    
  184.49      176.20      154.42      126.01      97.196      71.371      50.211      34.935      25.547      19.813    
  16.284      14.344      13.393      13.011      12.863      12.757      12.705      12.757      12.863      13.011    
  13.393      14.344      16.284      19.813      25.547      34.935      50.211      71.371      97.196      126.01    
  154.42      176.20      237.19      226.61      198.99      163.29      127.02      93.640      64.827      42.773    
  28.879      21.155      16.413      13.695      12.267      11.593      11.237      10.967      10.846      10.967    
  11.237      11.593      12.267      13.695      16.413      21.155      28.879      42.773      64.827      93.640    
  127.02      163.29      198.99      226.61      288.57      275.64      242.11      199.30      156.09      115.82    
  79.850      51.125      32.463      22.538      16.756      13.395      11.614      10.764      10.298      9.9346    
  9.7709      9.9346      10.298      10.764      11.614      13.395      16.756      22.538      32.463      51.125    
  79.850      115.82      156.09      199.30      242.11      275.64      328.09      313.24      274.95      226.51    
  178.01      132.66      91.434      57.711      35.337      23.577      17.073      13.272      11.261      10.309    
  9.7872      9.3715      9.1822      9.3715      9.7872      10.309      11.261      13.272      17.073      23.577    
  35.337      57.711      91.434      132.66      178.01      226.51      274.95      313.24      301.10      287.75    
  253.16      208.93      164.10      121.96      83.948      53.351      33.386      22.863      16.852      13.362    
  11.521      10.649      10.175      9.8000      9.6304      9.8000      10.175      10.649      11.521      13.362    
  16.852      22.863      33.386      53.351      83.948      121.96      164.10      208.93      253.16      287.75    
  289.13      276.33      243.11      200.51      157.24      116.65      80.283      51.266      32.470      22.516    
  16.739      13.392      11.625      10.786      10.328      9.9685      9.8065      9.9685      10.328      10.786    
  11.625      13.392      16.739      22.516      32.470      51.266      80.283      116.65      157.24      200.51    
  243.11      276.33      257.24      245.87      216.21      177.89      138.80      102.44      70.570      45.805    
  30.089      21.579      16.453      13.502      11.944      11.199      10.793      10.480      10.341      10.480    
  10.793      11.199      11.944      13.502      16.453      21.579      30.089      45.805      70.570      102.44    
  138.80      177.89      216.21      245.87      214.29      204.76      179.75      147.16      113.89      83.510    
  57.887      38.845      27.084      20.326      16.142      13.769      12.531      11.951      11.646      11.419    
  11.318      11.419      11.646      11.951      12.531      13.769      16.142      20.326      27.084      38.845    
  57.887      83.510      113.89      147.16      179.75      204.76      168.12      160.53      140.51      114.30    
  87.739      64.231      45.444      32.259      24.203      19.108      16.021      14.349      13.543      13.231    
  13.121      13.045      13.007      13.045      13.121      13.231      13.543      14.349      16.021      19.108    
  24.203      32.259      45.444      64.231      87.739      114.30      140.51      160.53      123.34      117.71    
  102.84      83.426      64.081      47.651      35.308      27.070      21.742      18.255      16.328      15.462    
  15.239      15.368      15.610      15.794      15.857      15.794      15.610      15.368      15.239      15.462    
  16.328      18.255      21.742      27.070      35.308      47.651      64.081      83.426      102.84      117.71    
  83.423      79.719      69.969      57.374      45.132      35.186      28.082      23.265      19.928      18.024    
  17.295      17.370      17.936      18.746      19.559      20.158      20.379      20.158      19.559      18.746    
  17.936      17.370      17.295      18.024      19.928      23.265      28.082      35.186      45.132      57.374    
  69.969      79.719      52.321      50.297      45.006      38.277      31.904      26.863      23.163      20.496    
  18.985      18.595      19.121      20.302      21.936      23.869      25.778      27.205      27.736      27.205    
  25.778      23.869      21.936      20.302      19.121      18.595      18.985      20.496      23.163      26.863    
  31.904      38.277      45.006      50.297      32.475      31.609      29.357      26.504      23.758      21.413    
  19.705      18.867      18.997      20.059      21.920      24.571      27.984      31.858      35.569      38.291    
  39.295      38.291      35.569      31.858      27.984      24.571      21.920      20.059      18.997      18.867    
  19.705      21.413      23.758      26.504      29.357      31.609      21.933      21.615      20.757      19.614    
  18.512      17.772      17.651      18.335      19.920      22.409      25.978      30.761      36.573      42.857    
  48.669      52.839      54.362      52.839      48.669      42.857      36.573      30.761      25.978      22.409    
  19.920      18.335      17.651      17.772      18.512      19.614      20.757      21.615      15.814      15.723    
  15.498      15.275      15.256      15.671      16.749      18.691      21.613      25.808      31.592      38.855    
  47.118      55.582      63.127      68.428      70.348      68.428      63.127      55.582      47.118      38.855    
  31.592      25.808      21.613      18.691      16.749      15.671      15.256      15.275      15.498      15.723    
  12.219      12.264      12.418      12.754      13.418      14.627      16.636      19.678      24.060      30.375    
  38.659      48.336      58.558      68.428      76.913      82.781      84.895      82.781      76.913      68.428    
  58.558      48.336      38.659      30.375      24.060      19.678      16.636      14.627      13.418      12.754    
  12.418      12.264      10.279      10.393      10.743      11.382      12.460      14.231      17.010      21.100    