unknown system                          
   1.00000000000000     
     3.866000    0.000000    0.000000
     0.000000    3.866000    0.000000
     0.000000    0.000000    3.866000
   Pd   Ir   Pt   Cu
     1     1     1     1
Direct
  0.000000  0.000000  0.000000
  0.500000  0.500000  0.000000
  0.500000  0.000000  0.500000
  0.000000  0.500000  0.500000
 
   32   32   32
 0.35928563669E+03 0.34278073862E+03 0.30042051956E+03 0.24726074546E+03 0.19452283204E+03
 0.14534799867E+03 0.10027479920E+03 0.62841219067E+02 0.37625701443E+02 0.24383680720E+02
 0.17329950126E+02 0.13199104947E+02 0.11011913066E+02 0.99801835414E+01 0.94137158171E+01
 0.89568330807E+01 0.87475758319E+01 0.89568330807E+01 0.94137158171E+01 0.99801835414E+01
 0.11011913066E+02 0.13199104947E+02 0.17329950126E+02 0.24383680720E+02 0.37625701443E+02
 0.62841219067E+02 0.10027479920E+03 0.14534799867E+03 0.19452283204E+03 0.24726074546E+03
 0.30042051956E+03 0.34278073862E+03 0.34291537271E+03 0.32724782409E+03 0.28696459719E+03
 0.23623821793E+03 0.18573041047E+03 0.13860994524E+03 0.95609813216E+02 0.60153990292E+02
 0.36438098155E+02 0.23974158690E+02 0.17200888594E+02 0.13234141732E+02 0.11131425332E+02
 0.10135601912E+02 0.95881490233E+01 0.91497447445E+01 0.89498213440E+01 0.91497447445E+01
 0.95881490233E+01 0.10135601912E+02 0.11131425332E+02 0.13234141732E+02 0.17200888594E+02
 0.23974158690E+02 0.36438098155E+02 0.60153990292E+02 0.95609813216E+02 0.13860994524E+03
 0.18573041047E+03 0.23623821793E+03 0.28696459719E+03 0.32724782409E+03 0.30028663517E+03
 0.28673673702E+03 0.25171330138E+03 0.20718383659E+03 0.16244298394E+03 0.12075730270E+03
 0.83311069695E+02 0.53137318937E+02 0.33370285808E+02 0.22891751082E+02 0.16873240163E+02
 0.13362276601E+02 0.11497652292E+02 0.10607098431E+02 0.10117624703E+02 0.97337077944E+01
 0.95606834793E+01 0.97337077944E+01 0.10117624703E+02 0.10607098431E+02 0.11497652292E+02
 0.13362276601E+02 0.16873240163E+02 0.22891751082E+02 0.33370285808E+02 0.53137318937E+02
 0.83311069695E+02 0.12075730270E+03 0.16244298394E+03 0.20718383659E+03 0.25171330138E+03
 0.28673673702E+03 0.24549202912E+03 0.23451687823E+03 0.20592376242E+03 0.16909508482E+03
 0.13176820648E+03 0.97341794164E+02 0.67400392809E+02 0.44251952292E+02 0.29558498885E+02
 0.21461566122E+02 0.16517916598E+02 0.13673071151E+02 0.12174367559E+02 0.11466124879E+02
 0.11088827010E+02 0.10802170067E+02 0.10674129144E+02 0.10802170067E+02 0.11088827010E+02
 0.11466124879E+02 0.12174367559E+02 0.13673071151E+02 0.16517916598E+02 0.21461566122E+02
 0.29558498885E+02 0.44251952292E+02 0.67400392809E+02 0.97341794164E+02 0.13176820648E+03
 0.16909508482E+03 0.20592376242E+03 0.23451687823E+03 0.19020491513E+03 0.18167564460E+03
 0.15928141380E+03 0.13013024810E+03 0.10056150726E+03 0.73956795931E+02 0.51969992376E+02
 0.35936472190E+02 0.26043267730E+02 0.20073718556E+02 0.16385678020E+02 0.14347608768E+02
 0.13342825551E+02 0.12935307122E+02 0.12772108380E+02 0.12654564439E+02 0.12597812842E+02
 0.12654564439E+02 0.12772108380E+02 0.12935307122E+02 0.13342825551E+02 0.14347608768E+02
 0.16385678020E+02 0.20073718556E+02 0.26043267730E+02 0.35936472190E+02 0.51969992376E+02
 0.73956795931E+02 0.10056150726E+03 0.13013024810E+03 0.15928141380E+03 0.18167564460E+03
 0.13938596264E+03 0.13307876414E+03 0.11644923523E+03 0.94745138386E+02 0.72978104408E+02
 0.54134537832E+02 0.39531093294E+02 0.29529336197E+02 0.23236852131E+02 0.19109643194E+02
 0.16755366957E+02 0.15645040388E+02 0.15303893966E+02 0.15391235805E+02 0.15620060849E+02
 0.15792783086E+02 0.15849449171E+02 0.15792783086E+02 0.15620060849E+02 0.15391235805E+02
 0.15303893966E+02 0.15645040388E+02 0.16755366957E+02 0.19109643194E+02 0.23236852131E+02
 0.29529336197E+02 0.39531093294E+02 0.54134537832E+02 0.72978104408E+02 0.94745138386E+02
 0.11644923523E+03 0.13307876414E+03 0.94853101009E+02 0.90629569125E+02 0.79505967942E+02
 0.65089571418E+02 0.50951512576E+02 0.39267671628E+02 0.30765568538E+02 0.25086353597E+02
 0.21189791880E+02 0.18865555029E+02 0.17891337959E+02 0.17859262013E+02 0.18413998723E+02
 0.19265834441E+02 0.20151974087E+02 0.20817671962E+02 0.21063812808E+02 0.20817671962E+02
 0.20151974087E+02 0.19265834441E+02 0.18413998723E+02 0.17859262013E+02 0.17891337959E+02
 0.18865555029E+02 0.21189791880E+02 0.25086353597E+02 0.30765568538E+02 0.39267671628E+02
 0.50951512576E+02 0.65089571418E+02 0.79505967942E+02 0.90629569125E+02 0.59482932607E+02
 0.57102048870E+02 0.50869331778E+02 0.42913297693E+02 0.35334489152E+02 0.29326430093E+02
 0.25032813307E+02 0.21959324366E+02 0.20120430286E+02 0.19537917892E+02 0.20004422955E+02
 0.21235176081E+02 0.23061973066E+02 0.25300517864E+02 0.27546870700E+02 0.29237581751E+02
 0.29868668429E+02 0.29237581751E+02 0.27546870700E+02 0.25300517864E+02 0.23061973066E+02
 0.21235176081E+02 0.20004422955E+02 0.19537917892E+02 0.20120430286E+02 0.21959324366E+02
 0.25032813307E+02 0.29326430093E+02 0.35334489152E+02 0.42913297693E+02 0.50869331778E+02
 0.57102048870E+02 0.36093971193E+02 0.35047799471E+02 0.32330272207E+02 0.28910662722E+02
 0.25691469724E+02 0.23059883258E+02 0.21105483143E+02 0.20080949858E+02 0.20122731791E+02
 0.21204300015E+02 0.23218189554E+02 0.26232002583E+02 0.30204852947E+02 0.34777275093E+02
 0.39199316557E+02 0.42462322949E+02 0.43670286155E+02 0.42462322949E+02 0.39199316557E+02
 0.34777275093E+02 0.30204852947E+02 0.26232002583E+02 0.23218189554E+02 0.21204300015E+02
 0.20122731791E+02 0.20080949858E+02 0.21105483143E+02 0.23059883258E+02 0.25691469724E+02
 0.28910662722E+02 0.32330272207E+02 0.35047799471E+02 0.23543860671E+02 0.23184869271E+02
 0.22232531177E+02 0.20966886704E+02 0.19733268035E+02 0.18884165557E+02 0.18710887707E+02
 0.19423705048E+02 0.21127574008E+02 0.23864682961E+02 0.27909926779E+02 0.33397818574E+02
 0.40139456081E+02 0.47520755407E+02 0.54432132911E+02 0.59439173410E+02 0.61277879436E+02
 0.59439173410E+02 0.54432132911E+02 0.47520755407E+02 0.40139456081E+02 0.33397818574E+02
 0.27909926779E+02 0.23864682961E+02 0.21127574008E+02 0.19423705048E+02 0.18710887707E+02
 0.18884165557E+02 0.19733268035E+02 0.20966886704E+02 0.22232531177E+02 0.23184869271E+02
 0.16587706795E+02 0.16486454053E+02 0.16234339395E+02 0.15981797684E+02 0.15954860239E+02
 0.16412328265E+02 0.17607695215E+02 0.19752039316E+02 0.22983654806E+02 0.27714078875E+02
 0.34239725783E+02 0.42439509950E+02 0.51860182756E+02 0.61690535771E+02 0.70641263070E+02
 0.77042054233E+02 0.79381999241E+02 0.77042054233E+02 0.70641263070E+02 0.61690535771E+02
 0.51860182756E+02 0.42439509950E+02 0.34239725783E+02 0.27714078875E+02 0.22983654806E+02
 0.19752039316E+02 0.17607695215E+02 0.16412328265E+02 0.15954860239E+02 0.15981797684E+02
 0.16234339395E+02 0.16486454053E+02 0.12403497650E+02 0.12456159048E+02 0.12634193082E+02
 0.13017741201E+02 0.13772464151E+02 0.15138865206E+02 0.17392549191E+02 0.20766963891E+02
 0.25694976525E+02 0.32768690561E+02 0.41920632545E+02 0.52557537223E+02 0.63944327553E+02
 0.75285540793E+02 0.85416234946E+02 0.92647682472E+02 0.95298627666E+02 0.92647682472E+02
 0.85416234946E+02 0.75285540793E+02 0.63944327553E+02 0.52557537223E+02 0.41920632545E+02
 0.32768690561E+02 0.25694976525E+02 0.20766963891E+02 0.17392549191E+02 0.15138865206E+02
 0.13772464151E+02 0.13017741201E+02 0.12634193082E+02 0.12456159048E+02 0.10102941261E+02
 0.10235623976E+02 0.10640092992E+02 0.11374069911E+02 0.12604728106E+02 0.14610620016E+02
 0.17720931170E+02 0.22286671961E+02 0.29172860078E+02 0.38789426907E+02 0.50480842236E+02
 0.63068589249E+02 0.75655902391E+02 0.87759569475E+02 0.98588812825E+02 0.10646329619E+03
 0.10939171471E+03 0.10646329619E+03 0.98588812825E+02 0.87759569475E+02 0.75655902391E+02
 0.63068589249E+02 0.50480842236E+02 0.38789426907E+02 0.29172860078E+02 0.22286671961E+02
 0.17720931170E+02 0.14610620016E+02 0.12604728106E+02 0.11374069911E+02 0.10640092992E+02
 0.10235623976E+02 0.89434473718E+01 0.91099639709E+01 0.96137952353E+01 0.10520137686E+02
 0.12034590071E+02 0.14504253327E+02 0.18323113166E+02 0.24135739255E+02 0.33095210886E+02
 0.45260196165E+02 0.59295978553E+02 0.73484337625E+02 0.86980537484E+02 0.99857467687E+02
 0.11174613125E+03 0.12073153117E+03 0.12415062560E+03 0.12073153117E+03 0.11174613125E+03
 0.99857467687E+02 0.86980537484E+02 0.73484337625E+02 0.59295978553E+02 0.45260196165E+02
 0.33095210886E+02 0.24135739255E+02 0.18323113166E+02 0.14504253327E+02 0.12034590071E+02
 0.10520137686E+02 0.96137952353E+01 0.91099639709E+01 0.82697028255E+01 0.84534078541E+01
 0.90099653265E+01 0.10019168697E+02 0.11730429129E+02 0.14558624897E+02 0.18971118511E+02
 0.25977036381E+02 0.36849237924E+02 0.51285981146E+02 0.67350106505E+02 0.82950962599E+02
 0.97480357189E+02 0.11163792696E+03 0.12533648728E+03 0.13610798563E+03 0.14028914173E+03
 0.13610798563E+03 0.12533648728E+03 0.11163792696E+03 0.97480357189E+02 0.82950962599E+02
 0.67350106505E+02 0.51285981146E+02 0.36849237924E+02 0.25977036381E+02 0.18971118511E+02
 0.14558624897E+02 0.11730429129E+02 0.10019168697E+02 0.90099653265E+01 0.84534078541E+01
 0.77499995211E+01 0.79501185668E+01 0.85554793145E+01 0.96528219132E+01 0.11518045848E+02
 0.14609073136E+02 0.19460455783E+02 0.27356372704E+02 0.39609852275E+02 0.55659282353E+02
 0.73169651269E+02 0.89865193567E+02 0.10540498526E+03 0.12097394752E+03 0.13659086205E+03
 0.14917287687E+03 0.15410983713E+03 0.14917287687E+03 0.13659086205E+03 0.12097394752E+03
 0.10540498526E+03 0.89865193567E+02 0.73169651269E+02 0.55659282353E+02 0.39609852275E+02
 0.27356372704E+02 0.19460455783E+02 0.14609073136E+02 0.11518045848E+02 0.96528219132E+01
 0.85554793145E+01 0.79501185668E+01 0.75219156874E+01 0.77303621280E+01 0.83598994133E+01
 0.94980811227E+01 0.11428230970E+02 0.14621811386E+02 0.19641053479E+02 0.27870207982E+02
 0.40631339956E+02 0.57269580701E+02 0.75313438917E+02 0.92436783533E+02 0.10841465146E+03
 0.12461347010E+03 0.14106828628E+03 0.15442591432E+03 0.15968363262E+03 0.15442591432E+03
 0.14106828628E+03 0.12461347010E+03 0.10841465146E+03 0.92436783533E+02 0.75313438917E+02
 0.57269580701E+02 0.40631339956E+02 0.27870207982E+02 0.19641053479E+02 0.14621811386E+02
 0.11428230970E+02 0.94980811227E+01 0.83598994133E+01 0.77303621280E+01 0.77499995211E+01
 0.79501185668E+01 0.85554793145E+01 0.96528219132E+01 0.11518045848E+02 0.14609073136E+02
 0.19460455783E+02 0.27356372704E+02 0.39609852275E+02 0.55659282353E+02 0.73169651269E+02
 0.89865193567E+02 0.10540498526E+03 0.12097394752E+03 0.13659086205E+03 0.14917287687E+03
 0.15410983713E+03 0.14917287687E+03 0.13659086205E+03 0.12097394752E+03 0.10540498526E+03
 0.89865193567E+02 0.73169651269E+02 0.55659282353E+02 0.39609852275E+02 0.27356372704E+02
 0.19460455783E+02 0.14609073136E+02 0.11518045848E+02 0.96528219132E+01 0.85554793145E+01
 0.79501185668E+01 0.82697028255E+01 0.84534078541E+01 0.90099653265E+01 0.10019168697E+02
 0.11730429129E+02 0.14558624897E+02 0.18971118511E+02 0.25977036381E+02 0.36849237924E+02
 0.51285981146E+02 0.67350106505E+02 0.82950962599E+02 0.97480357189E+02 0.11163792696E+03
 0.12533648728E+03 0.13610798563E+03 0.14028914173E+03 0.13610798563E+03 0.12533648728E+03
 0.11163792696E+03 0.97480357189E+02 0.82950962599E+02 0.67350106505E+02 0.51285981146E+02
 0.36849237924E+02 0.25977036381E+02 0.18971118511E+02 0.14558624897E+02 0.11730429129E+02
 0.10019168697E+02 0.90099653265E+01 0.84534078541E+01 0.89434473718E+01 0.91099639709E+01
 0.96137952353E+01 0.10520137686E+02 0.12034590071E+02 0.14504253327E+02 0.18323113166E+02
 0.24135739255E+02 0.33095210886E+02 0.45260196165E+02 0.59295978553E+02 0.73484337625E+02
 0.86980537484E+02 0.99857467687E+02 0.11174613125E+03 0.12073153117E+03 0.12415062560E+03
 0.12073153117E+03 0.11174613125E+03 0.99857467687E+02 0.86980537484E+02 0.73484337625E+02
 0.59295978553E+02 0.45260196165E+02 0.33095210886E+02 0.24135739255E+02 0.18323113166E+02
 0.14504253327E+02 0.12034590071E+02 0.10520137686E+02 0.96137952353E+01 0.91099639709E+01
 0.10102941261E+02 0.10235623976E+02 0.10640092992E+02 0.11374069911E+02 0.12604728106E+02
 0.14610620016E+02 0.17720931170E+02 0.22286671961E+02 0.29172860078E+02 0.38789426907E+02
 0.50480842236E+02 0.63068589249E+02 0.75655902391E+02 0.87759569475E+02 0.98588812825E+02
 0.10646329619E+03 0.10939171471E+03 0.10646329619E+03 0.98588812825E+02 0.87759569475E+02
 0.75655902391E+02 0.63068589249E+02 0.50480842236E+02 0.38789426907E+02 0.29172860078E+02
 0.22286671961E+02 0.17720931170E+02 0.14610620016E+02 0.12604728106E+02 0.11374069911E+02
 0.10640092992E+02 0.10235623976E+02 0.12403497650E+02 0.12456159048E+02 0.12634193082E+02
 0.13017741201E+02 0.13772464151E+02 0.15138865206E+02 0.17392549191E+02 0.20766963891E+02
 0.25694976525E+02 0.32768690561E+02 0.41920632545E+02 0.52557537223E+02 0.63944327553E+02
 0.75285540793E+02 0.85416234946E+02 0.92647682472E+02 0.95298627666E+02 0.92647682472E+02
 0.85416234946E+02 0.75285540793E+02 0.63944327553E+02 0.52557537223E+02 0.41920632545E+02
 0.32768690561E+02 0.25694976525E+02 0.20766963891E+02 0.17392549191E+02 0.15138865206E+02
 0.13772464151E+02 0.13017741201E+02 0.12634193082E+02 0.12456159048E+02 0.16587706795E+02
 0.16486454053E+02 0.16234339395E+02 0.15981797684E+02 0.15954860239E+02 0.16412328265E+02
 0.17607695215E+02 0.19752039316E+02 0.22983654806E+02 0.27714078875E+02 0.34239725783E+02
 0.42439509950E+02 0.51860182756E+02 0.61690535771E+02 0.70641263070E+02 0.77042054233E+02
 0.79381999241E+02 0.77042054233E+02 0.70641263070E+02 0.61690535771E+02 0.51860182756E+02
 0.42439509950E+02 0.34239725783E+02 0.27714078875E+02 0.22983654806E+02 0.19752039316E+02
 0.17607695215E+02 0.16412328265E+02 0.15954860239E+02 0.15981797684E+02 0.16234339395E+02
 0.16486454053E+02 0.23543860671E+02 0.23184869271E+02 0.22232531177E+02 0.20966886704E+02
 0.19733268035E+02 0.18884165557E+02 0.18710887707E+02 0.19423705048E+02 0.21127574008E+02
 0.23864682961E+02 0.27909926779E+02 0.33397818574E+02 0.40139456081E+02 0.47520755407E+02
 0.54432132911E+02 0.59439173410E+02 0.61277879436E+02 0.59439173410E+02 0.54432132911E+02
 0.47520755407E+02 0.40139456081E+02 0.33397818574E+02 0.27909926779E+02 0.23864682961E+02
 0.21127574008E+02 0.19423705048E+02 0.18710887707E+02 0.18884165557E+02 0.19733268035E+02
 0.20966886704E+02 0.22232531177E+02 0.23184869271E+02 0.36093971193E+02 0.35047799471E+02
 0.32330272207E+02 0.28910662722E+02 0.25691469724E+02 0.23059883258E+02 0.21105483143E+02
 0.20080949858E+02 0.20122731791E+02 0.21204300015E+02 0.23218189554E+02 0.26232002583E+02
 0.30204852947E+02 0.34777275093E+02 0.39199316557E+02 0.42462322949E+02 0.43670286155E+02
 0.42462322949E+02 0.39199316557E+02 0.34777275093E+02 0.30204852947E+02 0.26232002583E+02
 0.23218189554E+02 0.21204300015E+02 0.20122731791E+02 0.20080949858E+02 0.21105483143E+02
 0.23059883258E+02 0.25691469724E+02 0.28910662722E+02 0.32330272207E+02 0.35047799471E+02
 0.59482932607E+02 0.57102048870E+02 0.50869331778E+02 0.42913297693E+02 0.35334489152E+02
 0.29326430093E+02 0.25032813307E+02 0.21959324366E+02 0.20120430286E+02 0.19537917892E+02
 0.20004422955E+02 0.21235176081E+02 0.23061973066E+02 0.25300517864E+02 0.27546870700E+02
 0.29237581751E+02 0.29868668429E+02 0.29237581751E+02 0.27546870700E+02 0.25300517864E+02
 0.23061973066E+02 0.21235176081E+02 0.20004422955E+02 0.19537917892E+02 0.20120430286E+02
 0.21959324366E+02 0.25032813307E+02 0.29326430093E+02 0.35334489152E+02 0.42913297693E+02
 0.50869331778E+02 0.57102048870E+02 0.94853101009E+02 0.90629569125E+02 0.79505967942E+02
 0.65089571418E+02 0.50951512576E+02 0.39267671628E+02 0.30765568538E+02 0.25086353597E+02
 0.21189791880E+02 0.18865555029E+02 0.17891337959E+02 0.17859262013E+02 0.18413998723E+02
 0.19265834441E+02 0.20151974087E+02 0.20817671962E+02 0.21063812808E+02 0.20817671962E+02
 0.20151974087E+02 0.19265834441E+02 0.18413998723E+02 0.17859262013E+02 0.17891337959E+02
 0.18865555029E+02 0.21189791880E+02 0.25086353597E+02 0.30765568538E+02 0.39267671628E+02
 0.50951512576E+02 0.65089571418E+02 0.79505967942E+02 0.90629569125E+02 0.13938596264E+03
 0.13307876414E+03 0.11644923523E+03 0.94745138386E+02 0.72978104408E+02 0.54134537832E+02
 0.39531093294E+02 0.29529336197E+02 0.23236852131E+02 0.19109643194E+02 0.16755366957E+02
 0.15645040388E+02 0.15303893966E+02 0.15391235805E+02 0.15620060849E+02 0.15792783086E+02
 0.15849449171E+02 0.15792783086E+02 0.15620060849E+02 0.15391235805E+02 0.15303893966E+02
 0.15645040388E+02 0.16755366957E+02 0.19109643194E+02 0.23236852131E+02 0.29529336197E+02
 0.39531093294E+02 0.54134537832E+02 0.72978104408E+02 0.94745138386E+02 0.11644923523E+03
 0.13307876414E+03 0.19020491513E+03 0.18167564460E+03 0.15928141380E+03 0.13013024810E+03
 0.10056150726E+03 0.73956795931E+02 0.51969992376E+02 0.35936472190E+02 0.26043267730E+02
 0.20073718556E+02 0.16385678020E+02 0.14347608768E+02 0.13342825551E+02 0.12935307122E+02
 0.12772108380E+02 0.12654564439E+02 0.12597812842E+02 0.12654564439E+02 0.12772108380E+02
 0.12935307122E+02 0.13342825551E+02 0.14347608768E+02 0.16385678020E+02 0.20073718556E+02
 0.26043267730E+02 0.35936472190E+02 0.51969992376E+02 0.73956795931E+02 0.10056150726E+03
 0.13013024810E+03 0.15928141380E+03 0.18167564460E+03 0.24549202912E+03 0.23451687823E+03
 0.20592376242E+03 0.16909508482E+03 0.13176820648E+03 0.97341794164E+02 0.67400392809E+02
 0.44251952292E+02 0.29558498885E+02 0.21461566122E+02 0.16517916598E+02 0.13673071151E+02
 0.12174367559E+02 0.11466124879E+02 0.11088827010E+02 0.10802170067E+02 0.10674129144E+02
 0.10802170067E+02 0.11088827010E+02 0.11466124879E+02 0.12174367559E+02 0.13673071151E+02
 0.16517916598E+02 0.21461566122E+02 0.29558498885E+02 0.44251952292E+02 0.67400392809E+02
 0.97341794164E+02 0.13176820648E+03 0.16909508482E+03 0.20592376242E+03 0.23451687823E+03
 0.30028663517E+03 0.28673673702E+03 0.25171330138E+03 0.20718383659E+03 0.16244298394E+03
 0.12075730270E+03 0.83311069695E+02 0.53137318937E+02 0.33370285808E+02 0.22891751082E+02
 0.16873240163E+02 0.13362276601E+02 0.11497652292E+02 0.10607098431E+02 0.10117624703E+02
 0.97337077944E+01 0.95606834793E+01 0.97337077944E+01 0.10117624703E+02 0.10607098431E+02
 0.11497652292E+02 0.13362276601E+02 0.16873240163E+02 0.22891751082E+02 0.33370285808E+02
 0.53137318937E+02 0.83311069695E+02 0.12075730270E+03 0.16244298394E+03 0.20718383659E+03
 0.25171330138E+03 0.28673673702E+03 0.34291537271E+03 0.32724782409E+03 0.28696459719E+03
 0.23623821793E+03 0.18573041047E+03 0.13860994524E+03 0.95609813216E+02 0.60153990292E+02
 0.36438098155E+02 0.23974158690E+02 0.17200888594E+02 0.13234141732E+02 0.11131425332E+02
 0.10135601912E+02 0.95881490233E+01 0.91497447445E+01 0.89498213440E+01 0.91497447445E+01
 0.95881490233E+01 0.10135601912E+02 0.11131425332E+02 0.13234141732E+02 0.17200888594E+02
 0.23974158690E+02 0.36438098155E+02 0.60153990292E+02 0.95609813216E+02 0.13860994524E+03
 0.18573041047E+03 0.23623821793E+03 0.28696459719E+03 0.32724782409E+03 0.34318452365E+03
 0.32757765982E+03 0.28742559606E+03 0.23679112117E+03 0.18625652410E+03 0.13899763350E+03
 0.95822094467E+02 0.60230726981E+02 0.36448277221E+02 0.23968090225E+02 0.17197292340E+02
 0.13238625796E+02 0.11145543760E+02 0.10158821903E+02 0.96188983825E+01 0.91856187682E+01
 0.89875427812E+01 0.91856187682E+01 0.96188983825E+01 0.10158821903E+02 0.11145543760E+02
 0.13238625796E+02 0.17197292340E+02 0.23968090225E+02 0.36448277221E+02 0.60230726981E+02
 0.95822094467E+02 0.13899763350E+03 0.18625652410E+03 0.23679112117E+03 0.28742559606E+03
 0.32757765982E+03 0.32809098768E+03 0.31323723904E+03 0.27495335000E+03 0.22651289516E+03
 0.17800937799E+03 0.13265720484E+03 0.91433909385E+02 0.57710501251E+02 0.35336984905E+02
 0.23577234454E+02 0.17072537815E+02 0.13272246725E+02 0.11260832348E+02 0.10308917228E+02
 0.97872413393E+01 0.93714610769E+01 0.91822017260E+01 0.93714610769E+01 0.97872413393E+01
 0.10308917228E+02 0.11260832348E+02 0.13272246725E+02 0.17072537815E+02 0.23577234454E+02
 0.35336984905E+02 0.57710501251E+02 0.91433909385E+02 0.13265720484E+03 0.17800937799E+03
 0.22651289516E+03 0.27495335000E+03 0.31323723904E+03 0.28857469483E+03 0.27563519118E+03
 0.24210935693E+03 0.19929598867E+03 0.15608946993E+03 0.11581960845E+03 0.79849761585E+02
 0.51124983234E+02 0.32462790800E+02 0.22537792854E+02 0.16755990363E+02 0.13395427858E+02
 0.11614061926E+02 0.10764208965E+02 0.10298448106E+02 0.99346316507E+01 0.97709387208E+01
 0.99346316507E+01 0.10298448106E+02 0.10764208965E+02 0.11614061926E+02 0.13395427858E+02
 0.16755990363E+02 0.22537792854E+02 0.32462790800E+02 0.51124983234E+02 0.79849761585E+02
 0.11581960845E+03 0.15608946993E+03 0.19929598867E+03 0.24210935693E+03 0.27563519118E+03
 0.23719461747E+03 0.22661330908E+03 0.19898979442E+03 0.16329014407E+03 0.12702112324E+03
 0.93640227769E+02 0.64826596791E+02 0.42772544278E+02 0.28879485470E+02 0.21155217646E+02
 0.16412758101E+02 0.13694549289E+02 0.12266518797E+02 0.11593471689E+02 0.11236574524E+02
 0.10966503100E+02 0.10846000151E+02 0.10966503100E+02 0.11236574524E+02 0.11593471689E+02
 0.12266518797E+02 0.13694549289E+02 0.16412758101E+02 0.21155217646E+02 0.28879485470E+02
 0.42772544278E+02 0.64826596791E+02 0.93640227769E+02 0.12702112324E+03 0.16329014407E+03
 0.19898979442E+03 0.22661330908E+03 0.18448707608E+03 0.17620170563E+03 0.15441913998E+03
 0.12601356696E+03 0.97196068047E+02 0.71371312938E+02 0.50211404394E+02 0.34935142275E+02
 0.25547097767E+02 0.19813136810E+02 0.16284121534E+02 0.14343783625E+02 0.13392684005E+02
 0.13011312197E+02 0.12862694158E+02 0.12756713235E+02 0.12705193610E+02 0.12756713235E+02
 0.12862694158E+02 0.13011312197E+02 0.13392684005E+02 0.14343783625E+02 0.16284121534E+02
 0.19813136810E+02 0.25547097767E+02 0.34935142275E+02 0.50211404394E+02 0.71371312938E+02
 0.97196068047E+02 0.12601356696E+03 0.15441913998E+03 0.17620170563E+03 0.13528951936E+03
 0.12915133762E+03 0.11295941634E+03 0.91820617581E+02 0.70651316460E+02 0.52413977986E+02
 0.38395560194E+02 0.28866308130E+02 0.22838786170E+02 0.18879196595E+02 0.16638110389E+02
 0.15592675687E+02 0.15282914017E+02 0.15381470662E+02 0.15613925997E+02 0.15789881791E+02
 0.15848369265E+02 0.15789881791E+02 0.15613925997E+02 0.15381470662E+02 0.15282914017E+02
 0.15592675687E+02 0.16638110389E+02 0.18879196595E+02 0.22838786170E+02 0.28866308130E+02
 0.38395560194E+02 0.52413977986E+02 0.70651316460E+02 0.91820617581E+02 0.11295941634E+03
 0.12915133762E+03 0.91915795081E+02 0.87822159084E+02 0.77041949456E+02 0.63080598448E+02
 0.49419283799E+02 0.38180310517E+02 0.30046695485E+02 0.24604594056E+02 0.20853052246E+02
 0.18639412356E+02 0.17730297077E+02 0.17726266489E+02 0.18283779558E+02 0.19123476845E+02
 0.19987946832E+02 0.20634717520E+02 0.20873645055E+02 0.20634717520E+02 0.19987946832E+02
 0.19123476845E+02 0.18283779558E+02 0.17726266489E+02 0.17730297077E+02 0.18639412356E+02
 0.20853052246E+02 0.24604594056E+02 0.30046695485E+02 0.38180310517E+02 0.49419283799E+02
 0.63080598448E+02 0.77041949456E+02 0.87822159084E+02 0.57607565874E+02 0.55318029487E+02
 0.49326853425E+02 0.41686718686E+02 0.34421325227E+02 0.28669775455E+02 0.24539692502E+02
 0.21570228843E+02 0.19817192997E+02 0.19285994496E+02 0.19768750838E+02 0.20984933889E+02
 0.22756763945E+02 0.24909773178E+02 0.27062532103E+02 0.28680473371E+02 0.29284115585E+02
 0.28680473371E+02 0.27062532103E+02 0.24909773178E+02 0.22756763945E+02 0.20984933889E+02
 0.19768750838E+02 0.19285994496E+02 0.19817192997E+02 0.21570228843E+02 0.24539692502E+02
 0.28669775455E+02 0.34421325227E+02 0.41686718686E+02 0.49326853425E+02 0.55318029487E+02
 0.35126364638E+02 0.34128107286E+02 0.31534498076E+02 0.28267344271E+02 0.25178696671E+02
 0.22624846297E+02 0.20733188656E+02 0.19757419071E+02 0.19823033719E+02 0.20900451651E+02
 0.22871980600E+02 0.25786662482E+02 0.29606685622E+02 0.33987835809E+02 0.38215055748E+02
 0.41329794345E+02 0.42482070912E+02 0.41329794345E+02 0.38215055748E+02 0.33987835809E+02
 0.29606685622E+02 0.25786662482E+02 0.22871980600E+02 0.20900451651E+02 0.19823033719E+02
 0.19757419071E+02 0.20733188656E+02 0.22624846297E+02 0.25178696671E+02 0.28267344271E+02
 0.31534498076E+02 0.34128107286E+02 0.23115825440E+02 0.22768814399E+02 0.21843488866E+02
 0.20608051324E+02 0.19407835249E+02 0.18586848759E+02 0.18427578018E+02 0.19133532912E+02
 0.20807752072E+02 0.23478432933E+02 0.27397130988E+02 0.32696770113E+02 0.39187955679E+02
 0.46270982173E+02 0.52881464753E+02 0.57658625274E+02 0.59410600005E+02 0.57658625274E+02
 0.52881464753E+02 0.46270982173E+02 0.39187955679E+02 0.32696770113E+02 0.27397130988E+02
 0.23478432933E+02 0.20807752072E+02 0.19133532912E+02 0.18427578018E+02 0.18586848759E+02
 0.19407835249E+02 0.20608051324E+02 0.21843488866E+02 0.22768814399E+02 0.16383400259E+02
 0.16284328826E+02 0.16037974645E+02 0.15791765283E+02 0.15765969053E+02 0.16212141185E+02
 0.17377402372E+02 0.19470196454E+02 0.22620847970E+02 0.27211394508E+02 0.33544328478E+02
 0.41498465737E+02 0.50609598334E+02 0.60067728399E+02 0.68630438333E+02 0.74725798765E+02
 0.76948600084E+02 0.74725798765E+02 0.68630438333E+02 0.60067728399E+02 0.50609598334E+02
 0.41498465737E+02 0.33544328478E+02 0.27211394508E+02 0.22620847970E+02 0.19470196454E+02
 0.17377402372E+02 0.16212141185E+02 0.15765969053E+02 0.15791765283E+02 0.16037974645E+02
 0.16284328826E+02 0.12362218835E+02 0.12411817281E+02 0.12580805633E+02 0.12948409937E+02
 0.13676562258E+02 0.15000019424E+02 0.17189776288E+02 0.20478221873E+02 0.25264009385E+02
 0.32144805604E+02 0.41077802562E+02 0.51468267399E+02 0.62544329272E+02 0.73478795979E+02
 0.83146334524E+02 0.89990858006E+02 0.92489133178E+02 0.89990858006E+02 0.83146334524E+02
 0.73478795979E+02 0.62544329272E+02 0.51468267399E+02 0.41077802562E+02 0.32144805604E+02
 0.25264009385E+02 0.20478221873E+02 0.17189776288E+02 0.15000019424E+02 0.13676562258E+02
 0.12948409937E+02 0.12580805633E+02 0.12411817281E+02 0.10171071671E+02 0.10296914288E+02
 0.10681781142E+02 0.11384101562E+02 0.12568610971E+02 0.14508895673E+02 0.17531419872E+02
 0.21972003799E+02 0.28664996068E+02 0.38062923257E+02 0.49553741436E+02 0.61946153214E+02
 0.74258619864E+02 0.85922686777E+02 0.96179573703E+02 0.10354137393E+03 0.10626153923E+03
 0.10354137393E+03 0.96179573703E+02 0.85922686777E+02 0.74258619864E+02 0.61946153214E+02
 0.49553741436E+02 0.38062923257E+02 0.28664996068E+02 0.21972003799E+02 0.17531419872E+02
 0.14508895673E+02 0.12568610971E+02 0.11384101562E+02 0.10681781142E+02 0.10296914288E+02
 0.90815369201E+01 0.92388052910E+01 0.97163374216E+01 0.10581026380E+02 0.12036562777E+02
 0.14425346856E+02 0.18140149362E+02 0.23785281969E+02 0.32514150479E+02 0.44457504569E+02
 0.58339304704E+02 0.72402927005E+02 0.85650317785E+02 0.98003410751E+02 0.10912892445E+03
 0.11739948364E+03 0.12052344723E+03 0.11739948364E+03 0.10912892445E+03 0.98003410751E+02
 0.85650317785E+02 0.72402927005E+02 0.58339304704E+02 0.44457504569E+02 0.32514150479E+02
 0.23785281969E+02 0.18140149362E+02 0.14425346856E+02 0.12036562777E+02 0.10581026380E+02
 0.97163374216E+01 0.92388052910E+01 0.84592375193E+01 0.86319116651E+01 0.91572459961E+01
 0.10117504592E+02 0.11760558299E+02 0.14496839164E+02 0.18788956730E+02 0.25591783278E+02
 0.36207379988E+02 0.50430423756E+02 0.66390051930E+02 0.81921578799E+02 0.96188024678E+02
 0.10967500620E+03 0.12234945155E+03 0.13214831274E+03 0.13592625998E+03 0.13214831274E+03
 0.12234945155E+03 0.10967500620E+03 0.96188024678E+02 0.81921578799E+02 0.66390051930E+02
 0.50430423756E+02 0.36207379988E+02 0.25591783278E+02 0.18788956730E+02 0.14496839164E+02
 0.11760558299E+02 0.10117504592E+02 0.91572459961E+01 0.86319116651E+01 0.79809786651E+01
 0.81685643672E+01 0.87385631358E+01 0.97809231272E+01 0.11570525232E+02 0.14561316909E+02
 0.19278034328E+02 0.26946415330E+02 0.38927116767E+02 0.54770977525E+02 0.72210620841E+02
 0.88864167697E+02 0.10410206476E+03 0.11885016759E+03 0.13320399275E+03 0.14458645556E+03
 0.14902647470E+03 0.14458645556E+03 0.13320399275E+03 0.11885016759E+03 0.10410206476E+03
 0.88864167697E+02 0.72210620841E+02 0.54770977525E+02 0.38927116767E+02 0.26946415330E+02
 0.19278034328E+02 0.14561316909E+02 0.11570525232E+02 0.97809231272E+01 0.87385631358E+01
 0.81685643672E+01 0.77705047927E+01 0.79657593599E+01 0.85581203152E+01 0.96386914501E+01
 0.11490067224E+02 0.14580008680E+02 0.19458694573E+02 0.27451388728E+02 0.39934080711E+02
 0.56369847470E+02 0.74354452731E+02 0.91442667002E+02 0.10709802584E+03 0.12241162449E+03
 0.13750546344E+03 0.14957218825E+03 0.15429548188E+03 0.14957218825E+03 0.13750546344E+03
 0.12241162449E+03 0.10709802584E+03 0.91442667002E+02 0.74354452731E+02 0.56369847470E+02
 0.39934080711E+02 0.27451388728E+02 0.19458694573E+02 0.14580008680E+02 0.11490067224E+02
 0.96386914501E+01 0.85581203152E+01 0.79657593599E+01 0.79809786651E+01 0.81685643672E+01
 0.87385631358E+01 0.97809231272E+01 0.11570525232E+02 0.14561316909E+02 0.19278034328E+02
 0.26946415330E+02 0.38927116767E+02 0.54770977525E+02 0.72210620841E+02 0.88864167697E+02
 0.10410206476E+03 0.11885016759E+03 0.13320399275E+03 0.14458645556E+03 0.14902647470E+03
 0.14458645556E+03 0.13320399275E+03 0.11885016759E+03 0.10410206476E+03 0.88864167697E+02
 0.72210620841E+02 0.54770977525E+02 0.38927116767E+02 0.26946415330E+02 0.19278034328E+02
 0.14561316909E+02 0.11570525232E+02 0.97809231272E+01 0.87385631358E+01 0.81685643672E+01
 0.84592375193E+01 0.86319116651E+01 0.91572459961E+01 0.10117504592E+02 0.11760558299E+02
 0.14496839164E+02 0.18788956730E+02 0.25591783278E+02 0.36207379988E+02 0.50430423756E+02
 0.66390051930E+02 0.81921578799E+02 0.96188024678E+02 0.10967500620E+03 0.12234945155E+03
 0.13214831274E+03 0.13592625998E+03 0.13214831274E+03 0.12234945155E+03 0.10967500620E+03
 0.96188024678E+02 0.81921578799E+02 0.66390051930E+02 0.50430423756E+02 0.36207379988E+02