   4   4   0   0
  0.1444527E+02  0.3866000E-09  0.3866000E-09  0.3866000E-09  0.5000000E-15
  1.000000000000000E-004
  CAR 
 unknown system                          
     27.37891325     -1.90092584  301      9.20903248      1.00000000
     -1.901  0.0000E+00  0.0000E+00
     -1.803  0.0000E+00  0.0000E+00
     -1.706  0.0000E+00  0.0000E+00
     -1.608  0.0000E+00  0.0000E+00
     -1.511 -0.2762E-28 -0.2696E-29
     -1.413 -0.5270E-25 -0.5146E-26
     -1.315 -0.6219E-22 -0.6074E-23
     -1.218 -0.4535E-19 -0.4432E-20
     -1.120 -0.2042E-16 -0.1998E-17
     -1.023 -0.5491E-14 -0.5379E-15
     -0.925 -0.9339E-12 -0.9169E-13
     -0.827 -0.9734E-10 -0.9592E-11
     -0.730 -0.6197E-08 -0.6144E-09
     -0.632 -0.2394E-06 -0.2398E-07
     -0.535 -0.5556E-05 -0.5663E-06
     -0.437 -0.7601E-04 -0.7985E-05
     -0.339 -0.5896E-03 -0.6553E-04
     -0.242 -0.2340E-02 -0.2939E-03
     -0.144 -0.2800E-02 -0.5673E-03
     -0.047  0.1082E-01  0.4885E-03
      0.051  0.4428E-01  0.4810E-02
      0.149  0.6252E-01  0.1091E-01
      0.246  0.3191E-01  0.1403E-01
      0.344 -0.6289E-02  0.1341E-01
      0.441  0.4674E-01  0.1797E-01
      0.539  0.2321E+00  0.4063E-01
      0.637  0.3728E+00  0.7702E-01
      0.734  0.2617E+00  0.1026E+00
      0.832  0.5973E-01  0.1084E+00
      0.929  0.1347E+00  0.1215E+00
      1.027  0.5329E+00  0.1735E+00
      1.125  0.7592E+00  0.2476E+00
      1.222  0.4834E+00  0.2948E+00
      1.320  0.1767E+00  0.3121E+00
      1.417  0.2841E+00  0.3398E+00
      1.515  0.5088E+00  0.3895E+00
      1.613  0.4491E+00  0.4333E+00
      1.710  0.2172E+00  0.4545E+00
      1.808  0.6544E-01  0.4609E+00
      1.905  0.9247E-01  0.4699E+00
      2.003  0.3001E+00  0.4992E+00
      2.101  0.5315E+00  0.5511E+00
      2.198  0.7007E+00  0.6195E+00
      2.296  0.1071E+01  0.7239E+00
      2.393  0.1633E+01  0.8834E+00
      2.491  0.1840E+01  0.1063E+01
      2.589  0.1484E+01  0.1208E+01
      2.686  0.7891E+00  0.1285E+01
      2.784  0.3509E+00  0.1319E+01
      2.881  0.8616E+00  0.1403E+01
      2.979  0.2045E+01  0.1603E+01
      3.077  0.2830E+01  0.1879E+01
      3.174  0.2824E+01  0.2155E+01
      3.272  0.2431E+01  0.2392E+01
      3.369  0.1858E+01  0.2573E+01
      3.467  0.1946E+01  0.2763E+01
      3.565  0.3662E+01  0.3121E+01
      3.662  0.5480E+01  0.3655E+01
      3.760  0.5447E+01  0.4187E+01
      3.857  0.4935E+01  0.4669E+01
      3.955  0.5709E+01  0.5226E+01
      4.053  0.6889E+01  0.5898E+01
      4.150  0.7383E+01  0.6619E+01
      4.248  0.7071E+01  0.7309E+01
      4.345  0.5923E+01  0.7887E+01
      4.443  0.4781E+01  0.8354E+01
      4.541  0.4971E+01  0.8839E+01
      4.638  0.6001E+01  0.9425E+01
      4.736  0.6281E+01  0.1004E+02
      4.833  0.5555E+01  0.1058E+02
      4.931  0.4710E+01  0.1104E+02
      5.029  0.4414E+01  0.1147E+02
      5.126  0.4668E+01  0.1193E+02
      5.224  0.4738E+01  0.1239E+02
      5.321  0.4420E+01  0.1282E+02
      5.419  0.4646E+01  0.1327E+02
      5.517  0.5630E+01  0.1382E+02
      5.614  0.6577E+01  0.1446E+02
      5.712  0.6989E+01  0.1515E+02
      5.809  0.6675E+01  0.1580E+02
      5.907  0.6132E+01  0.1640E+02
      6.005  0.6732E+01  0.1705E+02
      6.102  0.8099E+01  0.1784E+02
      6.200  0.8363E+01  0.1866E+02
      6.297  0.8417E+01  0.1948E+02
      6.395  0.1046E+02  0.2050E+02
      6.493  0.1265E+02  0.2174E+02
      6.590  0.1163E+02  0.2287E+02
      6.688  0.8306E+01  0.2368E+02
      6.785  0.6388E+01  0.2431E+02
      6.883  0.7217E+01  0.2501E+02
      6.981  0.8730E+01  0.2586E+02
      7.078  0.9195E+01  0.2676E+02
      7.176  0.9196E+01  0.2766E+02
      7.273  0.9210E+01  0.2856E+02
      7.371  0.8258E+01  0.2936E+02
      7.469  0.6236E+01  0.2997E+02
      7.566  0.4841E+01  0.3044E+02
      7.664  0.4721E+01  0.3090E+02
      7.761  0.4936E+01  0.3139E+02
      7.859  0.4792E+01  0.3185E+02
      7.957  0.4551E+01  0.3230E+02
      8.054  0.5149E+01  0.3280E+02
      8.152  0.6784E+01  0.3346E+02
      8.249  0.8139E+01  0.3426E+02
      8.347  0.8168E+01  0.3505E+02
      8.445  0.7297E+01  0.3577E+02
      8.542  0.6188E+01  0.3637E+02
      8.640  0.5187E+01  0.3688E+02
      8.737  0.4424E+01  0.3731E+02
      8.835  0.4262E+01  0.3772E+02
      8.933  0.5134E+01  0.3823E+02
      9.030  0.6256E+01  0.3884E+02
      9.128  0.6645E+01  0.3948E+02
      9.225  0.6294E+01  0.4010E+02
      9.323  0.5465E+01  0.4063E+02
      9.421  0.4574E+01  0.4108E+02
      9.518  0.3885E+01  0.4146E+02
      9.616  0.3456E+01  0.4179E+02
      9.713  0.3580E+01  0.4214E+02
      9.811  0.3626E+01  0.4250E+02
      9.909  0.2559E+01  0.4275E+02
     10.006  0.1174E+01  0.4286E+02
     10.104  0.8384E+00  0.4294E+02
     10.201  0.1245E+01  0.4307E+02
     10.299  0.1279E+01  0.4319E+02
     10.397  0.9139E+00  0.4328E+02
     10.494  0.8426E+00  0.4336E+02
     10.592  0.9816E+00  0.4346E+02
     10.689  0.9118E+00  0.4355E+02
     10.787  0.9109E+00  0.4364E+02
     10.885  0.1234E+01  0.4376E+02
     10.982  0.1544E+01  0.4391E+02
     11.080  0.1664E+01  0.4407E+02
     11.177  0.1460E+01  0.4421E+02
     11.275  0.8459E+00  0.4429E+02
     11.373  0.4401E+00  0.4434E+02
     11.470  0.6601E+00  0.4440E+02
     11.568  0.9537E+00  0.4449E+02
     11.665  0.8234E+00  0.4458E+02
     11.763  0.6572E+00  0.4464E+02
     11.861  0.8427E+00  0.4472E+02
     11.958  0.1009E+01  0.4482E+02
     12.056  0.8390E+00  0.4490E+02
     12.153  0.6004E+00  0.4496E+02
     12.251  0.4859E+00  0.4501E+02
     12.349  0.3723E+00  0.4504E+02
     12.446  0.3735E+00  0.4508E+02
     12.544  0.7117E+00  0.4515E+02
     12.641  0.1291E+01  0.4528E+02
     12.739  0.1705E+01  0.4544E+02
     12.837  0.1654E+01  0.4560E+02
     12.934  0.1402E+01  0.4574E+02
     13.032  0.1252E+01  0.4586E+02
     13.129  0.1148E+01  0.4597E+02
     13.227  0.9597E+00  0.4607E+02
     13.325  0.7574E+00  0.4614E+02
     13.422  0.7743E+00  0.4622E+02
     13.520  0.9156E+00  0.4631E+02
     13.617  0.9279E+00  0.4640E+02
     13.715  0.1181E+01  0.4651E+02
     13.813  0.1926E+01  0.4670E+02
     13.910  0.2274E+01  0.4692E+02
     14.008  0.1782E+01  0.4710E+02
     14.105  0.1030E+01  0.4720E+02
     14.203  0.3723E+00  0.4723E+02
     14.301  0.3360E-01  0.4724E+02
     14.398  0.1782E+00  0.4725E+02
     14.496  0.5694E+00  0.4731E+02
     14.593  0.6991E+00  0.4738E+02
     14.691  0.3919E+00  0.4742E+02
     14.789  0.5965E-01  0.4742E+02
     14.886  0.1072E+00  0.4743E+02
     14.984  0.5307E+00  0.4748E+02
     15.081  0.1095E+01  0.4759E+02
     15.179  0.1484E+01  0.4774E+02
     15.277  0.1398E+01  0.4787E+02
     15.374  0.1136E+01  0.4798E+02
     15.472  0.1427E+01  0.4812E+02
     15.569  0.2071E+01  0.4833E+02
     15.667  0.2168E+01  0.4854E+02
     15.765  0.1811E+01  0.4871E+02
     15.862  0.1461E+01  0.4886E+02
     15.960  0.1014E+01  0.4896E+02
     16.057  0.8418E+00  0.4904E+02
     16.155  0.1408E+01  0.4917E+02
     16.253  0.1983E+01  0.4937E+02
     16.350  0.1564E+01  0.4952E+02
     16.448  0.5479E+00  0.4957E+02
     16.545 -0.6545E-01  0.4957E+02
     16.643  0.1606E-01  0.4957E+02
     16.741  0.7414E+00  0.4964E+02
     16.838  0.1782E+01  0.4982E+02
     16.936  0.2286E+01  0.5004E+02
     17.033  0.1891E+01  0.5022E+02
     17.131  0.1084E+01  0.5033E+02
     17.229  0.3601E+00  0.5036E+02
     17.326  0.1126E+00  0.5038E+02
     17.424  0.5208E+00  0.5043E+02
     17.521  0.1144E+01  0.5054E+02
     17.619  0.1385E+01  0.5067E+02
     17.717  0.1351E+01  0.5080E+02
     17.814  0.1746E+01  0.5098E+02
     17.912  0.2712E+01  0.5124E+02
     18.009  0.3051E+01  0.5154E+02
     18.107  0.2053E+01  0.5174E+02
     18.205  0.8055E+00  0.5182E+02
     18.302  0.3756E+00  0.5185E+02
     18.400  0.6113E+00  0.5191E+02
     18.497  0.1041E+01  0.5201E+02
     18.595  0.1532E+01  0.5216E+02
     18.693  0.1810E+01  0.5234E+02
     18.790  0.1670E+01  0.5250E+02
     18.888  0.1512E+01  0.5265E+02
     18.985  0.1498E+01  0.5280E+02
     19.083  0.1191E+01  0.5291E+02
     19.181  0.6218E+00  0.5297E+02
     19.278  0.4541E+00  0.5302E+02
     19.376  0.9287E+00  0.5311E+02
     19.473  0.1465E+01  0.5325E+02
     19.571  0.1454E+01  0.5339E+02
     19.669  0.1120E+01  0.5350E+02
     19.766  0.1237E+01  0.5362E+02
     19.864  0.1912E+01  0.5381E+02
     19.961  0.2523E+01  0.5406E+02
     20.059  0.2743E+01  0.5432E+02
     20.157  0.2474E+01  0.5457E+02
     20.254  0.1840E+01  0.5475E+02
     20.352  0.1591E+01  0.5490E+02
     20.449  0.1917E+01  0.5509E+02
     20.547  0.1970E+01  0.5528E+02
     20.645  0.1448E+01  0.5542E+02
     20.742  0.8182E+00  0.5550E+02
     20.840  0.4551E+00  0.5555E+02
     20.937  0.6935E+00  0.5561E+02
     21.035  0.1540E+01  0.5576E+02
     21.133  0.2227E+01  0.5598E+02
     21.230  0.2107E+01  0.5619E+02
     21.328  0.1624E+01  0.5635E+02
     21.425  0.1688E+01  0.5651E+02
     21.523  0.2350E+01  0.5674E+02
     21.621  0.2755E+01  0.5701E+02
     21.718  0.2431E+01  0.5725E+02
     21.816  0.1840E+01  0.5743E+02
     21.913  0.1538E+01  0.5758E+02
     22.011  0.1521E+01  0.5772E+02
     22.109  0.1629E+01  0.5788E+02
     22.206  0.1762E+01  0.5805E+02
     22.304  0.1797E+01  0.5823E+02
     22.401  0.1715E+01  0.5840E+02
     22.499  0.1404E+01  0.5853E+02
     22.597  0.9740E+00  0.5863E+02
     22.694  0.8494E+00  0.5871E+02
     22.792  0.1086E+01  0.5882E+02
     22.889  0.1380E+01  0.5895E+02
     22.987  0.1400E+01  0.5909E+02
     23.085  0.1003E+01  0.5919E+02
     23.182  0.4966E+00  0.5924E+02
     23.280  0.3189E+00  0.5927E+02
     23.377  0.4064E+00  0.5931E+02
     23.475  0.3800E+00  0.5934E+02
     23.573  0.1786E+00  0.5936E+02
     23.670  0.1858E-01  0.5936E+02
     23.768 -0.1993E-01  0.5936E+02
     23.865 -0.1048E-01  0.5936E+02
     23.963 -0.6535E-02  0.5936E+02
     24.061 -0.1959E-01  0.5936E+02
     24.158 -0.3469E-01  0.5935E+02
     24.256  0.3912E-01  0.5936E+02
     24.353  0.3122E+00  0.5939E+02
     24.451  0.7199E+00  0.5946E+02
     24.549  0.1061E+01  0.5956E+02
     24.646  0.1086E+01  0.5967E+02
     24.744  0.6769E+00  0.5973E+02
     24.841  0.1767E+00  0.5975E+02
     24.939 -0.5572E-01  0.5975E+02
     25.037 -0.7985E-01  0.5974E+02
     25.134  0.4264E-01  0.5974E+02
     25.232  0.4245E+00  0.5978E+02
     25.329  0.8764E+00  0.5987E+02
     25.427  0.8914E+00  0.5996E+02
     25.525  0.4514E+00  0.6000E+02
     25.622  0.6548E-01  0.6001E+02
     25.720 -0.4174E-01  0.6000E+02
     25.817 -0.2373E-01  0.6000E+02
     25.915 -0.5377E-02  0.6000E+02
     26.013 -0.6572E-03  0.6000E+02
     26.110 -0.4661E-04  0.6000E+02
     26.208 -0.1972E-05  0.6000E+02
     26.305 -0.5048E-07  0.6000E+02
     26.403 -0.7876E-09  0.6000E+02
     26.501 -0.7525E-11  0.6000E+02
     26.598 -0.4397E-13  0.6000E+02
     26.696 -0.2912E-15  0.6000E+02
     26.793  0.0000E+00  0.6000E+02
     26.891  0.0000E+00  0.6000E+02
     26.989  0.0000E+00  0.6000E+02
     27.086  0.0000E+00  0.6000E+02
     27.184  0.0000E+00  0.6000E+02
     27.281  0.0000E+00  0.6000E+02
     27.379  0.0000E+00  0.6000E+02
