    4    4    1    1
  0.1444527E+02  0.3866000E-09  0.3866000E-09  0.3866000E-09  0.5000000E-15
  1.000000000000000E-004
  CAR 
 unknown system                          
     40     27     30
 
  0.0000000E+00  0.0000000E+00  0.0000000E+00  0.8000000E-02
    1        0.099074   1.000000
    2        2.581406   1.000000
    3        3.536102   1.000000
    4        3.547186   1.000000
    5        3.623191   1.000000
    6        3.717727   1.000000
    7        3.726235   1.000000
    8        6.210490   1.000000
    9        6.213689   1.000000
   10        6.358554   1.000000
   11        7.450542   1.000000
   12        7.578176   1.000000
   13        8.218158   1.000000
   14        8.376083   1.000000
   15        8.533344   1.000010
   16        9.229024   0.415877
   17        9.396209  -0.017130
   18        9.491866  -0.031243
   19        9.771434  -0.000257
   20       10.242531  -0.000000
   21       10.819011  -0.000000
   22       11.390078  -0.000000
   23       11.397830  -0.000000
   24       11.410747  -0.000000
   25       17.891112   0.000000
   26       18.147899   0.000000
   27       19.753423   0.000000
   28       20.293240   0.000000
   29       20.438153   0.000000
   30       20.676596   0.000000
 
  0.2000000E+00  0.0000000E+00  0.0000000E+00  0.1600000E-01
    1        0.565946   1.000000
    2        2.884098   1.000000
    3        3.699851   1.000000
    4        3.703869   1.000000
    5        3.900449   1.000000
    6        3.983744   1.000000
    7        4.055885   1.000000
    8        5.966701   1.000000
    9        6.340654   1.000000
   10        6.498252   1.000000
   11        7.347666   1.000000
   12        7.483324   1.000000
   13        7.663857   1.000000
   14        7.850728   1.000000
   15        7.996128   1.000000
   16        8.207154   1.000000
   17        9.008523   1.025389
   18        9.103084   0.885994
   19        9.241076   0.366324
   20        9.467190  -0.034844
   21        9.720805  -0.000887
   22       10.817237  -0.000000
   23       13.176797  -0.000000
   24       13.182119  -0.000000
   25       17.897094   0.000000
   26       18.019046   0.000000
   27       20.386096   0.000000
   28       20.427446   0.000000
   29       20.591035   0.000000
   30       20.979899   0.000000
 
  0.0000000E+00  0.2000000E+00  0.0000000E+00  0.1600000E-01
    1        0.617500   1.000000
    2        2.902098   1.000000
    3        3.656368   1.000000
    4        3.777169   1.000000
    5        3.844146   1.000000
    6        3.981519   1.000000
    7        4.082519   1.000000
    8        6.141156   1.000000
    9        6.363656   1.000000
   10        6.371268   1.000000
   11        7.282221   1.000000
   12        7.599263   1.000000
   13        7.613393   1.000000
   14        7.757342   1.000000
   15        8.266262   1.000000
   16        8.747754   1.002631
   17        9.013758   1.022499
   18        9.189782   0.581041
   19        9.223107   0.440608
   20        9.293933   0.174138
   21        9.472607  -0.034284
   22        9.702346  -0.001343
   23       13.288047  -0.000000
   24       13.405660  -0.000000
   25       17.428170   0.000000
   26       18.670616   0.000000
   27       20.321676   0.000000
   28       20.383516   0.000000
   29       20.587568   0.000000
   30       21.281599   0.000000
 
  0.0000000E+00  0.0000000E+00  0.2000000E+00  0.1600000E-01
    1        0.619228   1.000000
    2        2.914276   1.000000
    3        3.810057   1.000000
    4        3.852522   1.000000
    5        3.896661   1.000000
    6        3.898604   1.000000
    7        3.907243   1.000000
    8        5.954415   1.000000
    9        6.335696   1.000000
   10        6.498658   1.000000
   11        7.287708   1.000000
   12        7.566269   1.000000
   13        7.578599   1.000000
   14        7.937626   1.000000
   15        8.077180   1.000000
   16        8.510408   1.000005
   17        8.836879   1.012207
   18        9.129702   0.808187
   19        9.165579   0.679144
   20        9.302795   0.147508
   21        9.733995  -0.000651
   22       10.226490  -0.000000
   23       13.259232  -0.000000
   24       13.371568  -0.000000
   25       17.113777   0.000000
   26       18.879181   0.000000
   27       20.411882   0.000000
   28       20.436138   0.000000
   29       20.706353   0.000000
   30       21.204529   0.000000
 
  0.4000000E+00  0.0000000E+00  0.0000000E+00  0.1600000E-01
    1        1.675829   1.000000
    2        3.499095   1.000000
    3        3.799410   1.000000
    4        4.054305   1.000000
    5        4.707403   1.000000
    6        4.747112   1.000000
    7        4.836816   1.000000
    8        5.508219   1.000000
    9        6.032819   1.000000
   10        6.134513   1.000000
   11        6.835749   1.000000
   12        6.908398   1.000000
   13        6.945070   1.000000
   14        7.154224   1.000000
   15        7.334568   1.000000
   16        7.560369   1.000000
   17        8.199657   1.000000
   18        8.209008   1.000000
   19        8.239320   1.000000
   20        8.551021   1.000017
   21        9.342349   0.052340
   22       10.815342  -0.000000
   23       15.724983   0.000000
   24       15.800124   0.000000
   25       17.059345   0.000000
   26       18.022155   0.000000
   27       18.612438   0.000000
   28       18.734645   0.000000
   29       19.146161   0.000000
   30       21.822884   0.000000
 
  0.0000000E+00  0.4000000E+00  0.0000000E+00  0.1600000E-01
    1        1.990851   1.000000
    2        3.296922   1.000000
    3        3.774614   1.000000
    4        4.104231   1.000000
    5        4.641781   1.000000
    6        4.690722   1.000000
    7        4.965919   1.000000
    8        5.739490   1.000000
    9        6.331452   1.000000
   10        6.357179   1.000000
   11        6.803094   1.000000
   12        6.888008   1.000000
   13        6.908128   1.000000
   14        7.081915   1.000000
   15        7.548688   1.000000
   16        7.864428   1.000000
   17        7.874238   1.000000
   18        8.078524   1.000000
   19        8.185148   1.000000
   20        8.438730   1.000000
   21        9.128816   0.811046
   22        9.456152  -0.035440
   23       15.916264   0.000000
   24       15.963744   0.000000
   25       16.687035   0.000000
   26       18.474726   0.000000
   27       18.493486   0.000000
   28       18.628311   0.000000
   29       20.471069   0.000000
   30       20.737170   0.000000
 
  0.0000000E+00  0.0000000E+00  0.4000000E+00  0.1600000E-01
    1        2.006479   1.000000
    2        3.293740   1.000000
    3        3.984681   1.000000
    4        4.344274   1.000000
    5        4.638848   1.000000
    6        4.730552   1.000000
    7        4.742176   1.000000
    8        5.411234   1.000000
    9        6.024468   1.000000
   10        6.143320   1.000000
   11        6.808788   1.000000
   12        6.961666   1.000000
   13        6.965957   1.000000
   14        7.110948   1.000000
   15        7.380970   1.000000
   16        7.693868   1.000000
   17        8.013364   1.000000
   18        8.040130   1.000000
   19        8.424330   1.000000
   20        8.485107   1.000002
   21        8.930208   1.031985
   22       10.206497  -0.000000
   23       15.890604   0.000000
   24       16.018298   0.000000
   25       16.245613   0.000000
   26       18.447206   0.000000
   27       18.721727   0.000000
   28       18.981814   0.000000
   29       20.064524   0.000000
   30       21.094136   0.000000
 
  0.2000000E+00  0.2000000E+00  0.0000000E+00  0.3200000E-01
    1        1.062306   1.000000
    2        3.192528   1.000000
    3        3.927517   1.000000
    4        3.932269   1.000000
    5        4.106811   1.000000
    6        4.107363   1.000000
    7        4.391428   1.000000
    8        5.921036   1.000000
    9        6.395111   1.000000
   10        6.535866   1.000000
   11        7.044549   1.000000
   12        7.251455   1.000000
   13        7.275675   1.000000
   14        7.341099   1.000000
   15        7.799578   1.000000
   16        7.984077   1.000000
   17        8.348335   1.000000
   18        8.913277   1.028587
   19        8.971144   1.035256
   20        9.060597   0.973742
   21        9.731858  -0.000685
   22       10.893603  -0.000000
   23       11.884839  -0.000000
   24       14.553993  -0.000000
   25       16.959083   0.000000
   26       19.015294   0.000000
   27       20.040835   0.000000
   28       20.413320   0.000000
   29       21.045302   0.000000
   30       21.680071   0.000000
 
  0.0000000E+00  0.2000000E+00  0.2000000E+00  0.3200000E-01
    1        1.088530   1.000000
    2        3.226961   1.000000
    3        3.912430   1.000000
    4        3.979211   1.000000
    5        4.042339   1.000000
    6        4.220303   1.000000
    7        4.338531   1.000000
    8        5.905302   1.000000
    9        6.393207   1.000000
   10        6.537989   1.000000
   11        7.063986   1.000000
   12        7.224906   1.000000
   13        7.294151   1.000000
   14        7.320535   1.000000
   15        7.763487   1.000000
   16        8.093841   1.000000
   17        8.449147   1.000001
   18        8.715824   1.001346
   19        8.924819   1.030977
   20        8.925767   1.031160
   21        9.559545  -0.016319
   22       10.929146  -0.000000
   23       12.248286  -0.000000
   24       14.457333  -0.000000
   25       16.818769   0.000000
   26       19.066714   0.000000
   27       19.524978   0.000000
   28       20.941631   0.000000
   29       21.203357   0.000000
   30       21.921128   0.000000
 
  0.2000000E+00  0.0000000E+00  0.2000000E+00  0.3200000E-01
    1        1.062233   1.000000
    2        3.208293   1.000000
    3        3.933915   1.000000
    4        3.954592   1.000000
    5        4.068318   1.000000
    6        4.223515   1.000000
    7        4.323320   1.000000
    8        5.780262   1.000000
    9        6.458914   1.000000
   10        6.561886   1.000000
   11        7.018563   1.000000
   12        7.231705   1.000000
   13        7.240159   1.000000
   14        7.300383   1.000000
   15        7.795708   1.000000
   16        7.840446   1.000000
   17        8.217765   1.000000
   18        9.004482   1.027330
   19        9.068240   0.961249
   20        9.263386   0.279156
   21        9.851532  -0.000027
   22       11.142923  -0.000000
   23       11.546649  -0.000000
   24       14.547236  -0.000000
   25       16.926607   0.000000
   26       18.944694   0.000000
   27       19.985263   0.000000
   28       20.537208   0.000000
   29       21.116547   0.000000
   30       21.817223   0.000000
 
  0.4000000E+00  0.2000000E+00  0.0000000E+00  0.3200000E-01
    1        2.140460   1.000000
    2        3.775441   1.000000
    3        4.123791   1.000000
    4        4.294379   1.000000
    5        4.672486   1.000000
    6        4.834987   1.000000
    7        5.025730   1.000000
    8        5.464684   1.000000
    9        5.675521   1.000000
   10        6.088241   1.000000
   11        6.356259   1.000000
   12        6.477436   1.000000
   13        6.920313   1.000000
   14        7.185436   1.000000
   15        7.325733   1.000000
   16        7.666064   1.000000
   17        7.840536   1.000000
   18        8.407249   1.000000
   19        8.450441   1.000001
   20        8.945770   1.034321
   21        9.559978  -0.016231
   22        9.819148  -0.000070
   23       13.129170  -0.000000
   24       15.194179   0.000000
   25       16.921896   0.000000
   26       18.086478   0.000000
   27       19.561343   0.000000
   28       19.820151   0.000000
   29       21.829907   0.000000
   30       23.078973   0.000000
 
  0.0000000E+00  0.4000000E+00  0.2000000E+00  0.3200000E-01
    1        2.344030   1.000000
    2        3.637923   1.000000
    3        4.024933   1.000000
    4        4.299510   1.000000
    5        4.594962   1.000000
    6        4.809800   1.000000
    7        5.161760   1.000000
    8        5.632504   1.000000
    9        5.788105   1.000000
   10        6.263162   1.000000
   11        6.343288   1.000000
   12        6.485651   1.000000
   13        6.919879   1.000000
   14        7.144478   1.000000
   15        7.616680   1.000000
   16        7.693368   1.000000
   17        7.762642   1.000000
   18        8.187128   1.000000
   19        8.385752   1.000000
   20        8.951260   1.034878
   21        9.071852   0.954856
   22        9.382423  -0.005249
   23       13.600368  -0.000000
   24       15.151070   0.000000
   25       16.791287   0.000000
   26       18.366724   0.000000
   27       19.385476   0.000000
   28       19.571985   0.000000
   29       21.677019   0.000000
   30       23.306931   0.000000
 
  0.2000000E+00  0.0000000E+00  0.4000000E+00  0.3200000E-01
    1        2.381312   1.000000
    2        3.645763   1.000000
    3        4.244463   1.000000
    4        4.438016   1.000000
    5        4.629723   1.000000
    6        4.954232   1.000000
    7        4.959800   1.000000
    8        5.285720   1.000000
    9        5.567353   1.000000
   10        6.148472   1.000000
   11        6.423391   1.000000
   12        6.506153   1.000000
   13        6.947375   1.000000
   14        7.197764   1.000000
   15        7.343984   1.000000
   16        7.682462   1.000000
   17        7.980888   1.000000
   18        8.280549   1.000000
   19        8.463126   1.000001
   20        8.694572   1.000833
   21        9.287259   0.195396
   22        9.453058  -0.035455
   23       13.464614  -0.000000
   24       15.193455   0.000000
   25       16.841333   0.000000
   26       17.956710   0.000000
   27       19.372230   0.000000
   28       20.132340   0.000000
   29       21.946233   0.000000
   30       22.960638   0.000000
 
 -0.2000000E+00  0.4000000E+00  0.0000000E+00  0.3200000E-01
    1        2.378807   1.000000
    2        3.625569   1.000000
    3        4.073629   1.000000
    4        4.313510   1.000000
    5        4.614240   1.000000
    6        4.772572   1.000000
    7        5.146021   1.000000
    8        5.635929   1.000000
    9        5.961754   1.000000
   10        6.248736   1.000000
   11        6.260877   1.000000
   12        6.469513   1.000000
   13        6.917414   1.000000
   14        7.180277   1.000000
   15        7.520584   1.000000
   16        7.720320   1.000000
   17        7.795468   1.000000
   18        8.205556   1.000000
   19        8.458502   1.000001
   20        8.859173   1.016454
   21        8.970821   1.035275
   22        9.240962   0.366787
   23       13.514441  -0.000000
   24       15.184624   0.000000
   25       16.839861   0.000000
   26       18.331858   0.000000
   27       19.356470   0.000000
   28       19.754235   0.000000
   29       21.988497   0.000000
   30       22.987691   0.000000
 
 -0.4000000E+00  0.0000000E+00  0.2000000E+00  0.3200000E-01
    1        2.136343   1.000000
    2        3.813127   1.000000
    3        4.083081   1.000000
    4        4.263374   1.000000
    5        4.621970   1.000000
    6        4.880251   1.000000
    7        5.074881   1.000000
    8        5.412684   1.000000
    9        5.587202   1.000000
   10        6.153049   1.000000
   11        6.427067   1.000000
   12        6.520737   1.000000
   13        6.929943   1.000000
   14        7.198734   1.000000
   15        7.282789   1.000000
   16        7.656865   1.000000
   17        8.058365   1.000000
   18        8.157071   1.000000
   19        8.545050   1.000014
   20        8.972119   1.035195
   21        9.526306  -0.023697
   22        9.772517  -0.000250
   23       13.108280  -0.000000
   24       15.258397   0.000000
   25       16.874232   0.000000
   26       18.051399   0.000000
   27       19.464954   0.000000
   28       19.755683   0.000000
   29       21.939947   0.000000
   30       22.963593   0.000000
 
  0.0000000E+00  0.2000000E+00  0.4000000E+00  0.3200000E-01
    1        2.352450   1.000000
    2        3.619961   1.000000
    3        4.246942   1.000000
    4        4.471042   1.000000
    5        4.644863   1.000000
    6        4.913014   1.000000
    7        4.930633   1.000000
    8        5.351677   1.000000
    9        5.557855   1.000000
   10        6.091973   1.000000
   11        6.331241   1.000000
   12        6.504539   1.000000
   13        6.951600   1.000000
   14        7.147557   1.000000
   15        7.446163   1.000000
   16        7.700146   1.000000
   17        7.762438   1.000000
   18        8.310412   1.000000
   19        8.611374   1.000100
   20        8.635976   1.000194
   21        9.475024  -0.033986
   22        9.572607  -0.013754
   23       13.560919  -0.000000
   24       15.094255   0.000000
   25       16.847708   0.000000
   26       18.011194   0.000000
   27       19.490743   0.000000
   28       20.013729   0.000000
   29       21.555094   0.000000
   30       23.416259   0.000000
 
  0.4000000E+00  0.4000000E+00  0.0000000E+00  0.3200000E-01
    1        3.286379   1.000000
    2        4.203684   1.000000
    3        4.470690   1.000000
    4        4.802609   1.000000
    5        4.872090   1.000000
    6        5.084321   1.000000
    7        5.200486   1.000000
    8        5.324026   1.000000
    9        5.377634   1.000000
   10        5.859361   1.000000
   11        5.999360   1.000000
   12        6.272503   1.000000
   13        6.906044   1.000000
   14        7.069769   1.000000
   15        7.093353   1.000000
   16        7.328792   1.000000
   17        7.509715   1.000000
   18        8.104563   1.000000
   19        8.410497   1.000000
   20        8.442549   1.000000
   21        9.160382   0.699260
   22       10.146776  -0.000000
   23       11.628442  -0.000000
   24       12.965971  -0.000000
   25       18.821651   0.000000
   26       18.954993   0.000000
   27       20.498335   0.000000
   28       21.187456   0.000000
   29       21.229226   0.000000
   30       21.663549   0.000000
 
  0.0000000E+00  0.4000000E+00  0.4000000E+00  0.3200000E-01
    1        3.181209   1.000000
    2        3.984767   1.000000
    3        4.372682   1.000000
    4        4.764888   1.000000
    5        4.981767   1.000000
    6        5.111281   1.000000
    7        5.132664   1.000000
    8        5.397816   1.000000
    9        5.420887   1.000000
   10        5.878921   1.000000
   11        6.089173   1.000000
   12        6.267519   1.000000
   13        6.899303   1.000000
   14        7.063635   1.000000
   15        7.147268   1.000000
   16        7.221890   1.000000
   17        7.405684   1.000000
   18        8.052228   1.000000
   19        8.636208   1.000196
   20        8.689194   1.000735
   21        9.228960   0.416143
   22        9.980154  -0.000000
   23       12.193186  -0.000000
   24       13.025386  -0.000000
   25       18.563979   0.000000
   26       18.691455   0.000000
   27       20.381439   0.000000
   28       20.510700   0.000000
   29       21.062514   0.000000
   30       22.122449   0.000000
 
  0.4000000E+00  0.0000000E+00  0.4000000E+00  0.3200000E-01
    1        3.254019   1.000000
    2        4.354092   1.000000
    3        4.429840   1.000000
    4        4.673081   1.000000
    5        4.756314   1.000000
    6        4.996808   1.000000
    7        5.052059   1.000000
    8        5.262474   1.000000
    9        5.574488   1.000000
   10        6.019255   1.000000
   11        6.140964   1.000000
   12        6.381635   1.000000
   13        6.859196   1.000000
   14        7.069580   1.000000
   15        7.086714   1.000000
   16        7.339674   1.000000
   17        7.816208   1.000000
   18        7.957850   1.000000
   19        8.211209   1.000000
   20        8.305571   1.000000
   21        9.353821   0.032046
   22       10.541825  -0.000000
   23       11.175899  -0.000000
   24       12.852899  -0.000000
   25       18.731226   0.000000
   26       18.912786   0.000000
   27       20.699296   0.000000
   28       21.019303   0.000000
   29       21.423107   0.000000
   30       21.483052   0.000000
 
  0.2000000E+00  0.2000000E+00  0.2000000E+00  0.6400000E-01
    1        1.476276   1.000000
    2        3.428014   1.000000
    3        3.994875   1.000000
    4        4.132707   1.000000
    5        4.189887   1.000000
    6        4.559000   1.000000
    7        4.686008   1.000000
    8        5.728649   1.000000
    9        6.453581   1.000000
   10        6.548096   1.000000
   11        6.656558   1.000000
   12        6.856427   1.000000
   13        7.037128   1.000000
   14        7.286210   1.000000
   15        7.390919   1.000000
   16        7.617846   1.000000
   17        8.317783   1.000000
   18        8.390441   1.000000
   19        8.539428   1.000012
   20        9.099289   0.895673
   21        9.834796  -0.000045
   22       11.836237  -0.000000
   23       12.505714  -0.000000
   24       12.723663  -0.000000
   25       17.663706   0.000000
   26       17.896875   0.000000
   27       18.611277   0.000000
   28       21.110350   0.000000
   29       21.523609   0.000000
   30       21.694615   0.000000
 
  0.4000000E+00  0.2000000E+00  0.2000000E+00  0.6400000E-01
    1        2.392814   1.000000
    2        3.731751   1.000000
    3        4.215915   1.000000
    4        4.554255   1.000000
    5        4.569445   1.000000
    6        4.845830   1.000000
    7        5.353822   1.000000
    8        5.544113   1.000000
    9        5.809751   1.000000
   10        6.015562   1.000000
   11        6.376796   1.000000
   12        6.489610   1.000000
   13        6.686627   1.000000
   14        7.034466   1.000000
   15        7.110045   1.000000
   16        7.565357   1.000000
   17        8.117743   1.000000
   18        8.207477   1.000000
   19        8.647014   1.000260
   20        9.029081   1.011355
   21        9.522412  -0.024598
   22        9.797491  -0.000128
   23       13.814794  -0.000000
   24       13.831479  -0.000000
   25       15.537573   0.000000
   26       16.286693   0.000000
   27       20.114741   0.000000
   28       21.515126   0.000000
   29       22.096481   0.000000
   30       22.356382   0.000000
 
  0.2000000E+00  0.4000000E+00  0.2000000E+00  0.6400000E-01
    1        2.561804   1.000000
    2        3.631059   1.000000
    3        4.025828   1.000000
    4        4.514650   1.000000
    5        4.683476   1.000000
    6        4.880306   1.000000
    7        5.541106   1.000000
    8        5.615469   1.000000
    9        5.795806   1.000000
   10        6.105667   1.000000
   11        6.470278   1.000000
   12        6.509833   1.000000
   13        6.608706   1.000000
   14        7.032207   1.000000
   15        7.186789   1.000000
   16        7.285492   1.000000
   17        8.185392   1.000000
   18        8.259797   1.000000
   19        8.439455   1.000000
   20        8.945175   1.034251
   21        9.375526   0.002106
   22        9.666179  -0.002857
   23       13.818086  -0.000000
   24       14.052659  -0.000000
   25       15.594287   0.000000
   26       16.148654   0.000000
   27       20.196556   0.000000
   28       21.583999   0.000000
   29       22.231282   0.000000
   30       22.398694   0.000000
 
  0.2000000E+00  0.2000000E+00  0.4000000E+00  0.6400000E-01
    1        2.566100   1.000000
    2        3.630584   1.000000
    3        4.172774   1.000000
    4        4.510258   1.000000
    5        4.693213   1.000000
    6        5.058844   1.000000
    7        5.199171   1.000000
    8        5.529816   1.000000
    9        5.758325   1.000000
   10        5.990160   1.000000
   11        6.371138   1.000000
   12        6.492470   1.000000
   13        6.695852   1.000000
   14        7.056319   1.000000
   15        7.151102   1.000000
   16        7.436134   1.000000
   17        8.200950   1.000000
   18        8.218595   1.000000
   19        8.568128   1.000028
   20        8.886509   1.022483
   21        9.457899  -0.035400
   22        9.745729  -0.000491
   23       13.823562  -0.000000
   24       13.992760  -0.000000
   25       15.576914   0.000000
   26       16.239504   0.000000
   27       20.104554   0.000000
   28       21.361346   0.000000
   29       22.192470   0.000000
   30       22.462787   0.000000
 
  0.4000000E+00  0.4000000E+00  0.2000000E+00  0.6400000E-01
    1        3.044513   1.000000
    2        3.556072   1.000000
    3        3.880764   1.000000
    4        4.265077   1.000000
    5        5.190769   1.000000
    6        5.489708   1.000000
    7        5.727977   1.000000
    8        5.913037   1.000000
    9        6.074549   1.000000
   10        6.125357   1.000000
   11        6.333396   1.000000
   12        6.502571   1.000000
   13        6.600435   1.000000
   14        6.713616   1.000000
   15        6.875839   1.000000
   16        6.946913   1.000000
   17        7.924987   1.000000
   18        8.365623   1.000000
   19        8.762700   1.003527
   20        9.091976   0.913301
   21        9.229268   0.414858
   22       10.268786  -0.000000
   23       11.510443  -0.000000
   24       12.717974  -0.000000
   25       15.810130   0.000000
   26       17.484708   0.000000
   27       17.910452   0.000000
   28       19.889662   0.000000
   29       22.775181   0.000000
   30       24.560491   0.000000
 
  0.2000000E+00  0.4000000E+00  0.4000000E+00  0.6400000E-01
    1        3.029031   1.000000
    2        3.591921   1.000000
    3        3.652384   1.000000
    4        4.276468   1.000000
    5        5.194776   1.000000
    6        5.491342   1.000000
    7        5.715868   1.000000
    8        5.963511   1.000000
    9        6.085666   1.000000
   10        6.121196   1.000000
   11        6.324206   1.000000
   12        6.509093   1.000000
   13        6.608529   1.000000
   14        6.714625   1.000000
   15        6.871173   1.000000
   16        6.934661   1.000000
   17        7.969324   1.000000
   18        8.398597   1.000000
   19        8.888990   1.023056
   20        9.074462   0.950036
   21        9.207744   0.505450
   22       10.151197  -0.000000
   23       11.993747  -0.000000
   24       12.904193  -0.000000
   25       15.549194   0.000000
   26       17.061538   0.000000
   27       17.945748   0.000000
   28       19.860619   0.000000
   29       22.864658   0.000000
   30       24.406739   0.000000
 
  0.4000000E+00  0.2000000E+00  0.4000000E+00  0.6400000E-01
    1        3.038019   1.000000
    2        3.586724   1.000000
    3        3.917819   1.000000
    4        4.104851   1.000000
    5        5.162767   1.000000
    6        5.389068   1.000000
    7        5.702407   1.000000
    8        6.072336   1.000000
    9        6.185670   1.000000
   10        6.217761   1.000000
   11        6.431448   1.000000
   12        6.449340   1.000000
   13        6.596467   1.000000
   14        6.771170   1.000000
   15        6.826884   1.000000
   16        6.885543   1.000000
   17        8.084124   1.000000
   18        8.123405   1.000000
   19        8.587059   1.000050
   20        9.222863   0.441634
   21        9.357844   0.025680
   22       10.634444  -0.000000
   23       11.062307  -0.000000
   24       12.654455  -0.000000
   25       15.783256   0.000000
   26       17.524999   0.000000
   27       17.897508   0.000000
   28       19.950282   0.000000
   29       22.638987   0.000000
   30       24.635363   0.000000
 
  0.4000000E+00  0.4000000E+00  0.4000000E+00  0.6400000E-01
    1        2.916838   1.000000
    2        3.043466   1.000000
    3        3.285866   1.000000
    4        3.659586   1.000000
    5        5.622881   1.000000
    6        5.737237   1.000000
    7        5.825912   1.000000
    8        6.108227   1.000000
    9        6.191235   1.000000
   10        6.425790   1.000000
   11        6.432271   1.000000
   12        6.623205   1.000000
   13        7.283673   1.000000
   14        7.347487   1.000000
   15        7.511795   1.000000
   16        7.844770   1.000000
   17        8.279520   1.000000
   18        8.694483   1.000832
   19        8.756322   1.003118
   20        9.175528   0.639588
   21        9.716808  -0.000972
   22       10.489194  -0.000000
   23       10.885444  -0.000000
   24       11.111402  -0.000000
   25       14.987512   0.000000
   26       15.390404   0.000000
   27       16.194827   0.000000
   28       17.709009   0.000000
   29       25.284726   0.000000
   30       25.378913   0.000000
