       N       E                     dE             d eps       ncg     rms          rms(c)
DAV:   1    -0.233533779479E+02   -0.23353E+02   -0.58432E-03  2138   0.761E-01    0.130E-01
DAV:   2    -0.233266831198E+02    0.26695E-01   -0.91544E-03  2090   0.117E+00    0.219E-01
DAV:   3    -0.233260302902E+02    0.65283E-03   -0.12779E-03  2226   0.851E-01    0.483E-02
DAV:   4    -0.233260277480E+02    0.25422E-05   -0.83304E-05  2390   0.146E-01    0.404E-02
DAV:   5    -0.233260218612E+02    0.58868E-05   -0.12587E-05  2070   0.945E-02    0.293E-02
DAV:   6    -0.233260219459E+02   -0.84705E-07   -0.11189E-06  1014   0.162E-02
   1 F= -.23326022E+02 E0= -.23323993E+02  d E =-.608722E-02
